
  ___ ___ ___ _ _ _  
 |   |   |_  | | | | 
 | | | | | . | | | | 
 |__ |  _|___|_____|  22.8.0
 |___|_|             

User:   vazumah@r414.ib.bridges2.psc.edu
Date:   Fri Mar 10 18:31:41 2023
Arch:   x86_64
Pid:    98807
CWD:    /jet/home/vazumah/Calcs/LiMEAS/proton_donors/propan_1_ol_z/bridge/0.0_1.617/N2_x
Python: 3.11.0
gpaw:   /jet/home/vazumah/.conda/envs/GPAW_mpich/lib/python3.11/site-packages/gpaw
_gpaw:  /jet/home/vazumah/.conda/envs/GPAW_mpich/lib/python3.11/site-packages/
        _gpaw.cpython-311-x86_64-linux-gnu.so
ase:    /jet/home/vazumah/.conda/envs/GPAW_mpich/lib/python3.11/site-packages/ase (version 3.22.1)
numpy:  /jet/home/vazumah/.conda/envs/GPAW_mpich/lib/python3.11/site-packages/numpy (version 1.24.2)
scipy:  /jet/home/vazumah/.conda/envs/GPAW_mpich/lib/python3.11/site-packages/scipy (version 1.10.1)
libxc:  5.2.3
units:  Angstrom and eV
cores: 128
OpenMP: True
OMP_NUM_THREADS: 1

Input parameters:
  h: 0.16
  kpts: {size: [4, 4, 1]}
  occupations: {name: fermi-dirac,
                width: 0.05}
  poissonsolver: {dipolelayer: xy}
  xc: BEEF-vdW

System changes: positions, numbers, cell, pbc, initial_charges, initial_magmoms 

Initialize ...

species:
  Li:
    name: Lithium
    id: 830b4218f175192f93f959cfc0aad614
    Z: 3.0
    valence: 1
    core: 2
    charge: 0.0
    file: /jet/home/vazumah/datasets/gpaw-setups-0.9.20000/Li.PBE.gz
    compensation charges: {type: gauss,
                           rc: 0.33,
                           lmax: 2}
    cutoffs: {filter: 1.91,
              core: 2.55}
    valence states:
      #              energy  rcut
      - 2s(1.00)    -2.874   1.058
      - 2p(0.00)    -1.090   1.058
      -  s          24.337   1.058
  
    # Using partial waves for Li as LCAO basis

  O:
    name: Oxygen
    id: 32ecd46bf208036f09c70b0ec9a88b78
    Z: 8.0
    valence: 6
    core: 2
    charge: 0.0
    file: /jet/home/vazumah/datasets/gpaw-setups-0.9.20000/O.PBE.gz
    compensation charges: {type: gauss,
                           rc: 0.21,
                           lmax: 2}
    cutoffs: {filter: 1.17,
              core: 0.83}
    valence states:
      #              energy  rcut
      - 2s(2.00)   -23.961   0.688
      - 2p(4.00)    -9.029   0.598
      -  s           3.251   0.688
      -  p          18.182   0.598
      -  d           0.000   0.619
  
    # Using partial waves for O as LCAO basis

  C:
    name: Carbon
    id: 4aa54d4b901d75f77cc0ea3eec22967b
    Z: 6.0
    valence: 4
    core: 2
    charge: 0.0
    file: /jet/home/vazumah/datasets/gpaw-setups-0.9.20000/C.PBE.gz
    compensation charges: {type: gauss,
                           rc: 0.20,
                           lmax: 2}
    cutoffs: {filter: 1.14,
              core: 1.14}
    valence states:
      #              energy  rcut
      - 2s(2.00)   -13.751   0.635
      - 2p(2.00)    -5.284   0.635
      -  s          13.461   0.635
      -  p          21.927   0.635
      -  d           0.000   0.635
  
    # Using partial waves for C as LCAO basis

  H:
    name: Hydrogen
    id: d65de229564ff8ea4db303e23b6d1ecf
    Z: 1.0
    valence: 1
    core: 0
    charge: 0.0
    file: /jet/home/vazumah/datasets/gpaw-setups-0.9.20000/H.PBE.gz
    compensation charges: {type: gauss,
                           rc: 0.15,
                           lmax: 2}
    cutoffs: {filter: 0.85,
              core: 0.53}
    valence states:
      #              energy  rcut
      - 1s(1.00)    -6.494   0.476
      -  s          20.717   0.476
      -  p           0.000   0.476
  
    # Using partial waves for H as LCAO basis

  N:
    name: Nitrogen
    id: f7500608b86eaa90eef8b1d9a670dc53
    Z: 7.0
    valence: 5
    core: 2
    charge: 0.0
    file: /jet/home/vazumah/datasets/gpaw-setups-0.9.20000/N.PBE.gz
    compensation charges: {type: gauss,
                           rc: 0.18,
                           lmax: 2}
    cutoffs: {filter: 1.11,
              core: 0.96}
    valence states:
      #              energy  rcut
      - 2s(2.00)   -18.583   0.603
      - 2p(3.00)    -7.089   0.529
      -  s           8.629   0.603
      -  p          20.123   0.529
      -  d           0.000   0.577
  
    # Using partial waves for N as LCAO basis

Reference energy: -15487.462483  # eV

Spin-paired calculation

Convergence criteria:
 Maximum [total energy] change in last 3 cyles: 0.0005 eV / electron
 Maximum integral of absolute [dens]ity change: 0.0001 electrons / valence electron
 Maximum integral of absolute [eigenst]ate change: 4e-08 eV^2 / valence electron
 Maximum number of scf [iter]ations: 333
 (Square brackets indicate name in SCF output, whereas a 'c' in
 the SCF output indicates the quantity has converged.)

Symmetries present (total): 1

  ( 1  0  0)
  ( 0  1  0)
  ( 0  0  1)

16 k-points: 4 x 4 x 1 Monkhorst-Pack grid
8 k-points in the irreducible part of the Brillouin zone
       k-points in crystal coordinates                weights
   0:     0.12500000   -0.37500000    0.00000000          2/16
   1:     0.12500000   -0.12500000    0.00000000          2/16
   2:     0.12500000    0.12500000    0.00000000          2/16
   3:     0.12500000    0.37500000    0.00000000          2/16
   4:     0.37500000   -0.37500000    0.00000000          2/16
   5:     0.37500000   -0.12500000    0.00000000          2/16
   6:     0.37500000    0.12500000    0.00000000          2/16
   7:     0.37500000    0.37500000    0.00000000          2/16

Wave functions: Uniform real-space grid
  Kinetic energy operator: 6*3+1=19 point O(h^6) finite-difference Laplacian
  ScaLapack parameters: grid=1x1, blocksize=None
  Wavefunction extrapolation:
    Improved wavefunction reuse through dual PAW basis 

Occupation numbers: Fermi-Dirac:
  width: 0.0500  # eV
 

Eigensolver
   Davidson(niter=2) 

Densities:
  Coarse grid: 60*60*164 grid
  Fine grid: 120*120*328 grid
  Total Charge: 0.000000 

Density mixing:
  Method: separate
  Backend: pulay
  Linear mixing parameter: 0.05
  old densities: 5
  Damping of long wavelength oscillations: 50 

Hamiltonian:
  XC and Coulomb potentials evaluated on a 120*120*328 grid
  Using the BEEF-vdW Exchange-Correlation functional
  Interpolation: tri-quintic (5. degree polynomial)
  Poisson solver: FastPoissonSolver using
    Stencil: 6*3+1=19 point O(h^6) finite-difference Laplacian
    FFT axes: [0, 1]
    FST axes: [2]

Dipole correction along z-axis 

XC parameters: BEEF-vdW with 2 nearest neighbor stencil

Memory estimate:
  Process memory now: 126.05 MiB
  Calculator: 84.83 MiB
    Density: 22.60 MiB
      Arrays: 7.22 MiB
      Localized functions: 12.63 MiB
      Mixer: 2.75 MiB
    Hamiltonian: 5.72 MiB
      Arrays: 4.72 MiB
      XC: 0.00 MiB
      Poisson: 0.00 MiB
      vbar: 1.00 MiB
    Wavefunctions: 56.51 MiB
      Arrays psit_nG: 26.37 MiB
      Eigensolver: 29.47 MiB
      Projections: 0.01 MiB
      Projectors: 0.66 MiB

Total number of cores used: 128
Parallelization over k-points: 8
Domain decomposition: 2 x 2 x 4

Number of atoms: 50
Number of atomic orbitals: 176
Number of bands in calculation: 48
Number of valence electrons: 72
Bands to converge: occupied

... initialized

Initializing position-dependent things.

Density initialized from atomic densities
Creating initial wave functions:
  48 bands from LCAO basis set

       .-----------------------.  
      /|                       |  
     / |                       |  
    /  |                       |  
   /   |                       |  
  /    |                       |  
 *     |                       |  
 |     |                       |  
 |     |                       |  
 |   H |                H H    |  
 |     |                  C    |  
 |     |                       |  
 |C HH |               H H     |  
 |C    |                       |  
 |     |                       |  
 |O HLi|     Li      Li        |  
 |N    |               N       |  
 | Li  |  LLi     LLi     Li   |  
 |     |                       |  
 Li    |LLi     LLi     Li     |  
 |   Li|     Li      Li        |  
 |    Li  Li  Li  Li  Li  Li   |  
 | Li  |   Li      Li          |  
 |     |Li      Li      Li     |  
 Li    | Li      Li            |  
 |    Li      Li      Li       |  
 |     |                       |  
 |     |                       |  
 |     |                       |  
 |     |                       |  
 |     |                       |  
 |     |                       |  
 |     .-----------------------.  
 |    /                       /   
 |   /                       /    
 |  /                       /     
 | /                       /      
 |/                       /       
 *-----------------------*        

Positions:
   0 Li     1.617037    1.617037   10.000000    ( 0.0000,  0.0000,  0.0000)
   1 Li     4.851111    1.617037   10.000000    ( 0.0000,  0.0000,  0.0000)
   2 Li     8.085185    1.617037   10.000000    ( 0.0000,  0.0000,  0.0000)
   3 Li     1.617037    4.851111   10.000000    ( 0.0000,  0.0000,  0.0000)
   4 Li     4.851111    4.851111   10.000000    ( 0.0000,  0.0000,  0.0000)
   5 Li     8.085185    4.851111   10.000000    ( 0.0000,  0.0000,  0.0000)
   6 Li     1.617037    8.085185   10.000000    ( 0.0000,  0.0000,  0.0000)
   7 Li     4.851111    8.085185   10.000000    ( 0.0000,  0.0000,  0.0000)
   8 Li     8.085185    8.085185   10.000000    ( 0.0000,  0.0000,  0.0000)
   9 Li     0.000000    0.000000   11.617037    ( 0.0000,  0.0000,  0.0000)
  10 Li     3.234074    0.000000   11.617037    ( 0.0000,  0.0000,  0.0000)
  11 Li     6.468148    0.000000   11.617037    ( 0.0000,  0.0000,  0.0000)
  12 Li     0.000000    3.234074   11.617037    ( 0.0000,  0.0000,  0.0000)
  13 Li     3.234074    3.234074   11.617037    ( 0.0000,  0.0000,  0.0000)
  14 Li     6.468148    3.234074   11.617037    ( 0.0000,  0.0000,  0.0000)
  15 Li     0.000000    6.468148   11.617037    ( 0.0000,  0.0000,  0.0000)
  16 Li     3.234074    6.468148   11.617037    ( 0.0000,  0.0000,  0.0000)
  17 Li     6.468148    6.468148   11.617037    ( 0.0000,  0.0000,  0.0000)
  18 Li     1.617038    1.617038   13.469728    ( 0.0000,  0.0000,  0.0000)
  19 Li     4.851111    1.617038   13.469729    ( 0.0000,  0.0000,  0.0000)
  20 Li     8.085184    1.617038   13.469728    ( 0.0000,  0.0000,  0.0000)
  21 Li     1.617038    4.851111   13.469729    ( 0.0000,  0.0000,  0.0000)
  22 Li     4.851111    4.851111   13.469730    ( 0.0000,  0.0000,  0.0000)
  23 Li     8.085184    4.851111   13.469729    ( 0.0000,  0.0000,  0.0000)
  24 Li     1.617038    8.085184   13.469728    ( 0.0000,  0.0000,  0.0000)
  25 Li     4.851111    8.085184   13.469729    ( 0.0000,  0.0000,  0.0000)
  26 Li     8.085184    8.085184   13.469728    ( 0.0000,  0.0000,  0.0000)
  27 Li    -0.000000   -0.000000   15.445939    ( 0.0000,  0.0000,  0.0000)
  28 Li     3.234074    0.000000   15.445939    ( 0.0000,  0.0000,  0.0000)
  29 Li     6.468148    0.000000   15.445939    ( 0.0000,  0.0000,  0.0000)
  30 Li     0.000000    3.234074   15.445939    ( 0.0000,  0.0000,  0.0000)
  31 Li     3.234076    3.234076   15.445938    ( 0.0000,  0.0000,  0.0000)
  32 Li     6.468146    3.234076   15.445938    ( 0.0000,  0.0000,  0.0000)
  33 Li     0.000000    6.468148   15.445939    ( 0.0000,  0.0000,  0.0000)
  34 Li     3.234076    6.468146   15.445938    ( 0.0000,  0.0000,  0.0000)
  35 Li     6.468146    6.468146   15.445938    ( 0.0000,  0.0000,  0.0000)
  36 O      0.000000    1.617037   18.445939    ( 0.0000,  0.0000,  0.0000)
  37 C      0.000130    1.229416   20.880188    ( 0.0000,  0.0000,  0.0000)
  38 C      0.010683    2.239826   19.737999    ( 0.0000,  0.0000,  0.0000)
  39 C     -0.006231    1.891829   22.260523    ( 0.0000,  0.0000,  0.0000)
  40 H     -0.877171    0.586566   20.761575    ( 0.0000,  0.0000,  0.0000)
  41 H      0.885809    0.587658   20.786274    ( 0.0000,  0.0000,  0.0000)
  42 H     -0.889209    2.859769   19.761807    ( 0.0000,  0.0000,  0.0000)
  43 H      0.878457    2.906729   19.831582    ( 0.0000,  0.0000,  0.0000)
  44 H     -0.891910    2.517909   22.394060    ( 0.0000,  0.0000,  0.0000)
  45 H     -0.007037    1.147054   23.057805    ( 0.0000,  0.0000,  0.0000)
  46 H      0.872030    2.527345   22.402072    ( 0.0000,  0.0000,  0.0000)
  47 H      0.771312    1.039479   18.397178    ( 0.0000,  0.0000,  0.0000)
  48 N      0.000000    1.617000   16.945939    ( 0.0000,  0.0000,  0.0000)
  49 N     -1.096622    1.617000   16.945939    ( 0.0000,  0.0000,  0.0000)

Unit cell:
           periodic     x           y           z      points  spacing
  1. axis:    yes    9.702222    0.000000    0.000000    60     0.1617
  2. axis:    yes    0.000000    9.702222    0.000000    60     0.1617
  3. axis:    no     0.000000    0.000000   26.351111   164     0.1607

  Lengths:   9.702222   9.702222  26.351111
  Angles:   90.000000  90.000000  90.000000

Effective grid spacing dv^(1/3) = 0.1614

     iter     time        total  log10-change:
                         energy  eigst   dens
iter:   1 18:31:55  -679.832168
iter:   2 18:32:02    13.507959  +2.63  +0.04
iter:   3 18:32:10    86.622302  +3.29  -0.14
iter:   4 18:32:17  -189.950671  +3.43  -0.22
Writing to output.gpw (mode='')

iter:   5 18:32:24  -258.027515  +2.86  -0.24
iter:   6 18:32:31  -321.046124  +2.53  -0.47
iter:   7 18:32:39  -343.929615  +2.31  -0.50
iter:   8 18:32:46  -358.674996  +2.08  -0.50
iter:   9 18:32:53  -586.130060  +2.82  -0.50
Writing to output.gpw (mode='')

iter:  10 18:33:00  -428.404526  +1.75  -0.18
iter:  11 18:33:08  -350.967780  +1.64  -0.27
iter:  12 18:33:15  -347.372357  +1.76  -0.58
iter:  13 18:33:22  -339.678326  +1.47  -0.63
iter:  14 18:33:29  -335.180033  +1.21  -0.68
Writing to output.gpw (mode='')

iter:  15 18:33:37  -332.883798  +1.17  -0.73
iter:  16 18:33:44  -332.074998  +1.08  -0.80
iter:  17 18:33:51  -330.357205  +0.78  -0.81
iter:  18 18:33:59  -328.308919  +0.50  -0.92
iter:  19 18:34:06  -328.174448  +0.21  -1.23
Writing to output.gpw (mode='')

iter:  20 18:34:13  -328.105363  +0.08  -1.20
iter:  21 18:34:20  -328.145683  -0.11  -1.27
iter:  22 18:34:28  -328.152769  -0.27  -1.29
iter:  23 18:34:35  -328.112011  -0.40  -1.46
iter:  24 18:34:42  -328.197234  -0.38  -1.47
Writing to output.gpw (mode='')

iter:  25 18:34:49  -328.083433  -0.66  -1.44
iter:  26 18:34:57  -328.086966  -0.82  -1.55
iter:  27 18:35:04  -328.258992  -0.56  -1.60
iter:  28 18:35:11  -328.037546  -0.86  -1.53
iter:  29 18:35:18  -328.040198  -1.07  -1.97
Writing to output.gpw (mode='')

iter:  30 18:35:26  -328.044160c -1.42  -2.10
iter:  31 18:35:33  -328.045347c -1.42  -2.15
iter:  32 18:35:40  -328.049079c -1.59  -2.39
iter:  33 18:35:47  -328.051861c -1.79  -2.46
iter:  34 18:35:55  -328.053929c -1.92  -2.52
Writing to output.gpw (mode='')

iter:  35 18:36:02  -328.055221c -1.90  -2.54
iter:  36 18:36:12  -328.057605c -2.11  -2.65
iter:  37 18:36:26  -328.058836c -2.17  -2.74
iter:  38 18:36:34  -328.059956c -2.22  -2.90
iter:  39 18:36:41  -328.060899c -2.32  -2.99
Writing to output.gpw (mode='')

iter:  40 18:36:49  -328.062022c -2.37  -3.10
iter:  41 18:36:56  -328.062740c -2.54  -3.12
iter:  42 18:37:03  -328.063398c -2.61  -3.16
iter:  43 18:37:10  -328.063924c -2.75  -3.38
iter:  44 18:37:18  -328.064395c -2.68  -3.48
Writing to output.gpw (mode='')

iter:  45 18:37:25  -328.064768c -2.80  -3.52
iter:  46 18:37:32  -328.065116c -2.82  -3.49
iter:  47 18:37:40  -328.065410c -2.91  -3.44
iter:  48 18:37:47  -328.065658c -3.06  -3.38
iter:  49 18:37:54  -328.065865c -3.09  -3.44
Writing to output.gpw (mode='')

iter:  50 18:38:01  -328.066113c -2.94  -3.40
iter:  51 18:38:09  -328.066278c -3.18  -3.51
iter:  52 18:38:16  -328.066411c -3.26  -3.64
iter:  53 18:38:23  -328.066520c -3.40  -3.83
iter:  54 18:38:30  -328.066620c -3.38  -3.93
Writing to output.gpw (mode='')

iter:  55 18:38:38  -328.066698c -3.47  -4.09c
iter:  56 18:38:45  -328.066763c -3.47  -4.12c
iter:  57 18:38:52  -328.066810c -3.74  -4.09c
iter:  58 18:38:59  -328.066854c -3.79  -3.95
iter:  59 18:39:07  -328.066895c -3.80  -4.05c
Writing to output.gpw (mode='')

iter:  60 18:39:14  -328.066930c -3.90  -4.07c
iter:  61 18:39:21  -328.066965c -3.74  -3.94
iter:  62 18:39:28  -328.066994c -4.03  -3.92
iter:  63 18:39:36  -328.067012c -3.97  -4.04c
iter:  64 18:39:44  -328.067031c -4.13  -4.07c
Writing to output.gpw (mode='')

iter:  65 18:39:52  -328.067045c -4.18  -4.17c
iter:  66 18:40:06  -328.067057c -4.13  -4.28c
iter:  67 18:40:15  -328.067068c -4.32  -4.42c
iter:  68 18:40:22  -328.067077c -4.31  -4.58c
iter:  69 18:40:29  -328.067085c -4.31  -4.60c
Writing to output.gpw (mode='')

iter:  70 18:40:37  -328.067093c -4.36  -4.62c
iter:  71 18:40:44  -328.067099c -4.55  -4.68c
iter:  72 18:40:51  -328.067103c -4.60  -4.66c
iter:  73 18:40:58  -328.067107c -4.74  -4.82c
iter:  74 18:41:06  -328.067111c -4.77  -4.75c
Writing to output.gpw (mode='')

iter:  75 18:41:13  -328.067114c -4.76  -4.67c
iter:  76 18:41:26  -328.067116c -4.75  -4.63c
iter:  77 18:41:35  -328.067118c -4.79  -4.63c
iter:  78 18:41:42  -328.067120c -5.02  -4.61c
iter:  79 18:41:49  -328.067122c -5.06  -4.52c
Writing to output.gpw (mode='')

iter:  80 18:41:57  -328.067124c -5.12  -4.57c
iter:  81 18:42:04  -328.067125c -5.16  -4.43c
iter:  82 18:42:11  -328.067126c -5.14  -4.55c
iter:  83 18:42:18  -328.067126c -5.38  -4.73c
iter:  84 18:42:26  -328.067127c -5.31  -4.68c
Writing to output.gpw (mode='')

iter:  85 18:42:33  -328.067127c -5.45  -4.70c
iter:  86 18:42:40  -328.067127c -5.50  -4.74c
iter:  87 18:42:47  -328.067127c -5.46  -4.66c
iter:  88 18:42:55  -328.067128c -5.47  -4.72c
iter:  89 18:43:02  -328.067129c -5.41  -4.83c
Writing to output.gpw (mode='')

iter:  90 18:43:09  -328.067127c -5.51  -4.95c
iter:  91 18:43:16  -328.067128c -5.80  -5.08c
iter:  92 18:43:24  -328.067128c -5.79  -5.20c
iter:  93 18:43:31  -328.067129c -5.60  -5.31c
iter:  94 18:43:38  -328.067128c -5.83  -5.44c
Writing to output.gpw (mode='')

iter:  95 18:43:45  -328.067128c -5.95  -5.46c
iter:  96 18:43:53  -328.067128c -5.93  -5.52c
iter:  97 18:44:00  -328.067128c -5.93  -5.61c
iter:  98 18:44:07  -328.067128c -6.09  -5.65c
iter:  99 18:44:15  -328.067128c -6.13  -5.70c
Writing to output.gpw (mode='')

iter: 100 18:44:22  -328.067128c -6.14  -5.67c
iter: 101 18:44:29  -328.067128c -6.21  -5.56c
iter: 102 18:44:36  -328.067128c -6.18  -5.59c
iter: 103 18:44:44  -328.067128c -6.25  -5.57c
iter: 104 18:44:51  -328.067128c -6.09  -5.54c
Writing to output.gpw (mode='')

iter: 105 18:44:58  -328.067128c -6.42  -5.49c
iter: 106 18:45:05  -328.067128c -6.53  -5.41c
iter: 107 18:45:13  -328.067128c -6.50  -5.40c
iter: 108 18:45:20  -328.067128c -6.60  -5.37c
iter: 109 18:45:27  -328.067128c -6.50  -5.43c
Writing to output.gpw (mode='')

iter: 110 18:45:35  -328.067128c -6.68  -5.41c
iter: 111 18:45:42  -328.067127c -6.74  -5.38c
iter: 112 18:45:49  -328.067128c -6.76  -5.53c
iter: 113 18:45:56  -328.067128c -6.86  -5.51c
iter: 114 18:46:04  -328.067128c -6.93  -5.70c
Writing to output.gpw (mode='')

iter: 115 18:46:11  -328.067128c -7.01  -5.75c
iter: 116 18:46:18  -328.067128c -6.94  -5.85c
iter: 117 18:46:32  -328.067128c -7.09  -5.96c
iter: 118 18:46:39  -328.067128c -7.05  -5.98c
iter: 119 18:46:46  -328.067128c -7.19  -5.99c
Writing to output.gpw (mode='')

iter: 120 18:46:54  -328.067128c -7.30  -6.31c
iter: 121 18:47:01  -328.067128c -7.30  -6.35c
iter: 122 18:47:08  -328.067128c -7.41c -6.38c

Converged after 122 iterations.

Dipole moment: (-21.483567, -5.922877, 0.578249) |e|*Ang

Energy contributions relative to reference atoms: (reference = -15487.462483)

Kinetic:       +199.835174
Potential:     -185.019545
External:        +0.000000
XC:            -343.569083
Entropy (-ST):   -0.157970
Local:           +0.765311
--------------------------
Free energy:   -328.146113
Extrapolated:  -328.067128

Dipole-layer corrected work functions: 3.369650, 2.258058 eV

Showing only first 2 kpts
 Kpt  Band  Eigenvalues  Occupancy
  0    34     -3.06441    1.98676
  0    35     -2.91490    1.76596
  0    36     -2.70476    0.20277
  0    37     -2.57968    0.01832

  1    34     -2.86457    1.46774
  1    35     -2.83386    1.19744
  1    36     -2.76410    0.53979
  1    37     -2.71556    0.24564


Fermi level: -2.81385

Gap: 0.028 eV
Transition (v -> c):
  (s=0, k=1, n=35, [0.12, -0.12, 0.00]) -> (s=0, k=4, n=36, [0.38, -0.38, 0.00])
Writing to output.gpw (mode='')


Forces in eV/Ang:
  0 Li    0.02528   -0.00110   -0.28052
  1 Li   -0.01424    0.00204   -0.27160
  2 Li   -0.01217    0.00142   -0.27943
  3 Li   -0.00616    0.01335   -0.27526
  4 Li   -0.00012   -0.00578   -0.27133
  5 Li    0.00637    0.02403   -0.27098
  6 Li   -0.00736   -0.01347   -0.27771
  7 Li   -0.00108    0.00446   -0.27285
  8 Li    0.00967   -0.02532   -0.27326
  9 Li   -0.00422    0.01068    0.32595
 10 Li    0.01062    0.00171    0.24949
 11 Li   -0.00496    0.00627    0.29258
 12 Li   -0.00165   -0.01033    0.32276
 13 Li    0.01323   -0.00555    0.25050
 14 Li   -0.00815   -0.00327    0.28636
 15 Li   -0.00839    0.00033    0.23388
 16 Li   -0.00776    0.00361    0.27096
 17 Li    0.01563   -0.00397    0.24787
 18 Li    0.05353    0.00121   -0.10322
 19 Li   -0.00675   -0.00184    0.05423
 20 Li   -0.01592    0.00740   -0.15163
 21 Li   -0.02359   -0.03686    0.06252
 22 Li    0.00985    0.00558    0.03549
 23 Li    0.01171   -0.02220    0.05413
 24 Li   -0.02589    0.03854    0.06610
 25 Li    0.01693   -0.00326    0.03679
 26 Li    0.00830    0.01272    0.04134
 27 Li   -0.01433   -0.10639   -0.05221
 28 Li    0.05932   -0.03797   -0.04800
 29 Li   -0.02719   -0.02956    0.02917
 30 Li   -0.02542    0.08286   -0.03248
 31 Li    0.05342    0.03283   -0.04466
 32 Li   -0.03060    0.04340    0.02103
 33 Li   -0.00378    0.00472   -0.01792
 34 Li   -0.02815    0.00174   -0.00159
 35 Li    0.03353   -0.00224   -0.01452
 36 O     4.65052   -1.36961   12.64441
 37 C    -0.00441   -0.18811   -0.09218
 38 C     0.38343    1.52920    1.91905
 39 C    -0.03085    0.15001   -0.02581
 40 H     0.01509   -0.04675    0.03713
 41 H    -0.04954   -0.00900    0.02201
 42 H    -0.02429   -0.02622   -0.05821
 43 H    -0.04295   -0.00707   -0.03904
 44 H    -0.00704   -0.00377   -0.00760
 45 H     0.00470   -0.05139   -0.03839
 46 H     0.00090   -0.02803   -0.02180
 47 H     0.75805   -0.79641    1.07780
 48 N     4.71471    1.11952   -8.23554
 49 N   -10.35094   -0.27960   -7.10167

System changes: positions 

Initializing position-dependent things.

Density initialized from wave functions
       .-----------------------.  
      /|                       |  
     / |                       |  
    /  |                       |  
   /   |                       |  
  /    |                       |  
 *     |                       |  
 |     |                       |  
 |     |                       |  
 |   H |                H H    |  
 |     |                  C    |  
 |     |                       |  
 |C HH |               H H     |  
 |C    |       Li      Li      Li 
 |     |                       |  
 |O H  |     Li      Li      Li|  
 |N    |               N       |  
 |     |  LLi     LLi     LLi  |  
 |     |                       |  
 |     |Li      Li      Li     |  
 |   Li|     Li      Li        |  
 |    Li  Li  Li  Li  Li  Li   |  
 | Li  |   Li      Li          |  
 |     |Li      Li      Li     |  
 Li    | Li      Li            |  
 |    Li      Li      Li       |  
 |     |                       |  
 |     |                       |  
 |     |                       |  
 |     |                       |  
 |     |                       |  
 |     |                       |  
 |     .-----------------------.  
 |    /                       /   
 |   /                       /    
 |  /                       /     
 | /                       /      
 |/                       /       
 *-----------------------*        

Positions:
   0 Li     1.617037    1.617037   10.000000    ( 0.0000,  0.0000,  0.0000)
   1 Li     4.851111    1.617037   10.000000    ( 0.0000,  0.0000,  0.0000)
   2 Li     8.085185    1.617037   10.000000    ( 0.0000,  0.0000,  0.0000)
   3 Li     1.617037    4.851111   10.000000    ( 0.0000,  0.0000,  0.0000)
   4 Li     4.851111    4.851111   10.000000    ( 0.0000,  0.0000,  0.0000)
   5 Li     8.085185    4.851111   10.000000    ( 0.0000,  0.0000,  0.0000)
   6 Li     1.617037    8.085185   10.000000    ( 0.0000,  0.0000,  0.0000)
   7 Li     4.851111    8.085185   10.000000    ( 0.0000,  0.0000,  0.0000)
   8 Li     8.085185    8.085185   10.000000    ( 0.0000,  0.0000,  0.0000)
   9 Li     0.000000    0.000000   11.617037    ( 0.0000,  0.0000,  0.0000)
  10 Li     3.234074    0.000000   11.617037    ( 0.0000,  0.0000,  0.0000)
  11 Li     6.468148    0.000000   11.617037    ( 0.0000,  0.0000,  0.0000)
  12 Li     0.000000    3.234074   11.617037    ( 0.0000,  0.0000,  0.0000)
  13 Li     3.234074    3.234074   11.617037    ( 0.0000,  0.0000,  0.0000)
  14 Li     6.468148    3.234074   11.617037    ( 0.0000,  0.0000,  0.0000)
  15 Li     0.000000    6.468148   11.617037    ( 0.0000,  0.0000,  0.0000)
  16 Li     3.234074    6.468148   11.617037    ( 0.0000,  0.0000,  0.0000)
  17 Li     6.468148    6.468148   11.617037    ( 0.0000,  0.0000,  0.0000)
  18 Li     1.617196    1.617042   13.469423    ( 0.0000,  0.0000,  0.0000)
  19 Li     4.851091    1.617033   13.469890    ( 0.0000,  0.0000,  0.0000)
  20 Li     8.085137    1.617060   13.469280    ( 0.0000,  0.0000,  0.0000)
  21 Li     1.616969    4.851002   13.469914    ( 0.0000,  0.0000,  0.0000)
  22 Li     4.851140    4.851127   13.469835    ( 0.0000,  0.0000,  0.0000)
  23 Li     8.085218    4.851045   13.469889    ( 0.0000,  0.0000,  0.0000)
  24 Li     1.616962    8.085298   13.469923    ( 0.0000,  0.0000,  0.0000)
  25 Li     4.851161    8.085174   13.469838    ( 0.0000,  0.0000,  0.0000)
  26 Li     8.085208    8.085221   13.469850    ( 0.0000,  0.0000,  0.0000)
  27 Li    -0.000042   -0.000314   15.445785    ( 0.0000,  0.0000,  0.0000)
  28 Li     3.234249   -0.000112   15.445797    ( 0.0000,  0.0000,  0.0000)
  29 Li     6.468068   -0.000087   15.446025    ( 0.0000,  0.0000,  0.0000)
  30 Li    -0.000075    3.234318   15.445843    ( 0.0000,  0.0000,  0.0000)
  31 Li     3.234234    3.234173   15.445806    ( 0.0000,  0.0000,  0.0000)
  32 Li     6.468055    3.234205   15.446000    ( 0.0000,  0.0000,  0.0000)
  33 Li    -0.000011    6.468162   15.445886    ( 0.0000,  0.0000,  0.0000)
  34 Li     3.233993    6.468151   15.445933    ( 0.0000,  0.0000,  0.0000)
  35 Li     6.468245    6.468139   15.445895    ( 0.0000,  0.0000,  0.0000)
  36 O      0.013737    1.612991   18.483288    ( 0.0000,  0.0000,  0.0000)
  37 C      0.000117    1.228861   20.879916    ( 0.0000,  0.0000,  0.0000)
  38 C      0.011815    2.244343   19.743668    ( 0.0000,  0.0000,  0.0000)
  39 C     -0.006323    1.892272   22.260447    ( 0.0000,  0.0000,  0.0000)
  40 H     -0.877127    0.586428   20.761685    ( 0.0000,  0.0000,  0.0000)
  41 H      0.885663    0.587632   20.786339    ( 0.0000,  0.0000,  0.0000)
  42 H     -0.889280    2.859692   19.761635    ( 0.0000,  0.0000,  0.0000)
  43 H      0.878330    2.906708   19.831466    ( 0.0000,  0.0000,  0.0000)
  44 H     -0.891930    2.517898   22.394038    ( 0.0000,  0.0000,  0.0000)
  45 H     -0.007023    1.146902   23.057691    ( 0.0000,  0.0000,  0.0000)
  46 H      0.872032    2.527262   22.402008    ( 0.0000,  0.0000,  0.0000)
  47 H      0.773551    1.037127   18.400361    ( 0.0000,  0.0000,  0.0000)
  48 N      0.013926    1.620307   16.921613    ( 0.0000,  0.0000,  0.0000)
  49 N     -1.127196    1.616174   16.924963    ( 0.0000,  0.0000,  0.0000)

Unit cell:
           periodic     x           y           z      points  spacing
  1. axis:    yes    9.702222    0.000000    0.000000    60     0.1617
  2. axis:    yes    0.000000    9.702222    0.000000    60     0.1617
  3. axis:    no     0.000000    0.000000   26.351111   164     0.1607

  Lengths:   9.702222   9.702222  26.351111
  Angles:   90.000000  90.000000  90.000000

Effective grid spacing dv^(1/3) = 0.1614

     iter     time        total  log10-change:
                         energy  eigst   dens
iter:   1 18:47:17  -329.961993  -0.24
iter:   2 18:47:24  -329.448587  -0.79  -1.39
iter:   3 18:47:32  -329.345953  -0.91  -1.40
iter:   4 18:47:39  -329.189766  -0.97  -1.53
Writing to output.gpw (mode='')

iter:   5 18:47:46  -329.228905  -1.37  -1.93
iter:   6 18:47:54  -329.152317  -1.28  -1.75
iter:   7 18:48:01  -329.147556  -1.56  -2.12
iter:   8 18:48:08  -329.149148c -1.75  -2.30
iter:   9 18:48:16  -329.146185c -2.11  -2.38
Writing to output.gpw (mode='')

iter:  10 18:48:23  -329.144863c -2.77  -2.57
iter:  11 18:48:30  -329.145196c -2.74  -2.55
iter:  12 18:48:38  -329.145555c -2.72  -2.81
iter:  13 18:48:45  -329.145233c -3.02  -2.78
iter:  14 18:48:52  -329.144718c -3.15  -2.90
Writing to output.gpw (mode='')

iter:  15 18:49:00  -329.144923c -3.61  -3.06
iter:  16 18:49:07  -329.145000c -3.71  -3.23
iter:  17 18:49:14  -329.144861c -3.71  -3.31
iter:  18 18:49:22  -329.144909c -4.12  -3.37
iter:  19 18:49:29  -329.144994c -4.21  -3.47
Writing to output.gpw (mode='')

iter:  20 18:49:36  -329.144911c -4.26  -3.60
iter:  21 18:49:44  -329.144942c -4.29  -3.46
iter:  22 18:49:51  -329.144990c -4.47  -3.63
iter:  23 18:49:59  -329.144991c -4.62  -3.97
iter:  24 18:50:06  -329.144979c -4.57  -4.04c
Writing to output.gpw (mode='')

iter:  25 18:50:13  -329.144969c -4.89  -4.14c
iter:  26 18:50:21  -329.144977c -5.26  -4.21c
iter:  27 18:50:28  -329.144977c -5.22  -4.30c
iter:  28 18:50:35  -329.144981c -5.10  -4.38c
iter:  29 18:50:43  -329.144985c -5.44  -4.40c
Writing to output.gpw (mode='')

iter:  30 18:50:50  -329.144980c -5.50  -4.48c
iter:  31 18:50:57  -329.144983c -5.69  -4.57c
iter:  32 18:51:05  -329.144986c -5.59  -4.60c
iter:  33 18:51:12  -329.144983c -5.74  -4.63c
iter:  34 18:51:27  -329.144982c -5.96  -4.71c
Writing to output.gpw (mode='')

iter:  35 18:51:36  -329.144980c -6.06  -4.72c
iter:  36 18:51:43  -329.144979c -6.05  -4.85c
iter:  37 18:51:51  -329.144983c -6.14  -4.93c
iter:  38 18:51:58  -329.144982c -6.33  -4.90c
iter:  39 18:52:08  -329.144982c -6.27  -5.00c
Writing to output.gpw (mode='')

iter:  40 18:52:15  -329.144982c -6.49  -5.17c
iter:  41 18:52:23  -329.144982c -6.46  -5.36c
iter:  42 18:52:30  -329.144981c -6.42  -5.44c
iter:  43 18:52:37  -329.144981c -6.36  -5.57c
iter:  44 18:52:45  -329.144981c -6.60  -5.65c
Writing to output.gpw (mode='')

iter:  45 18:52:52  -329.144981c -6.76  -5.66c
iter:  46 18:53:00  -329.144981c -6.90  -5.62c
iter:  47 18:53:07  -329.144981c -6.87  -5.50c
iter:  48 18:53:14  -329.144982c -6.94  -5.51c
iter:  49 18:53:22  -329.144982c -7.10  -5.42c
Writing to output.gpw (mode='')

iter:  50 18:53:29  -329.144981c -7.12  -5.48c
iter:  51 18:53:36  -329.144981c -7.11  -5.63c
iter:  52 18:53:44  -329.144981c -7.14  -5.70c
iter:  53 18:53:51  -329.144981c -7.29  -5.76c
iter:  54 18:53:58  -329.144981c -7.23  -5.89c
Writing to output.gpw (mode='')

iter:  55 18:54:06  -329.144981c -7.35  -5.86c
iter:  56 18:54:13  -329.144981c -7.49c -5.82c

Converged after 56 iterations.

Dipole moment: (-24.127254, -5.738381, 0.522207) |e|*Ang

Energy contributions relative to reference atoms: (reference = -15487.462483)

Kinetic:       +191.323122
Potential:     -178.692131
External:        +0.000000
XC:            -342.467526
Entropy (-ST):   -0.162580
Local:           +0.772844
--------------------------
Free energy:   -329.226271
Extrapolated:  -329.144981

Dipole-layer corrected work functions: 3.375060, 2.371199 eV

Showing only first 2 kpts
 Kpt  Band  Eigenvalues  Occupancy
  0    34     -3.12237    1.98641
  0    35     -2.96275    1.71446
  0    36     -2.78660    0.30102
  0    37     -2.63750    0.01780

  1    34     -2.93471    1.54818
  1    35     -2.88569    1.12493
  1    36     -2.81514    0.47745
  1    37     -2.76622    0.21087


Fermi level: -2.87313

Gap: 0.027 eV
Transition (v -> c):
  (s=0, k=1, n=35, [0.12, -0.12, 0.00]) -> (s=0, k=4, n=36, [0.38, -0.38, 0.00])
Writing to output.gpw (mode='')


Forces in eV/Ang:
  0 Li    0.02407   -0.00116   -0.28133
  1 Li   -0.01368    0.00184   -0.27180
  2 Li   -0.01176    0.00134   -0.28054
  3 Li   -0.00559    0.01489   -0.27647
  4 Li   -0.00060   -0.00469   -0.27196
  5 Li    0.00672    0.02409   -0.27216
  6 Li   -0.00679   -0.01504   -0.27868
  7 Li   -0.00154    0.00345   -0.27321
  8 Li    0.00983   -0.02523   -0.27428
  9 Li   -0.00420    0.01036    0.32821
 10 Li    0.01054    0.00143    0.24981
 11 Li   -0.00436    0.00744    0.29462
 12 Li   -0.00151   -0.00998    0.32481
 13 Li    0.01315   -0.00537    0.25128
 14 Li   -0.00757   -0.00450    0.28844
 15 Li   -0.00824    0.00023    0.23341
 16 Li   -0.00822    0.00378    0.26800
 17 Li    0.01531   -0.00404    0.24785
 18 Li    0.05528    0.00111   -0.11022
 19 Li   -0.00957   -0.00162    0.05237
 20 Li   -0.01308    0.00709   -0.14342
 21 Li   -0.02369   -0.03474    0.05858
 22 Li    0.00969    0.00454    0.03668
 23 Li    0.01103   -0.01843    0.04691
 24 Li   -0.02599    0.03684    0.06396
 25 Li    0.01721   -0.00208    0.03760
 26 Li    0.00805    0.00937    0.03581
 27 Li   -0.04167   -0.06092    0.03588
 28 Li    0.05777   -0.04243   -0.05066
 29 Li   -0.00395   -0.01447    0.05646
 30 Li   -0.05807    0.03217    0.06101
 31 Li    0.04973    0.03652   -0.04426
 32 Li   -0.00685    0.02757    0.04771
 33 Li   -0.00041    0.00543   -0.02609
 34 Li   -0.02576    0.00190   -0.00416
 35 Li    0.02839   -0.00146   -0.01769
 36 O     3.23132   -1.18163    9.81279
 37 C    -0.00705   -0.03599    0.14140
 38 C     0.43647    1.19289    1.83586
 39 C    -0.02450    0.06415    0.00429
 40 H     0.00775   -0.03590    0.01268
 41 H    -0.03660   -0.00476    0.00556
 42 H    -0.07293    0.02609   -0.02677
 43 H     0.05430    0.12812    0.08621
 44 H    -0.01486    0.00224   -0.00780
 45 H     0.00354   -0.03100   -0.02986
 46 H     0.00590   -0.02236   -0.02127
 47 H     0.93081   -0.86954    1.02455
 48 N    -0.08544    1.01505   -7.13660
 49 N    -4.47075   -0.23944   -5.87119

System changes: positions 

Initializing position-dependent things.

Density initialized from wave functions
       .-----------------------.  
      /|                       |  
     / |                       |  
    /  |                       |  
   /   |                       |  
  /    |                       |  
 *     |                       |  
 |     |                       |  
 |     |                       |  
 |   H |                H H    |  
 |     |                  C    |  
 |     |                       |  
 |C HH |               H H     |  
 |C    |       Li      Li      Li 
 |     |                       |  
 |O H  |     Li      Li      Li|  
 |N    |               N       |  
 |     |  LLi     LLi     LLi  |  
 |     |                       |  
 |     |Li      Li      Li     |  
 |   Li|     Li      Li        |  
 |    Li  Li  Li  Li  Li  Li   |  
 | Li  |   Li      Li          |  
 |     |Li      Li      Li     |  
 Li    | Li      Li            |  
 |    Li      Li      Li       |  
 |     |                       |  
 |     |                       |  
 |     |                       |  
 |     |                       |  
 |     |                       |  
 |     |                       |  
 |     .-----------------------.  
 |    /                       /   
 |   /                       /    
 |  /                       /     
 | /                       /      
 |/                       /       
 *-----------------------*        

Positions:
   0 Li     1.617037    1.617037   10.000000    ( 0.0000,  0.0000,  0.0000)
   1 Li     4.851111    1.617037   10.000000    ( 0.0000,  0.0000,  0.0000)
   2 Li     8.085185    1.617037   10.000000    ( 0.0000,  0.0000,  0.0000)
   3 Li     1.617037    4.851111   10.000000    ( 0.0000,  0.0000,  0.0000)
   4 Li     4.851111    4.851111   10.000000    ( 0.0000,  0.0000,  0.0000)
   5 Li     8.085185    4.851111   10.000000    ( 0.0000,  0.0000,  0.0000)
   6 Li     1.617037    8.085185   10.000000    ( 0.0000,  0.0000,  0.0000)
   7 Li     4.851111    8.085185   10.000000    ( 0.0000,  0.0000,  0.0000)
   8 Li     8.085185    8.085185   10.000000    ( 0.0000,  0.0000,  0.0000)
   9 Li     0.000000    0.000000   11.617037    ( 0.0000,  0.0000,  0.0000)
  10 Li     3.234074    0.000000   11.617037    ( 0.0000,  0.0000,  0.0000)
  11 Li     6.468148    0.000000   11.617037    ( 0.0000,  0.0000,  0.0000)
  12 Li     0.000000    3.234074   11.617037    ( 0.0000,  0.0000,  0.0000)
  13 Li     3.234074    3.234074   11.617037    ( 0.0000,  0.0000,  0.0000)
  14 Li     6.468148    3.234074   11.617037    ( 0.0000,  0.0000,  0.0000)
  15 Li     0.000000    6.468148   11.617037    ( 0.0000,  0.0000,  0.0000)
  16 Li     3.234074    6.468148   11.617037    ( 0.0000,  0.0000,  0.0000)
  17 Li     6.468148    6.468148   11.617037    ( 0.0000,  0.0000,  0.0000)
  18 Li     1.617460    1.617047   13.468888    ( 0.0000,  0.0000,  0.0000)
  19 Li     4.851038    1.617026   13.470130    ( 0.0000,  0.0000,  0.0000)
  20 Li     8.085084    1.617092   13.468631    ( 0.0000,  0.0000,  0.0000)
  21 Li     1.616858    4.850845   13.470177    ( 0.0000,  0.0000,  0.0000)
  22 Li     4.851185    4.851146   13.470010    ( 0.0000,  0.0000,  0.0000)
  23 Li     8.085268    4.850970   13.470089    ( 0.0000,  0.0000,  0.0000)
  24 Li     1.616840    8.085465   13.470217    ( 0.0000,  0.0000,  0.0000)
  25 Li     4.851242    8.085167   13.470016    ( 0.0000,  0.0000,  0.0000)
  26 Li     8.085245    8.085256   13.470002    ( 0.0000,  0.0000,  0.0000)
  27 Li    -0.000313   -0.000473   15.446198    ( 0.0000,  0.0000,  0.0000)
  28 Li     3.234515   -0.000323   15.445553    ( 0.0000,  0.0000,  0.0000)
  29 Li     6.468114   -0.000113   15.446365    ( 0.0000,  0.0000,  0.0000)
  30 Li    -0.000437    3.234328   15.446388    ( 0.0000,  0.0000,  0.0000)
  31 Li     3.234457    3.234355   15.445600    ( 0.0000,  0.0000,  0.0000)
  32 Li     6.468089    3.234290   15.446298    ( 0.0000,  0.0000,  0.0000)
  33 Li    -0.000004    6.468190   15.445741    ( 0.0000,  0.0000,  0.0000)
  34 Li     3.233879    6.468160   15.445907    ( 0.0000,  0.0000,  0.0000)
  35 Li     6.468363    6.468134   15.445804    ( 0.0000,  0.0000,  0.0000)
  36 O      0.024924    1.607982   18.521364    ( 0.0000,  0.0000,  0.0000)
  37 C      0.000076    1.229114   20.881226    ( 0.0000,  0.0000,  0.0000)
  38 C      0.014005    2.248993   19.752030    ( 0.0000,  0.0000,  0.0000)
  39 C     -0.006420    1.892334   22.260551    ( 0.0000,  0.0000,  0.0000)
  40 H     -0.877111    0.586290   20.761677    ( 0.0000,  0.0000,  0.0000)
  41 H      0.885527    0.587621   20.786319    ( 0.0000,  0.0000,  0.0000)
  42 H     -0.889757    2.859959   19.761597    ( 0.0000,  0.0000,  0.0000)
  43 H      0.878854    2.907683   19.832217    ( 0.0000,  0.0000,  0.0000)
  44 H     -0.892022    2.517925   22.394001    ( 0.0000,  0.0000,  0.0000)
  45 H     -0.007010    1.146814   23.057575    ( 0.0000,  0.0000,  0.0000)
  46 H      0.872074    2.527174   22.401910    ( 0.0000,  0.0000,  0.0000)
  47 H      0.778387    1.032854   18.405009    ( 0.0000,  0.0000,  0.0000)
  48 N      0.000209    1.624768   16.891257    ( 0.0000,  0.0000,  0.0000)
  49 N     -1.131809    1.615165   16.900895    ( 0.0000,  0.0000,  0.0000)

Unit cell:
           periodic     x           y           z      points  spacing
  1. axis:    yes    9.702222    0.000000    0.000000    60     0.1617
  2. axis:    yes    0.000000    9.702222    0.000000    60     0.1617
  3. axis:    no     0.000000    0.000000   26.351111   164     0.1607

  Lengths:   9.702222   9.702222  26.351111
  Angles:   90.000000  90.000000  90.000000

Effective grid spacing dv^(1/3) = 0.1614

     iter     time        total  log10-change:
                         energy  eigst   dens
iter:   1 18:54:22  -330.167322  -0.80
iter:   2 18:54:29  -330.006646  -0.78  -1.48
iter:   3 18:54:37  -329.940725  -1.56  -1.59
iter:   4 18:54:44  -329.944482  -0.87  -1.99
Writing to output.gpw (mode='')

iter:   5 18:54:51  -329.925811c -1.56  -1.87
iter:   6 18:54:59  -330.006581  -1.08  -2.20
iter:   7 18:55:06  -329.946468  -2.01  -1.83
iter:   8 18:55:13  -329.902643  -1.53  -2.01
iter:   9 18:55:21  -329.903211  -2.12  -2.58
Writing to output.gpw (mode='')

iter:  10 18:55:28  -329.909457c -2.58  -2.69
iter:  11 18:55:35  -329.903074c -2.00  -2.46
iter:  12 18:55:43  -329.903593c -2.95  -2.74
iter:  13 18:55:50  -329.903598c -2.95  -2.99
iter:  14 18:55:57  -329.903533c -3.04  -3.10
Writing to output.gpw (mode='')

iter:  15 18:56:05  -329.903682c -3.37  -3.18
iter:  16 18:56:12  -329.903617c -3.22  -3.30
iter:  17 18:56:27  -329.903875c -3.60  -3.25
iter:  18 18:56:36  -329.903873c -3.99  -3.46
iter:  19 18:56:43  -329.903850c -4.06  -3.57
Writing to output.gpw (mode='')

iter:  20 18:56:51  -329.903887c -4.13  -3.67
iter:  21 18:56:58  -329.903879c -4.24  -3.73
iter:  22 18:57:05  -329.903929c -4.32  -3.76
iter:  23 18:57:13  -329.903926c -4.68  -3.79
iter:  24 18:57:20  -329.903934c -4.60  -3.84
Writing to output.gpw (mode='')

iter:  25 18:57:27  -329.903940c -4.82  -3.97
iter:  26 18:57:35  -329.903949c -4.85  -4.16c
iter:  27 18:57:42  -329.903940c -5.12  -4.23c
iter:  28 18:57:49  -329.903940c -5.22  -4.26c
iter:  29 18:57:57  -329.903944c -5.24  -4.35c
Writing to output.gpw (mode='')

iter:  30 18:58:04  -329.903946c -5.43  -4.59c
iter:  31 18:58:11  -329.903953c -5.30  -4.61c
iter:  32 18:58:18  -329.903954c -5.64  -4.63c
iter:  33 18:58:26  -329.903956c -5.59  -4.66c
iter:  34 18:58:33  -329.903955c -5.63  -4.70c
Writing to output.gpw (mode='')

iter:  35 18:58:40  -329.903959c -6.01  -4.73c
iter:  36 18:58:48  -329.903960c -5.96  -4.87c
iter:  37 18:58:55  -329.903960c -6.13  -4.91c
iter:  38 18:59:02  -329.903960c -6.34  -5.08c
iter:  39 18:59:10  -329.903962c -6.36  -5.27c
Writing to output.gpw (mode='')

iter:  40 18:59:17  -329.903961c -6.52  -5.29c
iter:  41 18:59:24  -329.903961c -6.53  -5.21c
iter:  42 18:59:31  -329.903961c -6.76  -5.21c
iter:  43 18:59:39  -329.903961c -6.58  -5.20c
iter:  44 18:59:46  -329.903960c -6.72  -5.15c
Writing to output.gpw (mode='')

iter:  45 18:59:53  -329.903960c -6.85  -5.02c
iter:  46 19:00:00  -329.903960c -7.05  -5.02c
iter:  47 19:00:08  -329.903962c -7.00  -4.97c
iter:  48 19:00:15  -329.903962c -7.29  -5.09c
iter:  49 19:00:22  -329.903964c -7.12  -5.03c
Writing to output.gpw (mode='')

iter:  50 19:00:30  -329.903964c -7.36  -5.17c
iter:  51 19:00:37  -329.903964c -7.51c -5.15c

Converged after 51 iterations.

Dipole moment: (-23.736686, -5.706077, 0.473750) |e|*Ang

Energy contributions relative to reference atoms: (reference = -15487.462483)

Kinetic:       +191.141391
Potential:     -179.007346
External:        +0.000000
XC:            -342.734732
Entropy (-ST):   -0.162455
Local:           +0.777951
--------------------------
Free energy:   -329.985191
Extrapolated:  -329.903964

Dipole-layer corrected work functions: 3.376880, 2.466170 eV

Showing only first 2 kpts
 Kpt  Band  Eigenvalues  Occupancy
  0    34     -3.17123    1.98654
  0    35     -3.01096    1.71355
  0    36     -2.83288    0.29034
  0    37     -2.68559    0.01769

  1    34     -2.98268    1.54522
  1    35     -2.93289    1.11317
  1    36     -2.86437    0.48352
  1    37     -2.81674    0.21904


Fermi level: -2.92153

Gap: 0.027 eV
Transition (v -> c):
  (s=0, k=1, n=35, [0.12, -0.12, 0.00]) -> (s=0, k=4, n=36, [0.38, -0.38, 0.00])
Writing to output.gpw (mode='')


Forces in eV/Ang:
  0 Li    0.02396   -0.00130   -0.28149
  1 Li   -0.01393    0.00157   -0.27065
  2 Li   -0.01201    0.00127   -0.28084
  3 Li   -0.00559    0.01500   -0.27650
  4 Li   -0.00021   -0.00440   -0.27222
  5 Li    0.00699    0.02453   -0.27257
  6 Li   -0.00656   -0.01500   -0.27851
  7 Li   -0.00126    0.00326   -0.27351
  8 Li    0.00987   -0.02544   -0.27402
  9 Li   -0.00377    0.01069    0.32880
 10 Li    0.01221    0.00125    0.24932
 11 Li   -0.00561    0.00699    0.29271
 12 Li   -0.00111   -0.01056    0.32595
 13 Li    0.01431   -0.00491    0.25102
 14 Li   -0.00821   -0.00411    0.28695
 15 Li   -0.00852    0.00027    0.23260
 16 Li   -0.00928    0.00371    0.26727
 17 Li    0.01549   -0.00396    0.24801
 18 Li    0.05529    0.00061   -0.10821
 19 Li   -0.00723   -0.00121    0.05438
 20 Li   -0.01788    0.00601   -0.15555
 21 Li   -0.02416   -0.03451    0.05860
 22 Li    0.00866    0.00558    0.03692
 23 Li    0.01148   -0.02072    0.04872
 24 Li   -0.02635    0.03672    0.06447
 25 Li    0.01612   -0.00351    0.03644
 26 Li    0.00859    0.01308    0.03990
 27 Li   -0.02531   -0.09771    0.00236
 28 Li    0.05673   -0.04301   -0.05165
 29 Li   -0.01677   -0.02275    0.04591
 30 Li   -0.04176    0.07746    0.02312
 31 Li    0.05008    0.03653   -0.04450
 32 Li   -0.02075    0.03463    0.03676
 33 Li   -0.00046    0.00588   -0.02634
 34 Li   -0.02532    0.00216   -0.00450
 35 Li    0.02865   -0.00094   -0.01731
 36 O     2.34851   -1.03911    7.65265
 37 C    -0.00310    0.08569    0.38744
 38 C     0.44932    0.80236    1.82406
 39 C    -0.02114   -0.00084    0.06721
 40 H     0.01109   -0.01084   -0.00505
 41 H    -0.03531    0.01182   -0.00368
 42 H    -0.08827    0.06408    0.01369
 43 H     0.15175    0.25943    0.20748
 44 H    -0.01715    0.00395   -0.00590
 45 H     0.00211   -0.01692   -0.00604
 46 H     0.00621   -0.02097   -0.01940
 47 H     0.94243   -0.74923    0.96368
 48 N     0.47576    0.82123   -6.30361
 49 N    -4.20373   -0.20230   -4.71420

System changes: positions 

Initializing position-dependent things.

Density initialized from wave functions
       .-----------------------.  
      /|                       |  
     / |                       |  
    /  |                       |  
   /   |                       |  
  /    |                       |  
 *     |                       |  
 |     |                       |  
 |     |                       |  
 |   H |                H H    |  
 |     |                  C    |  
 |     |                       |  
 |C HH |               H H     |  
 |C    |       Li      Li      Li 
 |O    |                       |  
 |  HLi|     Li      Li        |  
 |     |                       |  
 |     |  LLi     LLi  N  NLi  |  
 |     |                       |  
 |     |Li      Li      Li     |  
 |   Li|     Li      Li        |  
 |    Li  Li  Li  Li  Li  Li   |  
 | Li  |   Li      Li          |  
 |     |Li      Li      Li     |  
 Li    | Li      Li            |  
 |    Li      Li      Li       |  
 |     |                       |  
 |     |                       |  
 |     |                       |  
 |     |                       |  
 |     |                       |  
 |     |                       |  
 |     .-----------------------.  
 |    /                       /   
 |   /                       /    
 |  /                       /     
 | /                       /      
 |/                       /       
 *-----------------------*        

Positions:
   0 Li     1.617037    1.617037   10.000000    ( 0.0000,  0.0000,  0.0000)
   1 Li     4.851111    1.617037   10.000000    ( 0.0000,  0.0000,  0.0000)
   2 Li     8.085185    1.617037   10.000000    ( 0.0000,  0.0000,  0.0000)
   3 Li     1.617037    4.851111   10.000000    ( 0.0000,  0.0000,  0.0000)
   4 Li     4.851111    4.851111   10.000000    ( 0.0000,  0.0000,  0.0000)
   5 Li     8.085185    4.851111   10.000000    ( 0.0000,  0.0000,  0.0000)
   6 Li     1.617037    8.085185   10.000000    ( 0.0000,  0.0000,  0.0000)
   7 Li     4.851111    8.085185   10.000000    ( 0.0000,  0.0000,  0.0000)
   8 Li     8.085185    8.085185   10.000000    ( 0.0000,  0.0000,  0.0000)
   9 Li     0.000000    0.000000   11.617037    ( 0.0000,  0.0000,  0.0000)
  10 Li     3.234074    0.000000   11.617037    ( 0.0000,  0.0000,  0.0000)
  11 Li     6.468148    0.000000   11.617037    ( 0.0000,  0.0000,  0.0000)
  12 Li     0.000000    3.234074   11.617037    ( 0.0000,  0.0000,  0.0000)
  13 Li     3.234074    3.234074   11.617037    ( 0.0000,  0.0000,  0.0000)
  14 Li     6.468148    3.234074   11.617037    ( 0.0000,  0.0000,  0.0000)
  15 Li     0.000000    6.468148   11.617037    ( 0.0000,  0.0000,  0.0000)
  16 Li     3.234074    6.468148   11.617037    ( 0.0000,  0.0000,  0.0000)
  17 Li     6.468148    6.468148   11.617037    ( 0.0000,  0.0000,  0.0000)
  18 Li     1.617899    1.617047   13.468031    ( 0.0000,  0.0000,  0.0000)
  19 Li     4.850990    1.617021   13.470565    ( 0.0000,  0.0000,  0.0000)
  20 Li     8.084915    1.617130   13.467346    ( 0.0000,  0.0000,  0.0000)
  21 Li     1.616664    4.850585   13.470622    ( 0.0000,  0.0000,  0.0000)
  22 Li     4.851244    4.851194   13.470305    ( 0.0000,  0.0000,  0.0000)
  23 Li     8.085359    4.850803   13.470458    ( 0.0000,  0.0000,  0.0000)
  24 Li     1.616630    8.085746   13.470718    ( 0.0000,  0.0000,  0.0000)
  25 Li     4.851361    8.085133   13.470295    ( 0.0000,  0.0000,  0.0000)
  26 Li     8.085316    8.085376   13.470327    ( 0.0000,  0.0000,  0.0000)
  27 Li    -0.000480   -0.001367   15.446269    ( 0.0000,  0.0000,  0.0000)
  28 Li     3.234945   -0.000681   15.445130    ( 0.0000,  0.0000,  0.0000)
  29 Li     6.467965   -0.000303   15.446739    ( 0.0000,  0.0000,  0.0000)
  30 Li    -0.000753    3.235113   15.446606    ( 0.0000,  0.0000,  0.0000)
  31 Li     3.234838    3.234654   15.445251    ( 0.0000,  0.0000,  0.0000)
  32 Li     6.467902    3.234560   15.446595    ( 0.0000,  0.0000,  0.0000)
  33 Li     0.000005    6.468242   15.445503    ( 0.0000,  0.0000,  0.0000)
  34 Li     3.233693    6.468180   15.445859    ( 0.0000,  0.0000,  0.0000)
  35 Li     6.468571    6.468134   15.445659    ( 0.0000,  0.0000,  0.0000)
  36 O      0.031030    1.601679   18.553569    ( 0.0000,  0.0000,  0.0000)
  37 C      0.000074    1.231318   20.887089    ( 0.0000,  0.0000,  0.0000)
  38 C      0.017820    2.250908   19.765911    ( 0.0000,  0.0000,  0.0000)
  39 C     -0.006535    1.891492   22.261692    ( 0.0000,  0.0000,  0.0000)
  40 H     -0.877024    0.586447   20.761405    ( 0.0000,  0.0000,  0.0000)
  41 H      0.885308    0.587862   20.786156    ( 0.0000,  0.0000,  0.0000)
  42 H     -0.890749    2.860957   19.762144    ( 0.0000,  0.0000,  0.0000)
  43 H      0.881180    2.911262   19.835274    ( 0.0000,  0.0000,  0.0000)
  44 H     -0.892203    2.517992   22.393969    ( 0.0000,  0.0000,  0.0000)
  45 H     -0.007009    1.146869   23.057750    ( 0.0000,  0.0000,  0.0000)
  46 H      0.872143    2.527041   22.401775    ( 0.0000,  0.0000,  0.0000)
  47 H      0.786490    1.027687   18.411870    ( 0.0000,  0.0000,  0.0000)
  48 N     -0.009111    1.629259   16.852618    ( 0.0000,  0.0000,  0.0000)
  49 N     -1.141072    1.614026   16.877781    ( 0.0000,  0.0000,  0.0000)

Unit cell:
           periodic     x           y           z      points  spacing
  1. axis:    yes    9.702222    0.000000    0.000000    60     0.1617
  2. axis:    yes    0.000000    9.702222    0.000000    60     0.1617
  3. axis:    no     0.000000    0.000000   26.351111   164     0.1607

  Lengths:   9.702222   9.702222  26.351111
  Angles:   90.000000  90.000000  90.000000

Effective grid spacing dv^(1/3) = 0.1614

     iter     time        total  log10-change:
                         energy  eigst   dens
iter:   1 19:00:46  -330.631474  -0.89
iter:   2 19:00:53  -330.587976  -1.12  -1.68
iter:   3 19:01:01  -330.560378  -1.87  -1.78
iter:   4 19:01:08  -330.553868c -1.90  -2.22
Writing to output.gpw (mode='')

iter:   5 19:01:15  -330.553195c -2.14  -2.35
iter:   6 19:01:29  -330.555729c -2.13  -2.32
iter:   7 19:01:37  -330.547487c -2.23  -2.30
iter:   8 19:01:44  -330.547786c -2.47  -2.77
iter:   9 19:01:51  -330.547535c -2.73  -2.82
Writing to output.gpw (mode='')

iter:  10 19:01:59  -330.547715c -3.05  -3.04
iter:  11 19:02:06  -330.547650c -3.48  -3.09
iter:  12 19:02:14  -330.548195c -3.07  -3.09
iter:  13 19:02:21  -330.547715c -3.30  -2.86
iter:  14 19:02:28  -330.547592c -3.30  -3.21
Writing to output.gpw (mode='')

iter:  15 19:02:36  -330.547570c -4.05  -3.31
iter:  16 19:02:43  -330.547619c -4.05  -3.43
iter:  17 19:02:50  -330.547623c -4.12  -3.65
iter:  18 19:02:58  -330.547643c -4.21  -3.76
iter:  19 19:03:05  -330.547645c -4.30  -3.78
Writing to output.gpw (mode='')

iter:  20 19:03:13  -330.547671c -4.69  -3.81
iter:  21 19:03:20  -330.547677c -4.62  -3.83
iter:  22 19:03:27  -330.547676c -4.82  -3.97
iter:  23 19:03:35  -330.547671c -4.83  -4.01c
iter:  24 19:03:42  -330.547676c -5.04  -4.17c
Writing to output.gpw (mode='')

iter:  25 19:03:50  -330.547671c -5.37  -4.16c
iter:  26 19:03:57  -330.547676c -5.40  -4.22c
iter:  27 19:04:04  -330.547686c -5.59  -4.10c
iter:  28 19:04:12  -330.547684c -5.58  -4.14c
iter:  29 19:04:19  -330.547686c -5.50  -4.16c
Writing to output.gpw (mode='')

iter:  30 19:04:26  -330.547687c -5.85  -4.15c
iter:  31 19:04:34  -330.547682c -5.95  -4.15c
iter:  32 19:04:41  -330.547697c -6.11  -4.25c
iter:  33 19:04:48  -330.547697c -6.28  -4.27c
iter:  34 19:04:56  -330.547686c -6.19  -4.40c
Writing to output.gpw (mode='')

iter:  35 19:05:03  -330.547684c -6.08  -4.45c
iter:  36 19:05:10  -330.547688c -6.28  -4.48c
iter:  37 19:05:18  -330.547692c -6.59  -4.57c
iter:  38 19:05:25  -330.547690c -6.86  -4.69c
iter:  39 19:05:33  -330.547696c -6.69  -4.74c
Writing to output.gpw (mode='')

iter:  40 19:05:40  -330.547694c -6.76  -4.78c
iter:  41 19:05:47  -330.547690c -7.00  -4.99c
iter:  42 19:05:55  -330.547690c -6.97  -5.24c
iter:  43 19:06:02  -330.547692c -6.93  -5.26c
iter:  44 19:06:09  -330.547693c -7.41c -5.44c

Converged after 44 iterations.

Dipole moment: (-23.441055, -5.624541, 0.421031) |e|*Ang

Energy contributions relative to reference atoms: (reference = -15487.462483)

Kinetic:       +189.439521
Potential:     -178.037480
External:        +0.000000
XC:            -342.651131
Entropy (-ST):   -0.163505
Local:           +0.783149
--------------------------
Free energy:   -330.629445
Extrapolated:  -330.547693

Dipole-layer corrected work functions: 3.379302, 2.569935 eV

Showing only first 2 kpts
 Kpt  Band  Eigenvalues  Occupancy
  0    34     -3.22435    1.98654
  0    35     -3.06099    1.69818
  0    36     -2.88840    0.30263
  0    37     -2.73782    0.01740

  1    34     -3.03768    1.55851
  1    35     -2.98347    1.08826
  1    36     -2.91723    0.48180
  1    37     -2.86960    0.21812


Fermi level: -2.97462

Gap: 0.026 eV
Transition (v -> c):
  (s=0, k=1, n=35, [0.12, -0.12, 0.00]) -> (s=0, k=4, n=36, [0.38, -0.38, 0.00])
Writing to output.gpw (mode='')


Forces in eV/Ang:
  0 Li    0.02321   -0.00147   -0.28201
  1 Li   -0.01389    0.00129   -0.26974
  2 Li   -0.01207    0.00120   -0.28119
  3 Li   -0.00539    0.01528   -0.27683
  4 Li    0.00014   -0.00392   -0.27257
  5 Li    0.00731    0.02472   -0.27328
  6 Li   -0.00620   -0.01519   -0.27860
  7 Li   -0.00097    0.00285   -0.27388
  8 Li    0.00994   -0.02537   -0.27417
  9 Li   -0.00335    0.01094    0.32933
 10 Li    0.01375    0.00083    0.24940
 11 Li   -0.00634    0.00690    0.29150
 12 Li   -0.00060   -0.01104    0.32707
 13 Li    0.01530   -0.00439    0.25146
 14 Li   -0.00855   -0.00394    0.28596
 15 Li   -0.00883    0.00033    0.23211
 16 Li   -0.01040    0.00388    0.26618
 17 Li    0.01543   -0.00412    0.24838
 18 Li    0.05544   -0.00007   -0.10764
 19 Li   -0.00577   -0.00083    0.05488
 20 Li   -0.02079    0.00498   -0.15909
 21 Li   -0.02443   -0.03326    0.05713
 22 Li    0.00770    0.00607    0.03713
 23 Li    0.01148   -0.02130    0.04791
 24 Li   -0.02641    0.03591    0.06347
 25 Li    0.01513   -0.00428    0.03543
 26 Li    0.00873    0.01476    0.04117
 27 Li   -0.01991   -0.12220   -0.01321
 28 Li    0.05506   -0.04435   -0.05209
 29 Li   -0.01996   -0.02404    0.04395
 30 Li   -0.03502    0.11087    0.00208
 31 Li    0.05004    0.03738   -0.04427
 32 Li   -0.02597    0.03533    0.03390
 33 Li    0.00010    0.00619   -0.02772
 34 Li   -0.02423    0.00225   -0.00525
 35 Li    0.02787   -0.00036   -0.01740
 36 O     1.77454   -1.07898    5.67266
 37 C     0.01195    0.02422    0.50061
 38 C     0.36945    0.67585    1.65278
 39 C    -0.02157    0.02246    0.17553
 40 H     0.04330    0.03960    0.00449
 41 H    -0.05823    0.04269    0.02105
 42 H    -0.00656    0.03738    0.07841
 43 H     0.18163    0.30297    0.30342
 44 H    -0.00868   -0.00283    0.00281
 45 H     0.00050   -0.02775    0.04858
 46 H    -0.00228   -0.02674   -0.00946
 47 H     0.71521   -0.49022    0.91982
 48 N     0.40238    0.69954   -5.44354
 49 N    -3.48750   -0.20534   -3.91659

System changes: positions 

Initializing position-dependent things.

Density initialized from wave functions
       .-----------------------.  
      /|                       |  
     / |                       |  
    /  |                       |  
   /   |                       |  
  /    |                       |  
 *     |                       |  
 |     |                       |  
 |     |                       |  
 |   H |                H H    |  
 |     |                  C    |  
 |     |                       |  
 |C HH |               H H     |  
 |C    |       Li      Li      Li 
 |O    |                       |  
 |  HLi|     Li      Li        |  
 |     |                       |  
 |     |  LLi     LLi  N  NLi  |  
 |     |                       |  
 |     |Li      Li      Li     |  
 |   Li|     Li      Li        |  
 |    Li  Li  Li  Li  Li  Li   |  
 | Li  |   Li      Li          |  
 |     |Li      Li      Li     |  
 Li    | Li      Li            |  
 |    Li      Li      Li       |  
 |     |                       |  
 |     |                       |  
 |     |                       |  
 |     |                       |  
 |     |                       |  
 |     |                       |  
 |     .-----------------------.  
 |    /                       /   
 |   /                       /    
 |  /                       /     
 | /                       /      
 |/                       /       
 *-----------------------*        

Positions:
   0 Li     1.617037    1.617037   10.000000    ( 0.0000,  0.0000,  0.0000)
   1 Li     4.851111    1.617037   10.000000    ( 0.0000,  0.0000,  0.0000)
   2 Li     8.085185    1.617037   10.000000    ( 0.0000,  0.0000,  0.0000)
   3 Li     1.617037    4.851111   10.000000    ( 0.0000,  0.0000,  0.0000)
   4 Li     4.851111    4.851111   10.000000    ( 0.0000,  0.0000,  0.0000)
   5 Li     8.085185    4.851111   10.000000    ( 0.0000,  0.0000,  0.0000)
   6 Li     1.617037    8.085185   10.000000    ( 0.0000,  0.0000,  0.0000)
   7 Li     4.851111    8.085185   10.000000    ( 0.0000,  0.0000,  0.0000)
   8 Li     8.085185    8.085185   10.000000    ( 0.0000,  0.0000,  0.0000)
   9 Li     0.000000    0.000000   11.617037    ( 0.0000,  0.0000,  0.0000)
  10 Li     3.234074    0.000000   11.617037    ( 0.0000,  0.0000,  0.0000)
  11 Li     6.468148    0.000000   11.617037    ( 0.0000,  0.0000,  0.0000)
  12 Li     0.000000    3.234074   11.617037    ( 0.0000,  0.0000,  0.0000)
  13 Li     3.234074    3.234074   11.617037    ( 0.0000,  0.0000,  0.0000)
  14 Li     6.468148    3.234074   11.617037    ( 0.0000,  0.0000,  0.0000)
  15 Li     0.000000    6.468148   11.617037    ( 0.0000,  0.0000,  0.0000)
  16 Li     3.234074    6.468148   11.617037    ( 0.0000,  0.0000,  0.0000)
  17 Li     6.468148    6.468148   11.617037    ( 0.0000,  0.0000,  0.0000)
  18 Li     1.618433    1.617040   13.467001    ( 0.0000,  0.0000,  0.0000)
  19 Li     4.850948    1.617018   13.471096    ( 0.0000,  0.0000,  0.0000)
  20 Li     8.084682    1.617164   13.465766    ( 0.0000,  0.0000,  0.0000)
  21 Li     1.616427    4.850283   13.471146    ( 0.0000,  0.0000,  0.0000)
  22 Li     4.851306    4.851257   13.470665    ( 0.0000,  0.0000,  0.0000)
  23 Li     8.085469    4.850595   13.470899    ( 0.0000,  0.0000,  0.0000)
  24 Li     1.616376    8.086077   13.471313    ( 0.0000,  0.0000,  0.0000)
  25 Li     4.851494    8.085083   13.470623    ( 0.0000,  0.0000,  0.0000)
  26 Li     8.085402    8.085537   13.470733    ( 0.0000,  0.0000,  0.0000)
  27 Li    -0.000626   -0.002736   15.446134    ( 0.0000,  0.0000,  0.0000)
  28 Li     3.235449   -0.001127   15.444618    ( 0.0000,  0.0000,  0.0000)
  29 Li     6.467752   -0.000542   15.447167    ( 0.0000,  0.0000,  0.0000)
  30 Li    -0.001053    3.236455   15.446580    ( 0.0000,  0.0000,  0.0000)
  31 Li     3.235304    3.235025   15.444831    ( 0.0000,  0.0000,  0.0000)
  32 Li     6.467617    3.234894   15.446918    ( 0.0000,  0.0000,  0.0000)
  33 Li     0.000018    6.468307   15.445206    ( 0.0000,  0.0000,  0.0000)
  34 Li     3.233479    6.468204   15.445796    ( 0.0000,  0.0000,  0.0000)
  35 Li     6.468818    6.468139   15.445486    ( 0.0000,  0.0000,  0.0000)
  36 O      0.035117    1.592715   18.575460    ( 0.0000,  0.0000,  0.0000)
  37 C      0.000277    1.232497   20.894679    ( 0.0000,  0.0000,  0.0000)
  38 C      0.021195    2.253208   19.780466    ( 0.0000,  0.0000,  0.0000)
  39 C     -0.006701    1.891139   22.264374    ( 0.0000,  0.0000,  0.0000)
  40 H     -0.876459    0.587258   20.761305    ( 0.0000,  0.0000,  0.0000)
  41 H      0.884693    0.588535   20.786366    ( 0.0000,  0.0000,  0.0000)
  42 H     -0.890667    2.861587   19.763555    ( 0.0000,  0.0000,  0.0000)
  43 H      0.883971    2.915605   19.839779    ( 0.0000,  0.0000,  0.0000)
  44 H     -0.892284    2.517962   22.394049    ( 0.0000,  0.0000,  0.0000)
  45 H     -0.007025    1.146706   23.058653    ( 0.0000,  0.0000,  0.0000)
  46 H      0.872098    2.526786   22.401746    ( 0.0000,  0.0000,  0.0000)
  47 H      0.792811    1.024803   18.419854    ( 0.0000,  0.0000,  0.0000)
  48 N     -0.017183    1.633775   16.813702    ( 0.0000,  0.0000,  0.0000)
  49 N     -1.150627    1.612419   16.855538    ( 0.0000,  0.0000,  0.0000)

Unit cell:
           periodic     x           y           z      points  spacing
  1. axis:    yes    9.702222    0.000000    0.000000    60     0.1617
  2. axis:    yes    0.000000    9.702222    0.000000    60     0.1617
  3. axis:    no     0.000000    0.000000   26.351111   164     0.1607

  Lengths:   9.702222   9.702222  26.351111
  Angles:   90.000000  90.000000  90.000000

Effective grid spacing dv^(1/3) = 0.1614

     iter     time        total  log10-change:
                         energy  eigst   dens
iter:   1 19:06:18  -331.075641  -1.03
iter:   2 19:06:31  -331.050926  -1.34  -1.78
iter:   3 19:06:39  -331.031159  -2.13  -1.86
iter:   4 19:06:46  -331.028699c -2.26  -2.40
Writing to output.gpw (mode='')

iter:   5 19:06:53  -331.026578c -2.06  -2.48
iter:   6 19:07:01  -331.025852c -2.53  -2.36
iter:   7 19:07:08  -331.025396c -2.60  -2.78
iter:   8 19:07:15  -331.024785c -3.01  -2.90
iter:   9 19:07:23  -331.025094c -3.04  -2.94
Writing to output.gpw (mode='')

iter:  10 19:07:30  -331.025353c -3.31  -3.21
iter:  11 19:07:37  -331.025465c -3.52  -3.14
iter:  12 19:07:45  -331.025316c -3.52  -3.21
iter:  13 19:07:52  -331.025190c -4.22  -3.34
iter:  14 19:07:59  -331.025166c -4.46  -3.60
Writing to output.gpw (mode='')

iter:  15 19:08:09  -331.025177c -4.34  -3.69
iter:  16 19:08:17  -331.025164c -4.56  -3.85
iter:  17 19:08:24  -331.025213c -4.83  -3.94
iter:  18 19:08:31  -331.025204c -4.86  -4.01c
iter:  19 19:08:38  -331.025188c -4.99  -4.19c
Writing to output.gpw (mode='')

iter:  20 19:08:46  -331.025192c -5.10  -4.20c
iter:  21 19:08:53  -331.025195c -5.18  -4.14c
iter:  22 19:09:00  -331.025187c -5.24  -4.22c
iter:  23 19:09:08  -331.025197c -5.47  -4.06c
iter:  24 19:09:15  -331.025195c -5.66  -4.24c
Writing to output.gpw (mode='')

iter:  25 19:09:22  -331.025202c -5.73  -4.23c
iter:  26 19:09:29  -331.025213c -5.65  -4.30c
iter:  27 19:09:37  -331.025213c -6.02  -4.41c
iter:  28 19:09:45  -331.025208c -6.17  -4.42c
iter:  29 19:09:53  -331.025208c -6.08  -4.66c
Writing to output.gpw (mode='')

iter:  30 19:10:00  -331.025214c -5.99  -4.76c
iter:  31 19:10:08  -331.025213c -6.53  -4.79c
iter:  32 19:10:22  -331.025215c -6.46  -4.84c
iter:  33 19:10:30  -331.025214c -6.52  -5.11c
iter:  34 19:10:38  -331.025214c -6.49  -5.17c
Writing to output.gpw (mode='')

iter:  35 19:10:45  -331.025215c -6.81  -5.26c
iter:  36 19:10:52  -331.025215c -6.72  -5.45c
iter:  37 19:11:00  -331.025215c -7.07  -5.45c
iter:  38 19:11:07  -331.025215c -7.01  -5.64c
iter:  39 19:11:14  -331.025215c -6.89  -5.69c
Writing to output.gpw (mode='')

iter:  40 19:11:27  -331.025215c -7.30  -5.70c
iter:  41 19:11:35  -331.025216c -7.56c -5.66c

Converged after 41 iterations.

Dipole moment: (-23.086552, -5.537342, 0.383387) |e|*Ang

Energy contributions relative to reference atoms: (reference = -15487.462483)

Kinetic:       +187.789729
Potential:     -176.988244
External:        +0.000000
XC:            -342.530628
Entropy (-ST):   -0.164615
Local:           +0.786235
--------------------------
Free energy:   -331.107523
Extrapolated:  -331.025216

Dipole-layer corrected work functions: 3.381073, 2.644072 eV

Showing only first 2 kpts
 Kpt  Band  Eigenvalues  Occupancy
  0    34     -3.26227    1.98653
  0    35     -3.09540    1.67954
  0    36     -2.92916    0.31732
  0    37     -2.77511    0.01717

  1    34     -3.07829    1.57650
  1    35     -3.01938    1.06800
  1    36     -2.95486    0.47944
  1    37     -2.90613    0.21264


Fermi level: -3.01257

Gap: 0.026 eV
Transition (v -> c):
  (s=0, k=1, n=35, [0.12, -0.12, 0.00]) -> (s=0, k=4, n=36, [0.38, -0.38, 0.00])
Writing to output.gpw (mode='')


Forces in eV/Ang:
  0 Li    0.02232   -0.00166   -0.28269
  1 Li   -0.01378    0.00103   -0.26914
  2 Li   -0.01200    0.00113   -0.28153
  3 Li   -0.00525    0.01562   -0.27730
  4 Li    0.00042   -0.00344   -0.27283
  5 Li    0.00773    0.02482   -0.27405
  6 Li   -0.00590   -0.01549   -0.27878
  7 Li   -0.00078    0.00242   -0.27413
  8 Li    0.01011   -0.02520   -0.27450
  9 Li   -0.00300    0.01109    0.32965
 10 Li    0.01504    0.00034    0.24979
 11 Li   -0.00671    0.00702    0.29095
 12 Li   -0.00013   -0.01142    0.32798
 13 Li    0.01604   -0.00383    0.25231
 14 Li   -0.00866   -0.00395    0.28551
 15 Li   -0.00914    0.00038    0.23194
 16 Li   -0.01133    0.00418    0.26523
 17 Li    0.01525   -0.00435    0.24900
 18 Li    0.05552   -0.00086   -0.10769
 19 Li   -0.00480   -0.00053    0.05458
 20 Li   -0.02239    0.00405   -0.15845
 21 Li   -0.02449   -0.03162    0.05514
 22 Li    0.00705    0.00627    0.03727
 23 Li    0.01114   -0.02107    0.04602
 24 Li   -0.02623    0.03493    0.06179
 25 Li    0.01427   -0.00466    0.03458
 26 Li    0.00857    0.01541    0.04104
 27 Li   -0.02003   -0.14199   -0.02409
 28 Li    0.05392   -0.04593   -0.05238
 29 Li   -0.01898   -0.02254    0.04553
 30 Li   -0.03156    0.14233   -0.01700
 31 Li    0.05057    0.03851   -0.04385
 32 Li   -0.02801    0.03392    0.03407
 33 Li    0.00066    0.00635   -0.02894
 34 Li   -0.02315    0.00226   -0.00584
 35 Li    0.02702    0.00016   -0.01735
 36 O     1.29958   -0.95093    4.37034
 37 C     0.02101    0.00678    0.51642
 38 C     0.33439    0.48885    1.32731
 39 C    -0.01888    0.02112    0.25527
 40 H     0.05572    0.06782    0.02416
 41 H    -0.05751    0.05053    0.05519
 42 H     0.04468    0.02226    0.12846
 43 H     0.17841    0.30047    0.35504
 44 H    -0.01300    0.00050    0.01837
 45 H    -0.00127   -0.03635    0.10921
 46 H     0.00096   -0.02239    0.00848
 47 H     0.65981   -0.38724    0.85800
 48 N     0.30501    0.57242   -4.63506
 49 N    -2.89605   -0.19190   -3.38071

System changes: positions 

Initializing position-dependent things.

Density initialized from wave functions
       .-----------------------.  
      /|                       |  
     / |                       |  
    /  |                       |  
   /   |                       |  
  /    |                       |  
 *     |                       |  
 |     |                       |  
 |     |                       |  
 |   H |                H H    |  
 |     |                  C    |  
 |     |                       |  
 |C HH |               H H     |  
 |C    |       Li      Li      Li 
 |O    |                       |  
 |  HLi|     Li      Li        |  
 |     |                       |  
 |     |  LLi     LLi  N  NLi  |  
 |     |                       |  
 |     |Li      Li      Li     |  
 |   Li|     Li      Li        |  
 |    Li  Li  Li  Li  Li  Li   |  
 | Li  |   Li      Li          |  
 |     |Li      Li      Li     |  
 Li    | Li      Li            |  
 |    Li      Li      Li       |  
 |     |                       |  
 |     |                       |  
 |     |                       |  
 |     |                       |  
 |     |                       |  
 |     |                       |  
 |     .-----------------------.  
 |    /                       /   
 |   /                       /    
 |  /                       /     
 | /                       /      
 |/                       /       
 *-----------------------*        

Positions:
   0 Li     1.617037    1.617037   10.000000    ( 0.0000,  0.0000,  0.0000)
   1 Li     4.851111    1.617037   10.000000    ( 0.0000,  0.0000,  0.0000)
   2 Li     8.085185    1.617037   10.000000    ( 0.0000,  0.0000,  0.0000)
   3 Li     1.617037    4.851111   10.000000    ( 0.0000,  0.0000,  0.0000)
   4 Li     4.851111    4.851111   10.000000    ( 0.0000,  0.0000,  0.0000)
   5 Li     8.085185    4.851111   10.000000    ( 0.0000,  0.0000,  0.0000)
   6 Li     1.617037    8.085185   10.000000    ( 0.0000,  0.0000,  0.0000)
   7 Li     4.851111    8.085185   10.000000    ( 0.0000,  0.0000,  0.0000)
   8 Li     8.085185    8.085185   10.000000    ( 0.0000,  0.0000,  0.0000)
   9 Li     0.000000    0.000000   11.617037    ( 0.0000,  0.0000,  0.0000)
  10 Li     3.234074    0.000000   11.617037    ( 0.0000,  0.0000,  0.0000)
  11 Li     6.468148    0.000000   11.617037    ( 0.0000,  0.0000,  0.0000)
  12 Li     0.000000    3.234074   11.617037    ( 0.0000,  0.0000,  0.0000)
  13 Li     3.234074    3.234074   11.617037    ( 0.0000,  0.0000,  0.0000)
  14 Li     6.468148    3.234074   11.617037    ( 0.0000,  0.0000,  0.0000)
  15 Li     0.000000    6.468148   11.617037    ( 0.0000,  0.0000,  0.0000)
  16 Li     3.234074    6.468148   11.617037    ( 0.0000,  0.0000,  0.0000)
  17 Li     6.468148    6.468148   11.617037    ( 0.0000,  0.0000,  0.0000)
  18 Li     1.619080    1.617021   13.465750    ( 0.0000,  0.0000,  0.0000)
  19 Li     4.850908    1.617017   13.471733    ( 0.0000,  0.0000,  0.0000)
  20 Li     8.084387    1.617196   13.463880    ( 0.0000,  0.0000,  0.0000)
  21 Li     1.616140    4.849936   13.471758    ( 0.0000,  0.0000,  0.0000)
  22 Li     4.851374    4.851336   13.471101    ( 0.0000,  0.0000,  0.0000)
  23 Li     8.085597    4.850348   13.471409    ( 0.0000,  0.0000,  0.0000)
  24 Li     1.616071    8.086468   13.472013    ( 0.0000,  0.0000,  0.0000)
  25 Li     4.851646    8.085020   13.471010    ( 0.0000,  0.0000,  0.0000)
  26 Li     8.085504    8.085736   13.471219    ( 0.0000,  0.0000,  0.0000)
  27 Li    -0.000824   -0.004631   15.445814    ( 0.0000,  0.0000,  0.0000)
  28 Li     3.236051   -0.001685   15.443997    ( 0.0000,  0.0000,  0.0000)
  29 Li     6.467519   -0.000804   15.447712    ( 0.0000,  0.0000,  0.0000)
  30 Li    -0.001379    3.238470   15.446277    ( 0.0000,  0.0000,  0.0000)
  31 Li     3.235882    3.235489   15.444327    ( 0.0000,  0.0000,  0.0000)
  32 Li     6.467254    3.235277   15.447317    ( 0.0000,  0.0000,  0.0000)
  33 Li     0.000040    6.468387   15.444836    ( 0.0000,  0.0000,  0.0000)
  34 Li     3.233229    6.468232   15.445713    ( 0.0000,  0.0000,  0.0000)
  35 Li     6.469110    6.468151   15.445278    ( 0.0000,  0.0000,  0.0000)
  36 O      0.036927    1.583408   18.592543    ( 0.0000,  0.0000,  0.0000)
  37 C      0.000633    1.233356   20.903196    ( 0.0000,  0.0000,  0.0000)
  38 C      0.024811    2.254464   19.793468    ( 0.0000,  0.0000,  0.0000)
  39 C     -0.006873    1.890870   22.268527    ( 0.0000,  0.0000,  0.0000)
  40 H     -0.875635    0.588533   20.761537    ( 0.0000,  0.0000,  0.0000)
  41 H      0.883981    0.589381   20.787147    ( 0.0000,  0.0000,  0.0000)
  42 H     -0.889829    2.862031   19.765822    ( 0.0000,  0.0000,  0.0000)
  43 H      0.886956    2.920354   19.845511    ( 0.0000,  0.0000,  0.0000)
  44 H     -0.892452    2.517980   22.394371    ( 0.0000,  0.0000,  0.0000)
  45 H     -0.007065    1.146342   23.060542    ( 0.0000,  0.0000,  0.0000)
  46 H      0.872103    2.526545   22.401970    ( 0.0000,  0.0000,  0.0000)
  47 H      0.799835    1.022265   18.428850    ( 0.0000,  0.0000,  0.0000)
  48 N     -0.024968    1.638005   16.774696    ( 0.0000,  0.0000,  0.0000)
  49 N     -1.160485    1.610563   16.831815    ( 0.0000,  0.0000,  0.0000)

Unit cell:
           periodic     x           y           z      points  spacing
  1. axis:    yes    9.702222    0.000000    0.000000    60     0.1617
  2. axis:    yes    0.000000    9.702222    0.000000    60     0.1617
  3. axis:    no     0.000000    0.000000   26.351111   164     0.1607

  Lengths:   9.702222   9.702222  26.351111
  Angles:   90.000000  90.000000  90.000000

Effective grid spacing dv^(1/3) = 0.1614

     iter     time        total  log10-change:
                         energy  eigst   dens
iter:   1 19:11:44  -331.442059  -1.08
iter:   2 19:11:52  -331.427346  -1.53  -1.87
iter:   3 19:11:59  -331.414046c -2.27  -1.94
iter:   4 19:12:06  -331.411717c -2.39  -2.50
Writing to output.gpw (mode='')

iter:   5 19:12:14  -331.410269c -2.12  -2.54
iter:   6 19:12:21  -331.409580c -2.74  -2.40
iter:   7 19:12:28  -331.409698c -2.73  -2.88
iter:   8 19:12:36  -331.409105c -3.11  -2.92
iter:   9 19:12:43  -331.409371c -3.09  -3.09
Writing to output.gpw (mode='')

iter:  10 19:12:50  -331.409698c -3.50  -3.16
iter:  11 19:12:58  -331.409513c -3.40  -3.14
iter:  12 19:13:05  -331.409436c -4.23  -3.27
iter:  13 19:13:13  -331.409432c -4.31  -3.35
iter:  14 19:13:20  -331.409369c -4.26  -3.57
Writing to output.gpw (mode='')

iter:  15 19:13:27  -331.409400c -4.42  -3.84
iter:  16 19:13:35  -331.409406c -4.55  -3.75
iter:  17 19:13:42  -331.409397c -4.74  -3.66
iter:  18 19:13:49  -331.409397c -5.00  -3.89
iter:  19 19:13:57  -331.409419c -4.90  -3.78
Writing to output.gpw (mode='')

iter:  20 19:14:04  -331.409421c -5.14  -4.06c
iter:  21 19:14:11  -331.409427c -5.36  -4.01c
iter:  22 19:14:19  -331.409405c -5.33  -4.19c
iter:  23 19:14:26  -331.409413c -5.71  -4.20c
iter:  24 19:14:33  -331.409421c -5.63  -4.32c
Writing to output.gpw (mode='')

iter:  25 19:14:41  -331.409418c -5.76  -4.48c
iter:  26 19:14:48  -331.409421c -5.99  -4.23c
iter:  27 19:14:55  -331.409426c -5.81  -4.52c
iter:  28 19:15:03  -331.409424c -6.28  -4.66c
iter:  29 19:15:10  -331.409425c -6.35  -4.88c
Writing to output.gpw (mode='')

iter:  30 19:15:17  -331.409425c -6.39  -4.92c
iter:  31 19:15:25  -331.409424c -6.41  -4.96c
iter:  32 19:15:32  -331.409424c -6.58  -5.02c
iter:  33 19:15:39  -331.409426c -6.97  -5.07c
iter:  34 19:15:47  -331.409425c -7.06  -5.11c
Writing to output.gpw (mode='')

iter:  35 19:15:54  -331.409424c -7.06  -5.21c
iter:  36 19:16:01  -331.409423c -6.98  -5.48c
iter:  37 19:16:09  -331.409424c -7.17  -5.46c
iter:  38 19:16:16  -331.409424c -7.44c -5.51c

Converged after 38 iterations.

Dipole moment: (-22.608661, -5.444700, 0.352320) |e|*Ang

Energy contributions relative to reference atoms: (reference = -15487.462483)

Kinetic:       +186.110428
Potential:     -175.853440
External:        +0.000000
XC:            -342.372477
Entropy (-ST):   -0.165702
Local:           +0.788916
--------------------------
Free energy:   -331.492275
Extrapolated:  -331.409424

Dipole-layer corrected work functions: 3.382379, 2.705099 eV

Showing only first 2 kpts
 Kpt  Band  Eigenvalues  Occupancy
  0    34     -3.29339    1.98652
  0    35     -3.12275    1.65846
  0    36     -2.96315    0.33269
  0    37     -2.80570    0.01697

  1    34     -3.11264    1.59735
  1    35     -3.04884    1.05097
  1    36     -2.98553    0.47584
  1    37     -2.93523    0.20491


Fermi level: -3.04374

Gap: 0.026 eV
Transition (v -> c):
  (s=0, k=1, n=35, [0.12, -0.12, 0.00]) -> (s=0, k=4, n=36, [0.38, -0.38, 0.00])
Writing to output.gpw (mode='')


Forces in eV/Ang:
  0 Li    0.02134   -0.00185   -0.28348
  1 Li   -0.01364    0.00078   -0.26871
  2 Li   -0.01182    0.00106   -0.28187
  3 Li   -0.00517    0.01599   -0.27787
  4 Li    0.00067   -0.00297   -0.27299
  5 Li    0.00819    0.02488   -0.27485
  6 Li   -0.00567   -0.01584   -0.27905
  7 Li   -0.00062    0.00198   -0.27431
  8 Li    0.01033   -0.02501   -0.27491
  9 Li   -0.00270    0.01113    0.32980
 10 Li    0.01618   -0.00022    0.25038
 11 Li   -0.00688    0.00724    0.29086
 12 Li    0.00032   -0.01168    0.32873
 13 Li    0.01662   -0.00325    0.25341
 14 Li   -0.00865   -0.00402    0.28543
 15 Li   -0.00949    0.00044    0.23199
 16 Li   -0.01208    0.00454    0.26443
 17 Li    0.01499   -0.00463    0.24970
 18 Li    0.05536   -0.00172   -0.10755
 19 Li   -0.00403   -0.00027    0.05375
 20 Li   -0.02317    0.00319   -0.15528
 21 Li   -0.02432   -0.02969    0.05271
 22 Li    0.00662    0.00632    0.03731
 23 Li    0.01050   -0.02032    0.04345
 24 Li   -0.02584    0.03377    0.05958
 25 Li    0.01356   -0.00482    0.03375
 26 Li    0.00812    0.01539    0.04000
 27 Li   -0.02290   -0.16043   -0.03309
 28 Li    0.05288   -0.04748   -0.05236
 29 Li   -0.01565   -0.01951    0.04895
 30 Li   -0.02921    0.17505   -0.03658
 31 Li    0.05132    0.03965   -0.04321
 32 Li   -0.02829    0.03140    0.03587
 33 Li    0.00123    0.00644   -0.02998
 34 Li   -0.02210    0.00224   -0.00632
 35 Li    0.02614    0.00064   -0.01722
 36 O     1.05250   -0.87804    3.38729
 37 C     0.03085    0.00515    0.48354
 38 C     0.27766    0.38766    1.02219
 39 C    -0.01566    0.02249    0.30000
 40 H     0.06001    0.08453    0.04931
 41 H    -0.04809    0.04699    0.09435
 42 H     0.09808    0.00026    0.16900
 43 H     0.15591    0.26335    0.37416
 44 H    -0.01808    0.00466    0.03913
 45 H    -0.00317   -0.04606    0.17223
 46 H     0.00617   -0.01593    0.03274
 47 H     0.56263   -0.26779    0.79880
 48 N     0.19897    0.47979   -3.87858
 49 N    -2.34121   -0.16076   -2.88610

System changes: positions 

Initializing position-dependent things.

Density initialized from wave functions
       .-----------------------.  
      /|                       |  
     / |                       |  
    /  |                       |  
   /   |                       |  
  /    |                       |  
 *     |                       |  
 |     |                       |  
 |     |                       |  
 |   H |                H H    |  
 |     |                  C    |  
 |     |                       |  
 |C HH |               H H     |  
 |C    |       Li      Li      Li 
 |O    |                       |  
 |  HLi|     Li      Li        |  
 |     |                       |  
 |     |  LLi     LLi  N  NLi  |  
 |     |                       |  
 |     |Li      Li      Li     |  
 |   Li|     Li      Li        |  
 |    Li  Li  Li  Li  Li  Li   |  
 | Li  |   Li      Li          |  
 |     |Li      Li      Li     |  
 Li    | Li      Li            |  
 |    Li      Li      Li       |  
 |     |                       |  
 |     |                       |  
 |     |                       |  
 |     |                       |  
 |     |                       |  
 |     |                       |  
 |     .-----------------------.  
 |    /                       /   
 |   /                       /    
 |  /                       /     
[...]

Kinetic:       +163.471991
Potential:     -157.862640
External:        +0.000000
XC:            -341.686532
Entropy (-ST):   -0.162452
Local:           +0.826119
--------------------------
Free energy:   -335.413514
Extrapolated:  -335.332288

Dipole-layer corrected work functions: 3.392296, 2.920333 eV

Showing only first 2 kpts
 Kpt  Band  Eigenvalues  Occupancy
  0    34     -3.38654    1.98019
  0    35     -3.19176    1.34034
  0    36     -3.13102    0.75233
  0    37     -2.94481    0.02868

  1    34     -3.39404    1.98292
  1    35     -3.28612    1.86122
  1    36     -3.10676    0.54136
  1    37     -2.92351    0.01883


Fermi level: -3.15631

No gap
Writing to output.gpw (mode='')


Forces in eV/Ang:
  0 Li   -0.00824    0.01167   -0.29384
  1 Li    0.00745   -0.00744   -0.29212
  2 Li    0.00028    0.00180   -0.24856
  3 Li    0.00690    0.00853   -0.28985
  4 Li   -0.01218    0.01591   -0.28655
  5 Li    0.01202   -0.00601   -0.29130
  6 Li    0.01444   -0.01008   -0.28828
  7 Li   -0.00676   -0.00398   -0.29241
  8 Li   -0.00840    0.01137   -0.29375
  9 Li   -0.02202    0.01626    0.26788
 10 Li   -0.03155    0.01328    0.30711
 11 Li    0.03887    0.00921    0.32199
 12 Li   -0.02424   -0.03586    0.29913
 13 Li   -0.00765   -0.02669    0.29017
 14 Li    0.04645   -0.03541    0.27092
 15 Li   -0.02279   -0.00337    0.29688
 16 Li   -0.02675   -0.02288    0.31040
 17 Li    0.03253   -0.03456    0.30829
 18 Li   -0.01181   -0.00716   -0.00311
 19 Li    0.00238   -0.00074    0.01340
 20 Li   -0.01472   -0.01709    0.00985
 21 Li    0.01950    0.00307   -0.00781
 22 Li    0.00822    0.00777    0.00967
 23 Li   -0.00474    0.00483   -0.01502
 24 Li   -0.00255    0.00640   -0.01219
 25 Li    0.00140    0.00160   -0.00501
 26 Li    0.00195    0.00739   -0.00749
 27 Li   -0.03403    0.05087    0.01418
 28 Li    0.00868   -0.01217    0.00214
 29 Li    0.03412    0.04515   -0.01408
 30 Li    0.02833    0.01374    0.00205
 31 Li   -0.00566    0.00596    0.00030
 32 Li   -0.00636    0.00732   -0.00437
 33 Li   -0.00616    0.00067   -0.01649
 34 Li   -0.01051    0.00705    0.00848
 35 Li    0.00690    0.01715    0.01430
 36 O     0.00427    0.01468   -0.02443
 37 C     0.01410    0.00371   -0.00774
 38 C    -0.01132    0.00233   -0.00788
 39 C    -0.00746   -0.00253    0.00090
 40 H     0.01597    0.00517   -0.00440
 41 H     0.00933   -0.03084    0.00385
 42 H    -0.00772    0.00572   -0.02875
 43 H    -0.02457    0.01197    0.00586
 44 H    -0.00473    0.01608    0.00558
 45 H    -0.00127   -0.01641   -0.01634
 46 H    -0.01096   -0.00036   -0.00712
 47 H    -0.00621   -0.01099    0.00001
 48 N    -0.00750   -0.02345   -0.00566
 49 N    -0.01985   -0.03036    0.01506

System changes: positions 

Initializing position-dependent things.

Density initialized from wave functions
       .-----------------------.  
      /|                       |  
     / |                       |  
    /  |                       |  
   /   |                       |  
  /    |                       |  
 *     |                       |  
 |     |                       |  
 |     |                       |  
 |H  H |                H      |  
 |     |                       |  
 |C    |                       |  
 |C HH |               H H     |  
 |     |       Li      Li      |  
 |     |                  O    |  
 |  HLi|     Li      Li        |  
 |     |                       |  
 | Li  |  LLi     LLi     Li   |  
 |     |             N N       |  
 |     |Li      Li      Li     |  
 |   Li|     Li      Li        |  
 |    Li  Li  Li  Li  Li  Li   |  
 | Li  |   Li      Li          |  
 |     |Li      Li      Li     |  
 Li    | Li      Li            |  
 |    Li      Li      Li       |  
 |     |                       |  
 |     |                       |  
 |     |                       |  
 |     |                       |  
 |     |                       |  
 |     |                       |  
 |     .-----------------------.  
 |    /                       /   
 |   /                       /    
 |  /                       /     
 | /                       /      
 |/                       /       
 *-----------------------*        

Positions:
   0 Li     1.617037    1.617037   10.000000    ( 0.0000,  0.0000,  0.0000)
   1 Li     4.851111    1.617037   10.000000    ( 0.0000,  0.0000,  0.0000)
   2 Li     8.085185    1.617037   10.000000    ( 0.0000,  0.0000,  0.0000)
   3 Li     1.617037    4.851111   10.000000    ( 0.0000,  0.0000,  0.0000)
   4 Li     4.851111    4.851111   10.000000    ( 0.0000,  0.0000,  0.0000)
   5 Li     8.085185    4.851111   10.000000    ( 0.0000,  0.0000,  0.0000)
   6 Li     1.617037    8.085185   10.000000    ( 0.0000,  0.0000,  0.0000)
   7 Li     4.851111    8.085185   10.000000    ( 0.0000,  0.0000,  0.0000)
   8 Li     8.085185    8.085185   10.000000    ( 0.0000,  0.0000,  0.0000)
   9 Li     0.000000    0.000000   11.617037    ( 0.0000,  0.0000,  0.0000)
  10 Li     3.234074    0.000000   11.617037    ( 0.0000,  0.0000,  0.0000)
  11 Li     6.468148    0.000000   11.617037    ( 0.0000,  0.0000,  0.0000)
  12 Li     0.000000    3.234074   11.617037    ( 0.0000,  0.0000,  0.0000)
  13 Li     3.234074    3.234074   11.617037    ( 0.0000,  0.0000,  0.0000)
  14 Li     6.468148    3.234074   11.617037    ( 0.0000,  0.0000,  0.0000)
  15 Li     0.000000    6.468148   11.617037    ( 0.0000,  0.0000,  0.0000)
  16 Li     3.234074    6.468148   11.617037    ( 0.0000,  0.0000,  0.0000)
  17 Li     6.468148    6.468148   11.617037    ( 0.0000,  0.0000,  0.0000)
  18 Li     1.594561    1.669549   13.529811    ( 0.0000,  0.0000,  0.0000)
  19 Li     4.863473    1.559426   13.501768    ( 0.0000,  0.0000,  0.0000)
  20 Li     8.103894    1.592793   13.549816    ( 0.0000,  0.0000,  0.0000)
  21 Li     1.624538    4.864078   13.527932    ( 0.0000,  0.0000,  0.0000)
  22 Li     4.901116    4.760164   13.480145    ( 0.0000,  0.0000,  0.0000)
  23 Li     8.154438    4.797457   13.542580    ( 0.0000,  0.0000,  0.0000)
  24 Li     1.538517    8.128832   13.517959    ( 0.0000,  0.0000,  0.0000)
  25 Li     4.808045    8.031009   13.482460    ( 0.0000,  0.0000,  0.0000)
  26 Li     8.045197    8.065479   13.532144    ( 0.0000,  0.0000,  0.0000)
  27 Li    -0.261619    0.188244   15.651201    ( 0.0000,  0.0000,  0.0000)
  28 Li     3.068442   -0.040563   15.430074    ( 0.0000,  0.0000,  0.0000)
  29 Li     6.318522   -0.185688   15.507906    ( 0.0000,  0.0000,  0.0000)
  30 Li     0.112410    3.289055   15.620149    ( 0.0000,  0.0000,  0.0000)
  31 Li     3.393196    3.271542   15.451432    ( 0.0000,  0.0000,  0.0000)
  32 Li     6.702484    2.930545   15.603471    ( 0.0000,  0.0000,  0.0000)
  33 Li     0.063232    6.580455   15.503577    ( 0.0000,  0.0000,  0.0000)
  34 Li     3.258003    6.465192   15.442863    ( 0.0000,  0.0000,  0.0000)
  35 Li     6.412799    6.247382   15.420965    ( 0.0000,  0.0000,  0.0000)
  36 O     -0.019531    1.555060   18.795107    ( 0.0000,  0.0000,  0.0000)
  37 C      0.074014    1.247444   21.256742    ( 0.0000,  0.0000,  0.0000)
  38 C      0.028953    2.212470   20.073248    ( 0.0000,  0.0000,  0.0000)
  39 C      0.007470    1.977203   22.601855    ( 0.0000,  0.0000,  0.0000)
  40 H     -0.761194    0.546253   21.166974    ( 0.0000,  0.0000,  0.0000)
  41 H      0.994182    0.654326   21.200664    ( 0.0000,  0.0000,  0.0000)
  42 H     -0.880345    2.817879   20.118775    ( 0.0000,  0.0000,  0.0000)
  43 H      0.886125    2.898735   20.111970    ( 0.0000,  0.0000,  0.0000)
  44 H     -0.921225    2.547092   22.695183    ( 0.0000,  0.0000,  0.0000)
  45 H      0.050836    1.274309   23.435608    ( 0.0000,  0.0000,  0.0000)
  46 H      0.840727    2.675013   22.716856    ( 0.0000,  0.0000,  0.0000)
  47 H      0.846076    1.154124   18.634912    ( 0.0000,  0.0000,  0.0000)
  48 N     -1.192420    1.997789   15.578496    ( 0.0000,  0.0000,  0.0000)
  49 N     -2.080596    1.114013   15.560648    ( 0.0000,  0.0000,  0.0000)

Unit cell:
           periodic     x           y           z      points  spacing
  1. axis:    yes    9.702222    0.000000    0.000000    60     0.1617
  2. axis:    yes    0.000000    9.702222    0.000000    60     0.1617
  3. axis:    no     0.000000    0.000000   26.351111   164     0.1607

  Lengths:   9.702222   9.702222  26.351111
  Angles:   90.000000  90.000000  90.000000

Effective grid spacing dv^(1/3) = 0.1614

     iter     time        total  log10-change:
                         energy  eigst   dens
iter:   1 02:01:39  -335.334569  -2.60
iter:   2 02:01:46  -335.333302  -3.10  -2.49
iter:   3 02:01:54  -335.332968c -3.95  -2.72
iter:   4 02:02:01  -335.332946c -4.07  -2.96
Writing to output.gpw (mode='')

iter:   5 02:02:08  -335.332946c -4.00  -3.21
iter:   6 02:02:16  -335.332987c -3.89  -3.37
iter:   7 02:02:23  -335.332920c -4.82  -3.42
iter:   8 02:02:30  -335.332975c -4.14  -3.54
iter:   9 02:02:38  -335.332937c -5.23  -3.64
Writing to output.gpw (mode='')

iter:  10 02:02:45  -335.332919c -5.38  -3.79
iter:  11 02:02:52  -335.332903c -5.24  -3.85
iter:  12 02:03:00  -335.332918c -5.89  -4.00
iter:  13 02:03:10  -335.332917c -5.82  -4.14c
iter:  14 02:03:17  -335.332926c -5.77  -4.30c
Writing to output.gpw (mode='')

iter:  15 02:03:25  -335.332928c -6.06  -4.44c
iter:  16 02:03:32  -335.332922c -6.74  -4.44c
iter:  17 02:03:39  -335.332919c -6.74  -4.54c
iter:  18 02:03:47  -335.332919c -6.99  -4.62c
iter:  19 02:03:54  -335.332922c -7.02  -4.81c
Writing to output.gpw (mode='')

iter:  20 02:04:01  -335.332920c -7.32  -4.93c
iter:  21 02:04:09  -335.332920c -7.64c -4.98c

Converged after 21 iterations.

Dipole moment: (-23.700731, -3.815035, 0.246911) |e|*Ang

Energy contributions relative to reference atoms: (reference = -15487.462483)

Kinetic:       +163.488120
Potential:     -157.865023
External:        +0.000000
XC:            -341.701083
Entropy (-ST):   -0.162491
Local:           +0.826310
--------------------------
Free energy:   -335.414166
Extrapolated:  -335.332920

Dipole-layer corrected work functions: 3.392451, 2.917803 eV

Showing only first 2 kpts
 Kpt  Band  Eigenvalues  Occupancy
  0    34     -3.38545    1.98022
  0    35     -3.19050    1.33967
  0    36     -3.12963    0.75045
  0    37     -2.94386    0.02882

  1    34     -3.39220    1.98270
  1    35     -3.28557    1.86286
  1    36     -3.10530    0.53921
  1    37     -2.92197    0.01870


Fermi level: -3.15513

No gap
Writing to output.gpw (mode='')


Forces in eV/Ang:
  0 Li   -0.00831    0.01167   -0.29372
  1 Li    0.00761   -0.00749   -0.29207
  2 Li    0.00027    0.00177   -0.24830
  3 Li    0.00683    0.00850   -0.28972
  4 Li   -0.01224    0.01593   -0.28638
  5 Li    0.01197   -0.00606   -0.29120
  6 Li    0.01440   -0.01010   -0.28814
  7 Li   -0.00678   -0.00403   -0.29241
  8 Li   -0.00840    0.01150   -0.29353
  9 Li   -0.02202    0.01604    0.26594
 10 Li   -0.03097    0.01357    0.30690
 11 Li    0.03786    0.00868    0.32091
 12 Li   -0.02428   -0.03600    0.29898
 13 Li   -0.00654   -0.02688    0.29058
 14 Li    0.04571   -0.03547    0.27011
 15 Li   -0.02253   -0.00347    0.29691
 16 Li   -0.02629   -0.02276    0.30986
 17 Li    0.03259   -0.03442    0.30781
 18 Li   -0.01155   -0.00672   -0.00151
 19 Li    0.00207   -0.00043    0.01238
 20 Li   -0.01361   -0.01362    0.00593
 21 Li    0.01812    0.00367   -0.00723
 22 Li    0.00745    0.00772    0.00898
 23 Li   -0.00449    0.00419   -0.01320
 24 Li   -0.00200    0.00571   -0.01109
 25 Li    0.00217    0.00213   -0.00363
 26 Li    0.00102    0.00720   -0.00680
 27 Li   -0.02139    0.03812    0.01428
 28 Li    0.00781   -0.01095    0.00220
 29 Li    0.01315    0.02362   -0.01637
 30 Li    0.02261    0.00893    0.00099
 31 Li   -0.00586    0.00551    0.00037
 32 Li   -0.00574    0.00582   -0.00606
 33 Li   -0.00561    0.00101   -0.01587
 34 Li   -0.01014    0.00611    0.00787
 35 Li    0.00658    0.01748    0.01358
 36 O     0.01137    0.00272   -0.00939
 37 C    -0.00182   -0.00326   -0.00863
 38 C    -0.00170    0.00792   -0.00789
 39 C     0.00506   -0.00271   -0.00716
 40 H     0.00177   -0.00973   -0.01113
 41 H    -0.00356   -0.00692    0.00318
 42 H    -0.01048    0.00018   -0.02496
 43 H    -0.01509    0.02192    0.00569
 44 H     0.00716   -0.00453   -0.00610
 45 H    -0.00987   -0.01223   -0.01998
 46 H    -0.00419    0.01270    0.00037
 47 H    -0.01151   -0.01019   -0.00372
 48 N    -0.00722   -0.00194    0.00463
 49 N    -0.01545    0.00952    0.04189

Timing:                                      incl.     excl.
-------------------------------------------------------------------
Density initialized from wave functions:     4.182     4.179   0.0% |
 Symmetrize density:                         0.003     0.003   0.0% |
Forces:                                     43.547    43.547   0.2% |
Hamiltonian:                               604.151     0.015   0.0% |
 Atomic:                                     0.026     0.025   0.0% |
  XC Correction:                             0.000     0.000   0.0% |
 Calculate atomic Hamiltonians:              0.043     0.043   0.0% |
 Communicate:                                9.284     9.284   0.0% |
 Hartree integrate/restrict:                 1.985     1.985   0.0% |
 Initialize Hamiltonian:                     0.000     0.000   0.0% |
 Poisson:                                   28.350    10.518   0.0% |
  Communicate from 1D:                       2.753     2.753   0.0% |
  Communicate from 2D:                       2.788     2.788   0.0% |
  Communicate to 1D:                         1.542     1.542   0.0% |
  Communicate to 2D:                         3.542     3.542   0.0% |
  FFT 1D:                                    3.688     3.688   0.0% |
  FFT 2D:                                    3.518     3.518   0.0% |
 XC 3D grid:                               563.979    86.954   0.3% |
  VdW-DF integral:                         477.025     3.991   0.0% |
   Convolution:                             43.260    43.260   0.2% |
   FFT:                                     18.756    18.756   0.1% |
   gather:                                 164.008   164.008   0.6% |
   hmm1:                                    15.511    15.511   0.1% |
   hmm2:                                    20.185    20.185   0.1% |
   iFFT:                                    19.345    19.345   0.1% |
   potential:                              188.359     4.995   0.0% |
    collect:                                31.088    31.088   0.1% |
    p1:                                     83.863    83.863   0.3% |
    p2:                                     31.127    31.127   0.1% |
    sum:                                    37.286    37.286   0.1% |
   splines:                                  3.610     3.610   0.0% |
 vbar:                                       0.470     0.470   0.0% |
LCAO initialization:                         1.175     0.183   0.0% |
 LCAO eigensolver:                           0.263     0.000   0.0% |
  Calculate projections:                     0.000     0.000   0.0% |
  DenseAtomicCorrection:                     0.000     0.000   0.0% |
  Distribute overlap matrix:                 0.172     0.172   0.0% |
  Orbital Layouts:                           0.089     0.089   0.0% |
  Potential matrix:                          0.001     0.001   0.0% |
  Sum over cells:                            0.001     0.001   0.0% |
 LCAO to grid:                               0.627     0.627   0.0% |
 Set positions (LCAO WFS):                   0.102     0.059   0.0% |
  Basic WFS set positions:                   0.001     0.001   0.0% |
  Basis functions set positions:             0.000     0.000   0.0% |
  P tci:                                     0.000     0.000   0.0% |
  ST tci:                                    0.012     0.012   0.0% |
  mktci:                                     0.029     0.029   0.0% |
Redistribute:                                0.064     0.064   0.0% |
SCF-cycle:                               26382.483   359.959   1.3% ||
 Davidson:                                7187.411  2180.942   8.0% |--|
  Apply hamiltonian:                       452.930   452.930   1.7% ||
  Subspace diag:                          1335.200     0.410   0.0% |
   calc_h_matrix:                          659.218   206.480   0.8% |
    Apply hamiltonian:                     452.737   452.737   1.7% ||
   diagonalize:                             80.009    80.009   0.3% |
   rotate_psi:                             595.563   595.563   2.2% ||
  calc. matrices:                         2258.834  1193.395   4.4% |-|
   Apply hamiltonian:                     1065.439  1065.439   3.9% |-|
  diagonalize:                              20.876    20.876   0.1% |
  rotate_psi:                              938.630   938.630   3.5% ||
 Density:                                  132.312     0.139   0.0% |
  Atomic density matrices:                  17.850    17.850   0.1% |
  Mix:                                      54.569    54.569   0.2% |
  Multipole moments:                         5.973     5.973   0.0% |
  Pseudo density:                           53.781    53.702   0.2% |
   Symmetrize density:                       0.079     0.079   0.0% |
 Hamiltonian:                            18682.666     0.440   0.0% |
  Atomic:                                    0.867     0.858   0.0% |
   XC Correction:                            0.009     0.009   0.0% |
  Calculate atomic Hamiltonians:             1.350     1.350   0.0% |
  Communicate:                             245.639   245.639   0.9% |
  Hartree integrate/restrict:               65.604    65.604   0.2% |
  Poisson:                                 900.596   335.364   1.2% |
   Communicate from 1D:                     87.020    87.020   0.3% |
   Communicate from 2D:                     92.887    92.887   0.3% |
   Communicate to 1D:                       48.349    48.349   0.2% |
   Communicate to 2D:                      109.898   109.898   0.4% |
   FFT 1D:                                 115.687   115.687   0.4% |
   FFT 2D:                                 111.391   111.391   0.4% |
  XC 3D grid:                            17453.461  2671.653   9.8% |---|
   VdW-DF integral:                      14781.807   124.987   0.5% |
    Convolution:                          1358.304  1358.304   5.0% |-|
    FFT:                                   588.524   588.524   2.2% ||
    gather:                               5157.325  5157.325  19.0% |-------|
    hmm1:                                  485.767   485.767   1.8% ||
    hmm2:                                  636.264   636.264   2.3% ||
    iFFT:                                  606.721   606.721   2.2% ||
    potential:                            5823.882   157.756   0.6% |
     collect:                              908.269   908.269   3.3% ||
     p1:                                  2628.872  2628.872   9.7% |---|
     p2:                                   978.743   978.743   3.6% ||
     sum:                                 1150.243  1150.243   4.2% |-|
    splines:                                 0.035     0.035   0.0% |
  vbar:                                     14.710    14.710   0.1% |
 Orthonormalize:                            20.134     0.015   0.0% |
  calc_s_matrix:                             2.949     2.949   0.0% |
  inverse-cholesky:                          5.803     5.803   0.0% |
  projections:                               0.002     0.002   0.0% |
  rotate_psi_s:                             11.366    11.366   0.0% |
Set symmetry:                                0.003     0.003   0.0% |
Other:                                     112.746   112.746   0.4% |
-------------------------------------------------------------------
Total:                                             27148.352 100.0%

Memory usage: 1.12 GiB
Date: Sat Mar 11 02:04:09 2023
