
  ___ ___ ___ _ _ _  
 |   |   |_  | | | | 
 | | | | | . | | | | 
 |__ |  _|___|_____|  22.8.0
 |___|_|             

User:   vazumah@r362.ib.bridges2.psc.edu
Date:   Fri Mar 10 21:52:26 2023
Arch:   x86_64
Pid:    61050
CWD:    /jet/home/vazumah/Calcs/LiMEAS/proton_donors/propanediol13_z/bridge/0.0_1.617/N2_x
Python: 3.11.0
gpaw:   /jet/home/vazumah/.conda/envs/GPAW_mpich/lib/python3.11/site-packages/gpaw
_gpaw:  /jet/home/vazumah/.conda/envs/GPAW_mpich/lib/python3.11/site-packages/
        _gpaw.cpython-311-x86_64-linux-gnu.so
ase:    /jet/home/vazumah/.conda/envs/GPAW_mpich/lib/python3.11/site-packages/ase (version 3.22.1)
numpy:  /jet/home/vazumah/.conda/envs/GPAW_mpich/lib/python3.11/site-packages/numpy (version 1.24.2)
scipy:  /jet/home/vazumah/.conda/envs/GPAW_mpich/lib/python3.11/site-packages/scipy (version 1.10.1)
libxc:  5.2.3
units:  Angstrom and eV
cores: 128
OpenMP: True
OMP_NUM_THREADS: 1

Input parameters:
  h: 0.16
  kpts: {size: [4, 4, 1]}
  occupations: {name: fermi-dirac,
                width: 0.05}
  poissonsolver: {dipolelayer: xy}
  xc: BEEF-vdW

System changes: positions, numbers, cell, pbc, initial_charges, initial_magmoms 

Initialize ...

species:
  Li:
    name: Lithium
    id: 830b4218f175192f93f959cfc0aad614
    Z: 3.0
    valence: 1
    core: 2
    charge: 0.0
    file: /jet/home/vazumah/datasets/gpaw-setups-0.9.20000/Li.PBE.gz
    compensation charges: {type: gauss,
                           rc: 0.33,
                           lmax: 2}
    cutoffs: {filter: 1.91,
              core: 2.55}
    valence states:
      #              energy  rcut
      - 2s(1.00)    -2.874   1.058
      - 2p(0.00)    -1.090   1.058
      -  s          24.337   1.058
  
    # Using partial waves for Li as LCAO basis

  O:
    name: Oxygen
    id: 32ecd46bf208036f09c70b0ec9a88b78
    Z: 8.0
    valence: 6
    core: 2
    charge: 0.0
    file: /jet/home/vazumah/datasets/gpaw-setups-0.9.20000/O.PBE.gz
    compensation charges: {type: gauss,
                           rc: 0.21,
                           lmax: 2}
    cutoffs: {filter: 1.17,
              core: 0.83}
    valence states:
      #              energy  rcut
      - 2s(2.00)   -23.961   0.688
      - 2p(4.00)    -9.029   0.598
      -  s           3.251   0.688
      -  p          18.182   0.598
      -  d           0.000   0.619
  
    # Using partial waves for O as LCAO basis

  C:
    name: Carbon
    id: 4aa54d4b901d75f77cc0ea3eec22967b
    Z: 6.0
    valence: 4
    core: 2
    charge: 0.0
    file: /jet/home/vazumah/datasets/gpaw-setups-0.9.20000/C.PBE.gz
    compensation charges: {type: gauss,
                           rc: 0.20,
                           lmax: 2}
    cutoffs: {filter: 1.14,
              core: 1.14}
    valence states:
      #              energy  rcut
      - 2s(2.00)   -13.751   0.635
      - 2p(2.00)    -5.284   0.635
      -  s          13.461   0.635
      -  p          21.927   0.635
      -  d           0.000   0.635
  
    # Using partial waves for C as LCAO basis

  H:
    name: Hydrogen
    id: d65de229564ff8ea4db303e23b6d1ecf
    Z: 1.0
    valence: 1
    core: 0
    charge: 0.0
    file: /jet/home/vazumah/datasets/gpaw-setups-0.9.20000/H.PBE.gz
    compensation charges: {type: gauss,
                           rc: 0.15,
                           lmax: 2}
    cutoffs: {filter: 0.85,
              core: 0.53}
    valence states:
      #              energy  rcut
      - 1s(1.00)    -6.494   0.476
      -  s          20.717   0.476
      -  p           0.000   0.476
  
    # Using partial waves for H as LCAO basis

  N:
    name: Nitrogen
    id: f7500608b86eaa90eef8b1d9a670dc53
    Z: 7.0
    valence: 5
    core: 2
    charge: 0.0
    file: /jet/home/vazumah/datasets/gpaw-setups-0.9.20000/N.PBE.gz
    compensation charges: {type: gauss,
                           rc: 0.18,
                           lmax: 2}
    cutoffs: {filter: 1.11,
              core: 0.96}
    valence states:
      #              energy  rcut
      - 2s(2.00)   -18.583   0.603
      - 2p(3.00)    -7.089   0.529
      -  s           8.629   0.603
      -  p          20.123   0.529
      -  d           0.000   0.577
  
    # Using partial waves for N as LCAO basis

Reference energy: -17528.314784  # eV

Spin-paired calculation

Convergence criteria:
 Maximum [total energy] change in last 3 cyles: 0.0005 eV / electron
 Maximum integral of absolute [dens]ity change: 0.0001 electrons / valence electron
 Maximum integral of absolute [eigenst]ate change: 4e-08 eV^2 / valence electron
 Maximum number of scf [iter]ations: 333
 (Square brackets indicate name in SCF output, whereas a 'c' in
 the SCF output indicates the quantity has converged.)

Symmetries present (total): 1

  ( 1  0  0)
  ( 0  1  0)
  ( 0  0  1)

16 k-points: 4 x 4 x 1 Monkhorst-Pack grid
8 k-points in the irreducible part of the Brillouin zone
       k-points in crystal coordinates                weights
   0:     0.12500000   -0.37500000    0.00000000          2/16
   1:     0.12500000   -0.12500000    0.00000000          2/16
   2:     0.12500000    0.12500000    0.00000000          2/16
   3:     0.12500000    0.37500000    0.00000000          2/16
   4:     0.37500000   -0.37500000    0.00000000          2/16
   5:     0.37500000   -0.12500000    0.00000000          2/16
   6:     0.37500000    0.12500000    0.00000000          2/16
   7:     0.37500000    0.37500000    0.00000000          2/16

Wave functions: Uniform real-space grid
  Kinetic energy operator: 6*3+1=19 point O(h^6) finite-difference Laplacian
  ScaLapack parameters: grid=1x1, blocksize=None
  Wavefunction extrapolation:
    Improved wavefunction reuse through dual PAW basis 

Occupation numbers: Fermi-Dirac:
  width: 0.0500  # eV
 

Eigensolver
   Davidson(niter=2) 

Densities:
  Coarse grid: 60*60*176 grid
  Fine grid: 120*120*352 grid
  Total Charge: 0.000000 

Density mixing:
  Method: separate
  Backend: pulay
  Linear mixing parameter: 0.05
  old densities: 5
  Damping of long wavelength oscillations: 50 

Hamiltonian:
  XC and Coulomb potentials evaluated on a 120*120*352 grid
  Using the BEEF-vdW Exchange-Correlation functional
  Interpolation: tri-quintic (5. degree polynomial)
  Poisson solver: FastPoissonSolver using
    Stencil: 6*3+1=19 point O(h^6) finite-difference Laplacian
    FFT axes: [0, 1]
    FST axes: [2]

Dipole correction along z-axis 

XC parameters: BEEF-vdW with 2 nearest neighbor stencil

Memory estimate:
  Process memory now: 129.64 MiB
  Calculator: 93.74 MiB
    Density: 23.40 MiB
      Arrays: 7.76 MiB
      Localized functions: 12.69 MiB
      Mixer: 2.95 MiB
    Hamiltonian: 6.08 MiB
      Arrays: 5.07 MiB
      XC: 0.00 MiB
      Poisson: 0.00 MiB
      vbar: 1.00 MiB
    Wavefunctions: 64.26 MiB
      Arrays psit_nG: 30.12 MiB
      Eigensolver: 33.47 MiB
      Projections: 0.02 MiB
      Projectors: 0.67 MiB

Total number of cores used: 128
Parallelization over k-points: 8
Domain decomposition: 2 x 2 x 4

Number of atoms: 51
Number of atomic orbitals: 180
Number of bands in calculation: 51
Number of valence electrons: 78
Bands to converge: occupied

... initialized

Initializing position-dependent things.

Density initialized from atomic densities
Creating initial wave functions:
  51 bands from LCAO basis set

       .-----------------------.  
      /|                       |  
     / |                       |  
    /  |                       |  
   /   |                       |  
  /    |                       |  
 *     |                       |  
 |     |                       |  
 |     |                       |  
 |     |                       |  
 |     |                       |  
 |O H  |                       |  
 |     |                       |  
 |C    |               H       |  
 | H H |                H C    |  
 |     |                       |  
 |     |                 C     |  
 |OH   |               H       |  
 |   Li|     Li      Li        |  
 |H    |  Li      Li   N  Li   |  
 | Li  |   Li      Li          |  
 |     |Li      Li      Li     |  
 Li    | Li      Li            |  
 |   LLi     LLi     LLi       |  
 |     |  Li      Li      Li   |  
 | Li  |   Li      Li          |  
 |     |Li      Li      Li     |  
 Li    | Li      Li            |  
 |    Li      Li      Li       |  
 |     |                       |  
 |     |                       |  
 |     |                       |  
 |     |                       |  
 |     |                       |  
 |     |                       |  
 |     .-----------------------.  
 |    /                       /   
 |   /                       /    
 |  /                       /     
 | /                       /      
 |/                       /       
 *-----------------------*        

Positions:
   0 Li     1.617037    1.617037   10.000000    ( 0.0000,  0.0000,  0.0000)
   1 Li     4.851111    1.617037   10.000000    ( 0.0000,  0.0000,  0.0000)
   2 Li     8.085185    1.617037   10.000000    ( 0.0000,  0.0000,  0.0000)
   3 Li     1.617037    4.851111   10.000000    ( 0.0000,  0.0000,  0.0000)
   4 Li     4.851111    4.851111   10.000000    ( 0.0000,  0.0000,  0.0000)
   5 Li     8.085185    4.851111   10.000000    ( 0.0000,  0.0000,  0.0000)
   6 Li     1.617037    8.085185   10.000000    ( 0.0000,  0.0000,  0.0000)
   7 Li     4.851111    8.085185   10.000000    ( 0.0000,  0.0000,  0.0000)
   8 Li     8.085185    8.085185   10.000000    ( 0.0000,  0.0000,  0.0000)
   9 Li     0.000000    0.000000   11.617037    ( 0.0000,  0.0000,  0.0000)
  10 Li     3.234074    0.000000   11.617037    ( 0.0000,  0.0000,  0.0000)
  11 Li     6.468148    0.000000   11.617037    ( 0.0000,  0.0000,  0.0000)
  12 Li     0.000000    3.234074   11.617037    ( 0.0000,  0.0000,  0.0000)
  13 Li     3.234074    3.234074   11.617037    ( 0.0000,  0.0000,  0.0000)
  14 Li     6.468148    3.234074   11.617037    ( 0.0000,  0.0000,  0.0000)
  15 Li     0.000000    6.468148   11.617037    ( 0.0000,  0.0000,  0.0000)
  16 Li     3.234074    6.468148   11.617037    ( 0.0000,  0.0000,  0.0000)
  17 Li     6.468148    6.468148   11.617037    ( 0.0000,  0.0000,  0.0000)
  18 Li     1.617038    1.617038   13.469728    ( 0.0000,  0.0000,  0.0000)
  19 Li     4.851111    1.617038   13.469729    ( 0.0000,  0.0000,  0.0000)
  20 Li     8.085184    1.617038   13.469728    ( 0.0000,  0.0000,  0.0000)
  21 Li     1.617038    4.851111   13.469729    ( 0.0000,  0.0000,  0.0000)
  22 Li     4.851111    4.851111   13.469730    ( 0.0000,  0.0000,  0.0000)
  23 Li     8.085184    4.851111   13.469729    ( 0.0000,  0.0000,  0.0000)
  24 Li     1.617038    8.085184   13.469728    ( 0.0000,  0.0000,  0.0000)
  25 Li     4.851111    8.085184   13.469729    ( 0.0000,  0.0000,  0.0000)
  26 Li     8.085184    8.085184   13.469728    ( 0.0000,  0.0000,  0.0000)
  27 Li    -0.000000   -0.000000   15.445939    ( 0.0000,  0.0000,  0.0000)
  28 Li     3.234074    0.000000   15.445939    ( 0.0000,  0.0000,  0.0000)
  29 Li     6.468148    0.000000   15.445939    ( 0.0000,  0.0000,  0.0000)
  30 Li     0.000000    3.234074   15.445939    ( 0.0000,  0.0000,  0.0000)
  31 Li     3.234076    3.234076   15.445938    ( 0.0000,  0.0000,  0.0000)
  32 Li     6.468146    3.234076   15.445938    ( 0.0000,  0.0000,  0.0000)
  33 Li     0.000000    6.468148   15.445939    ( 0.0000,  0.0000,  0.0000)
  34 Li     3.234076    6.468146   15.445938    ( 0.0000,  0.0000,  0.0000)
  35 Li     6.468146    6.468146   15.445938    ( 0.0000,  0.0000,  0.0000)
  36 O      0.000000    1.617037   18.445939    ( 0.0000,  0.0000,  0.0000)
  37 O      0.006110    1.596708   23.308281    ( 0.0000,  0.0000,  0.0000)
  38 C     -0.014447    1.615492   20.841854    ( 0.0000,  0.0000,  0.0000)
  39 C     -0.002879    0.749217   19.590809    ( 0.0000,  0.0000,  0.0000)
  40 C      0.009482    0.785225   22.124471    ( 0.0000,  0.0000,  0.0000)
  41 H      0.860213    2.275999   20.819771    ( 0.0000,  0.0000,  0.0000)
  42 H     -0.902452    2.252603   20.841713    ( 0.0000,  0.0000,  0.0000)
  43 H      0.890669    0.108959   19.585879    ( 0.0000,  0.0000,  0.0000)
  44 H     -0.889564    0.100540   19.577267    ( 0.0000,  0.0000,  0.0000)
  45 H      0.876805    0.109659   22.125172    ( 0.0000,  0.0000,  0.0000)
  46 H     -0.890621    0.169134   22.201319    ( 0.0000,  0.0000,  0.0000)
  47 H      0.004867    1.072680   17.650414    ( 0.0000,  0.0000,  0.0000)
  48 H      0.780627    2.171748   23.275699    ( 0.0000,  0.0000,  0.0000)
  49 N      0.000000    1.617000   16.945939    ( 0.0000,  0.0000,  0.0000)
  50 N     -1.096622    1.617000   16.945939    ( 0.0000,  0.0000,  0.0000)

Unit cell:
           periodic     x           y           z      points  spacing
  1. axis:    yes    9.702222    0.000000    0.000000    60     0.1617
  2. axis:    yes    0.000000    9.702222    0.000000    60     0.1617
  3. axis:    no     0.000000    0.000000   28.351111   176     0.1611

  Lengths:   9.702222   9.702222  28.351111
  Angles:   90.000000  90.000000  90.000000

Effective grid spacing dv^(1/3) = 0.1615

     iter     time        total  log10-change:
                         energy  eigst   dens
iter:   1 21:52:42  -815.463329
iter:   2 21:52:50   115.614710  +2.69  +0.05
iter:   3 21:52:58   178.809627  +3.38  -0.12
iter:   4 21:53:06  -230.132468  +3.48  -0.21
Writing to output.gpw (mode='')

iter:   5 21:53:13  -313.020276  +2.91  -0.21
iter:   6 21:53:21  -317.037846  +2.48  -0.40
iter:   7 21:53:29  -351.858912  +2.17  -0.55
iter:   8 21:53:37  -369.843982  +2.08  -0.52
iter:   9 21:53:45  -463.684760  +2.30  -0.49
Writing to output.gpw (mode='')

iter:  10 21:53:53  -352.513715  +1.89  -0.38
iter:  11 21:54:00  -361.437201  +1.36  -0.66
iter:  12 21:54:08  -357.210881  +1.05  -0.64
iter:  13 21:54:16  -357.112333  +1.28  -0.68
iter:  14 21:54:24  -361.792373  +1.67  -0.62
Writing to output.gpw (mode='')

iter:  15 21:54:32  -353.709239  +0.78  -0.61
iter:  16 21:54:40  -349.114034  +0.47  -0.69
iter:  17 21:54:48  -346.654073  +0.92  -0.77
iter:  18 21:54:55  -345.141426  +1.00  -0.83
iter:  19 21:55:03  -343.265076  +0.30  -0.86
Writing to output.gpw (mode='')

iter:  20 21:55:11  -343.399000  -0.07  -0.95
iter:  21 21:55:19  -343.444285  -0.44  -0.94
iter:  22 21:55:26  -342.585830  -0.47  -0.94
iter:  23 21:55:34  -341.765657  +0.05  -1.03
iter:  24 21:55:42  -341.953269  +0.14  -1.28
Writing to output.gpw (mode='')

iter:  25 21:55:50  -341.697709  -0.49  -1.23
iter:  26 21:55:58  -341.575734  -0.15  -1.32
iter:  27 21:56:11  -341.461919  -0.32  -1.37
iter:  28 21:56:19  -341.370296  -0.94  -1.57
iter:  29 21:56:27  -341.347946  -0.75  -1.70
Writing to output.gpw (mode='')

iter:  30 21:56:35  -341.338992c -1.35  -1.89
iter:  31 21:56:43  -341.326257c -1.57  -1.99
iter:  32 21:56:50  -341.316029c -1.63  -2.12
iter:  33 21:56:58  -341.316139c -1.90  -2.20
iter:  34 21:57:06  -341.315559c -1.96  -2.27
Writing to output.gpw (mode='')

iter:  35 21:57:14  -341.316019c -2.04  -2.28
iter:  36 21:57:22  -341.318178c -2.08  -2.46
iter:  37 21:57:30  -341.318547c -2.16  -2.43
iter:  38 21:57:38  -341.319339c -2.40  -2.57
iter:  39 21:57:46  -341.319641c -2.52  -2.59
Writing to output.gpw (mode='')

iter:  40 21:57:54  -341.320221c -2.65  -2.65
iter:  41 21:58:01  -341.320148c -2.87  -2.88
iter:  42 21:58:09  -341.320155c -2.60  -3.00
iter:  43 21:58:18  -341.320694c -2.68  -3.13
iter:  44 21:58:27  -341.320760c -3.02  -3.14
Writing to output.gpw (mode='')

iter:  45 21:58:37  -341.320938c -3.03  -3.21
iter:  46 21:58:47  -341.321042c -3.34  -3.39
iter:  47 21:58:55  -341.321087c -3.38  -3.37
iter:  48 21:59:03  -341.321226c -3.23  -3.44
iter:  49 21:59:11  -341.321271c -3.67  -3.69
Writing to output.gpw (mode='')

iter:  50 21:59:19  -341.321312c -3.71  -3.71
iter:  51 21:59:27  -341.321359c -3.78  -3.78
iter:  52 21:59:34  -341.321430c -3.66  -3.94
iter:  53 21:59:42  -341.321431c -3.99  -3.81
iter:  54 21:59:50  -341.321447c -3.99  -3.98
Writing to output.gpw (mode='')

iter:  55 21:59:58  -341.321464c -3.83  -4.00
iter:  56 22:00:06  -341.321484c -4.31  -4.05c
iter:  57 22:00:14  -341.321499c -4.21  -4.06c
iter:  58 22:00:22  -341.321524c -4.15  -4.07c
iter:  59 22:00:29  -341.321525c -4.46  -4.13c
Writing to output.gpw (mode='')

iter:  60 22:00:37  -341.321528c -4.64  -4.25c
iter:  61 22:00:45  -341.321530c -4.54  -4.25c
iter:  62 22:00:53  -341.321538c -4.55  -4.24c
iter:  63 22:01:06  -341.321541c -4.64  -4.28c
iter:  64 22:01:15  -341.321543c -4.55  -4.29c
Writing to output.gpw (mode='')

iter:  65 22:01:23  -341.321551c -4.92  -4.34c
iter:  66 22:01:31  -341.321550c -5.01  -4.44c
iter:  67 22:01:39  -341.321551c -5.15  -4.59c
iter:  68 22:01:47  -341.321554c -5.15  -4.86c
iter:  69 22:01:55  -341.321557c -4.94  -4.97c
Writing to output.gpw (mode='')

iter:  70 22:02:03  -341.321557c -5.19  -5.03c
iter:  71 22:02:11  -341.321557c -5.30  -5.13c
iter:  72 22:02:18  -341.321558c -5.18  -5.19c
iter:  73 22:02:26  -341.321559c -5.28  -5.24c
iter:  74 22:02:34  -341.321559c -5.46  -5.21c
Writing to output.gpw (mode='')

iter:  75 22:02:42  -341.321560c -5.31  -5.15c
iter:  76 22:02:50  -341.321560c -5.63  -5.04c
iter:  77 22:02:58  -341.321561c -5.72  -5.00c
iter:  78 22:03:06  -341.321561c -5.74  -4.99c
iter:  79 22:03:14  -341.321561c -5.71  -4.99c
Writing to output.gpw (mode='')

iter:  80 22:03:22  -341.321561c -5.90  -5.03c
iter:  81 22:03:29  -341.321560c -5.92  -4.98c
iter:  82 22:03:37  -341.321560c -6.10  -4.88c
iter:  83 22:03:48  -341.321561c -6.03  -4.97c
iter:  84 22:03:56  -341.321561c -6.25  -5.28c
Writing to output.gpw (mode='')

iter:  85 22:04:04  -341.321561c -6.05  -5.30c
iter:  86 22:04:12  -341.321561c -6.31  -5.45c
iter:  87 22:04:19  -341.321561c -6.39  -5.46c
iter:  88 22:04:27  -341.321561c -6.31  -5.47c
iter:  89 22:04:35  -341.321561c -6.43  -5.48c
Writing to output.gpw (mode='')

iter:  90 22:04:43  -341.321561c -6.44  -5.54c
iter:  91 22:04:51  -341.321561c -6.48  -5.67c
iter:  92 22:04:59  -341.321561c -6.55  -5.72c
iter:  93 22:05:07  -341.321561c -6.63  -5.87c
iter:  94 22:05:14  -341.321561c -6.76  -6.09c
Writing to output.gpw (mode='')

iter:  95 22:05:22  -341.321561c -6.80  -6.14c
iter:  96 22:05:30  -341.321561c -6.82  -6.13c
iter:  97 22:05:38  -341.321561c -6.81  -6.08c
iter:  98 22:05:46  -341.321561c -6.80  -6.04c
iter:  99 22:05:54  -341.321561c -6.93  -6.09c
Writing to output.gpw (mode='')

iter: 100 22:06:07  -341.321561c -6.91  -6.07c
iter: 101 22:06:15  -341.321561c -6.88  -6.09c
iter: 102 22:06:23  -341.321561c -6.91  -6.07c
iter: 103 22:06:31  -341.321561c -7.04  -6.06c
iter: 104 22:06:39  -341.321561c -7.15  -6.04c
Writing to output.gpw (mode='')

iter: 105 22:06:47  -341.321561c -7.15  -6.09c
iter: 106 22:06:55  -341.321561c -7.14  -6.16c
iter: 107 22:07:03  -341.321561c -7.14  -6.23c
iter: 108 22:07:10  -341.321561c -7.29  -6.19c
iter: 109 22:07:18  -341.321561c -7.31  -6.24c
Writing to output.gpw (mode='')

iter: 110 22:07:26  -341.321561c -7.32  -6.27c
iter: 111 22:07:34  -341.321561c -7.39  -6.28c
iter: 112 22:07:42  -341.321561c -7.47c -6.35c

Converged after 112 iterations.

Dipole moment: (-25.392661, -17.118613, -0.094530) |e|*Ang

Energy contributions relative to reference atoms: (reference = -17528.314784)

Kinetic:       +232.319522
Potential:     -207.256009
External:        +0.000000
XC:            -367.456883
Entropy (-ST):   -0.166366
Local:           +1.154991
--------------------------
Free energy:   -341.404744
Extrapolated:  -341.321561

Dipole-layer corrected work functions: 3.398301, 3.580020 eV

Showing only first 2 kpts
 Kpt  Band  Eigenvalues  Occupancy
  0    37     -3.73392    1.98515
  0    38     -3.56775    1.65606
  0    39     -3.43943    0.54004
  0    40     -3.24339    0.01456

  1    37     -3.55054    1.54679
  1    38     -3.47931    0.90182
  1    39     -3.41187    0.35140
  1    40     -3.37089    0.17170


Fermi level: -3.48916

No gap
Writing to output.gpw (mode='')


Forces in eV/Ang:
  0 Li    0.02350   -0.00097   -0.28120
  1 Li   -0.01340    0.00239   -0.27281
  2 Li   -0.01074    0.00102   -0.28203
  3 Li   -0.00269    0.01611   -0.27702
  4 Li   -0.00209   -0.00225   -0.27666
  5 Li    0.00422    0.02214   -0.27392
  6 Li   -0.00461   -0.01461   -0.28113
  7 Li   -0.00249    0.00204   -0.27418
  8 Li    0.00846   -0.02435   -0.27511
  9 Li   -0.00285    0.01037    0.32457
 10 Li    0.00590   -0.00025    0.25044
 11 Li   -0.00373    0.00779    0.28935
 12 Li   -0.00160   -0.00846    0.32124
 13 Li    0.01420   -0.00443    0.24887
 14 Li   -0.00891   -0.00593    0.28608
 15 Li   -0.00698    0.00038    0.23261
 16 Li   -0.00951    0.00028    0.25789
 17 Li    0.01596   -0.00160    0.25329
 18 Li    0.05293    0.00652   -0.11215
 19 Li   -0.01284   -0.00208    0.05019
 20 Li   -0.01189    0.00709   -0.13522
 21 Li   -0.01939   -0.03267    0.04781
 22 Li    0.00331    0.00194    0.03641
 23 Li    0.01323   -0.01565    0.03754
 24 Li   -0.02557    0.02870    0.06796
 25 Li    0.01648    0.00131    0.04293
 26 Li    0.01079    0.01362    0.04334
 27 Li   -0.02295   -0.03350   -0.07823
 28 Li    0.05833   -0.04436   -0.04678
 29 Li    0.01514   -0.01268    0.07200
 30 Li   -0.08683   -0.05835    0.18993
 31 Li    0.03624    0.03455   -0.03538
 32 Li    0.05826    0.00471    0.10450
 33 Li   -0.00012    0.01932   -0.02892
 34 Li   -0.02039    0.00822   -0.01529
 35 Li    0.02244    0.00511   -0.01616
 36 O     3.04274    3.75221   20.46662
 37 O    -0.01489   -0.07709   -0.08185
 38 C     0.03317    0.03320    0.17384
 39 C     0.92238   -0.59626    1.17610
 40 C     0.00663   -0.00728    0.10141
 41 H     0.00117   -0.01448   -0.02294
 42 H    -0.00506    0.00727   -0.02627
 43 H    -0.03473   -0.05038    0.03041
 44 H    -0.04845    0.04906   -0.22022
 45 H    -0.01664    0.01587    0.00608
 46 H     0.03565    0.01036   -0.00032
 47 H     2.74567  -12.99819    8.35395
 48 H     0.00621   -0.01392    0.02705
 49 N     8.93606    7.97322  -21.97827
 50 N   -15.71343    1.91805   -8.18463

System changes: positions 

Initializing position-dependent things.

Density initialized from wave functions
       .-----------------------.  
      /|                       |  
     / |                       |  
    /  |                       |  
   /   |                       |  
  /    |                       |  
 *     |                       |  
 |     |                       |  
 |     |                       |  
 |     |                       |  
 |     |                       |  
 |O H  |                       |  
 |     |                       |  
 |C    |               H       |  
 | H H |                H C    |  
 |     |                       |  
 |     |       Li      LiC     Li 
 |OH   |               H       |  
 |     |     Li      Li      Li|  
 |H    |  Li      Li   N  Li   |  
 |     |   Li      Li      Li  |  
 |     |Li      Li      Li     |  
 |     |                       |  
 |   LLi     LLi     LLi       |  
 |     |  Li      Li      Li   |  
 | Li  |   Li      Li          |  
 |     |Li      Li      Li     |  
 Li    | Li      Li            |  
 |    Li      Li      Li       |  
 |     |                       |  
 |     |                       |  
 |     |                       |  
 |     |                       |  
 |     |                       |  
 |     |                       |  
 |     .-----------------------.  
 |    /                       /   
 |   /                       /    
 |  /                       /     
 | /                       /      
 |/                       /       
 *-----------------------*        

Positions:
   0 Li     1.617037    1.617037   10.000000    ( 0.0000,  0.0000,  0.0000)
   1 Li     4.851111    1.617037   10.000000    ( 0.0000,  0.0000,  0.0000)
   2 Li     8.085185    1.617037   10.000000    ( 0.0000,  0.0000,  0.0000)
   3 Li     1.617037    4.851111   10.000000    ( 0.0000,  0.0000,  0.0000)
   4 Li     4.851111    4.851111   10.000000    ( 0.0000,  0.0000,  0.0000)
   5 Li     8.085185    4.851111   10.000000    ( 0.0000,  0.0000,  0.0000)
   6 Li     1.617037    8.085185   10.000000    ( 0.0000,  0.0000,  0.0000)
   7 Li     4.851111    8.085185   10.000000    ( 0.0000,  0.0000,  0.0000)
   8 Li     8.085185    8.085185   10.000000    ( 0.0000,  0.0000,  0.0000)
   9 Li     0.000000    0.000000   11.617037    ( 0.0000,  0.0000,  0.0000)
  10 Li     3.234074    0.000000   11.617037    ( 0.0000,  0.0000,  0.0000)
  11 Li     6.468148    0.000000   11.617037    ( 0.0000,  0.0000,  0.0000)
  12 Li     0.000000    3.234074   11.617037    ( 0.0000,  0.0000,  0.0000)
  13 Li     3.234074    3.234074   11.617037    ( 0.0000,  0.0000,  0.0000)
  14 Li     6.468148    3.234074   11.617037    ( 0.0000,  0.0000,  0.0000)
  15 Li     0.000000    6.468148   11.617037    ( 0.0000,  0.0000,  0.0000)
  16 Li     3.234074    6.468148   11.617037    ( 0.0000,  0.0000,  0.0000)
  17 Li     6.468148    6.468148   11.617037    ( 0.0000,  0.0000,  0.0000)
  18 Li     1.617123    1.617049   13.469549    ( 0.0000,  0.0000,  0.0000)
  19 Li     4.851090    1.617035   13.469810    ( 0.0000,  0.0000,  0.0000)
  20 Li     8.085165    1.617049   13.469512    ( 0.0000,  0.0000,  0.0000)
  21 Li     1.617007    4.851059   13.469806    ( 0.0000,  0.0000,  0.0000)
  22 Li     4.851116    4.851114   13.469788    ( 0.0000,  0.0000,  0.0000)
  23 Li     8.085205    4.851086   13.469789    ( 0.0000,  0.0000,  0.0000)
  24 Li     1.616997    8.085230   13.469836    ( 0.0000,  0.0000,  0.0000)
  25 Li     4.851137    8.085186   13.469798    ( 0.0000,  0.0000,  0.0000)
  26 Li     8.085201    8.085206   13.469797    ( 0.0000,  0.0000,  0.0000)
  27 Li    -0.000037   -0.000054   15.445814    ( 0.0000,  0.0000,  0.0000)
  28 Li     3.234167   -0.000071   15.445864    ( 0.0000,  0.0000,  0.0000)
  29 Li     6.468172   -0.000020   15.446054    ( 0.0000,  0.0000,  0.0000)
  30 Li    -0.000139    3.233980   15.446242    ( 0.0000,  0.0000,  0.0000)
  31 Li     3.234134    3.234132   15.445882    ( 0.0000,  0.0000,  0.0000)
  32 Li     6.468239    3.234084   15.446105    ( 0.0000,  0.0000,  0.0000)
  33 Li    -0.000000    6.468179   15.445893    ( 0.0000,  0.0000,  0.0000)
  34 Li     3.234044    6.468159   15.445914    ( 0.0000,  0.0000,  0.0000)
  35 Li     6.468181    6.468154   15.445912    ( 0.0000,  0.0000,  0.0000)
  36 O      0.004863    1.623033   18.478648    ( 0.0000,  0.0000,  0.0000)
  37 O      0.006086    1.596585   23.308150    ( 0.0000,  0.0000,  0.0000)
  38 C     -0.014394    1.615545   20.842132    ( 0.0000,  0.0000,  0.0000)
  39 C     -0.001404    0.748265   19.592689    ( 0.0000,  0.0000,  0.0000)
  40 C      0.009493    0.785213   22.124633    ( 0.0000,  0.0000,  0.0000)
  41 H      0.860215    2.275976   20.819735    ( 0.0000,  0.0000,  0.0000)
  42 H     -0.902460    2.252615   20.841671    ( 0.0000,  0.0000,  0.0000)
  43 H      0.890613    0.108878   19.585928    ( 0.0000,  0.0000,  0.0000)
  44 H     -0.889642    0.100618   19.576915    ( 0.0000,  0.0000,  0.0000)
  45 H      0.876778    0.109685   22.125181    ( 0.0000,  0.0000,  0.0000)
  46 H     -0.890564    0.169151   22.201319    ( 0.0000,  0.0000,  0.0000)
  47 H      0.009255    1.051907   17.663765    ( 0.0000,  0.0000,  0.0000)
  48 H      0.780637    2.171725   23.275742    ( 0.0000,  0.0000,  0.0000)
  49 N      0.014281    1.629742   16.910815    ( 0.0000,  0.0000,  0.0000)
  50 N     -1.121734    1.620065   16.932859    ( 0.0000,  0.0000,  0.0000)

Unit cell:
           periodic     x           y           z      points  spacing
  1. axis:    yes    9.702222    0.000000    0.000000    60     0.1617
  2. axis:    yes    0.000000    9.702222    0.000000    60     0.1617
  3. axis:    no     0.000000    0.000000   28.351111   176     0.1611

  Lengths:   9.702222   9.702222  28.351111
  Angles:   90.000000  90.000000  90.000000

Effective grid spacing dv^(1/3) = 0.1615

     iter     time        total  log10-change:
                         energy  eigst   dens
iter:   1 22:07:52  -344.705427  -0.39
iter:   2 22:07:59  -343.890192  -0.62  -1.41
iter:   3 22:08:08  -343.732840  -0.89  -1.41
iter:   4 22:08:16  -343.798926  -0.74  -1.64
Writing to output.gpw (mode='')

iter:   5 22:08:24  -343.613093  -1.32  -1.68
iter:   6 22:08:32  -343.927797  -0.68  -1.99
iter:   7 22:08:40  -343.568667  -1.33  -1.59
iter:   8 22:08:48  -343.567709  -2.09  -2.26
iter:   9 22:08:56  -343.565223c -2.12  -2.33
Writing to output.gpw (mode='')

iter:  10 22:09:04  -343.567739c -1.90  -2.48
iter:  11 22:09:12  -343.564671c -2.74  -2.43
iter:  12 22:09:20  -343.564259c -2.73  -2.59
iter:  13 22:09:28  -343.564144c -2.98  -2.91
iter:  14 22:09:36  -343.564555c -3.12  -3.00
Writing to output.gpw (mode='')

iter:  15 22:09:44  -343.564268c -3.13  -3.00
iter:  16 22:09:52  -343.564372c -3.72  -3.06
iter:  17 22:10:00  -343.564441c -3.74  -3.14
iter:  18 22:10:08  -343.564395c -3.85  -3.23
iter:  19 22:10:16  -343.564464c -3.92  -3.43
Writing to output.gpw (mode='')

iter:  20 22:10:24  -343.564469c -4.19  -3.61
iter:  21 22:10:32  -343.564461c -4.32  -3.65
iter:  22 22:10:40  -343.564481c -4.57  -3.75
iter:  23 22:10:48  -343.564499c -4.71  -3.74
iter:  24 22:10:56  -343.564480c -4.77  -3.78
Writing to output.gpw (mode='')

iter:  25 22:11:11  -343.564469c -4.73  -3.83
iter:  26 22:11:19  -343.564500c -4.95  -4.06c
iter:  27 22:11:27  -343.564491c -4.91  -3.99
iter:  28 22:11:35  -343.564476c -4.98  -4.11c
iter:  29 22:11:43  -343.564481c -5.44  -4.23c
Writing to output.gpw (mode='')

iter:  30 22:11:51  -343.564476c -5.33  -4.30c
iter:  31 22:11:59  -343.564481c -5.50  -4.43c
iter:  32 22:12:07  -343.564484c -5.50  -4.59c
iter:  33 22:12:15  -343.564484c -5.59  -4.58c
iter:  34 22:12:23  -343.564480c -5.84  -4.64c
Writing to output.gpw (mode='')

iter:  35 22:12:31  -343.564482c -6.06  -4.75c
iter:  36 22:12:39  -343.564484c -6.10  -4.84c
iter:  37 22:12:47  -343.564484c -6.04  -5.00c
iter:  38 22:12:55  -343.564484c -6.16  -5.03c
iter:  39 22:13:03  -343.564483c -6.23  -5.07c
Writing to output.gpw (mode='')

iter:  40 22:13:11  -343.564483c -6.43  -5.14c
iter:  41 22:13:19  -343.564483c -6.58  -5.21c
iter:  42 22:13:27  -343.564483c -6.58  -5.23c
iter:  43 22:13:35  -343.564483c -6.87  -5.37c
iter:  44 22:13:43  -343.564483c -6.93  -5.49c
Writing to output.gpw (mode='')

iter:  45 22:13:51  -343.564483c -6.81  -5.54c
iter:  46 22:13:59  -343.564482c -7.04  -5.59c
iter:  47 22:14:07  -343.564483c -7.23  -5.59c
iter:  48 22:14:15  -343.564483c -7.41c -5.57c

Converged after 48 iterations.

Dipole moment: (-27.435897, -17.010091, -0.180868) |e|*Ang

Energy contributions relative to reference atoms: (reference = -17528.314784)

Kinetic:       +220.080111
Potential:     -199.180300
External:        +0.000000
XC:            -365.534937
Entropy (-ST):   -0.169194
Local:           +1.155241
--------------------------
Free energy:   -343.649080
Extrapolated:  -343.564483

Dipole-layer corrected work functions: 3.402175, 3.749865 eV

Showing only first 2 kpts
 Kpt  Band  Eigenvalues  Occupancy
  0    37     -3.81984    1.98487
  0    38     -3.64457    1.59509
  0    39     -3.54171    0.66975
  0    40     -3.32579    0.01333

  1    37     -3.64331    1.58689
  1    38     -3.56056    0.84661
  1    39     -3.49108    0.30926
  1    40     -3.45646    0.16770


Fermi level: -3.57602

No gap
Writing to output.gpw (mode='')


Forces in eV/Ang:
  0 Li    0.02155   -0.00114   -0.28190
  1 Li   -0.01223    0.00220   -0.27224
  2 Li   -0.01026    0.00102   -0.28285
  3 Li   -0.00201    0.01721   -0.27808
  4 Li   -0.00213   -0.00088   -0.27732
  5 Li    0.00410    0.02215   -0.27526
  6 Li   -0.00411   -0.01604   -0.28178
  7 Li   -0.00262    0.00042   -0.27464
  8 Li    0.00813   -0.02410   -0.27609
  9 Li   -0.00307    0.01035    0.32674
 10 Li    0.00591   -0.00043    0.25182
 11 Li   -0.00290    0.00863    0.29086
 12 Li   -0.00122   -0.00870    0.32334
 13 Li    0.01361   -0.00458    0.25082
 14 Li   -0.00838   -0.00621    0.28714
 15 Li   -0.00664    0.00031    0.23199
 16 Li   -0.00963    0.00133    0.25630
 17 Li    0.01523   -0.00239    0.25232
 18 Li    0.05413    0.00568   -0.11964
 19 Li   -0.01417   -0.00161    0.04854
 20 Li   -0.01231    0.00755   -0.13197
 21 Li   -0.01969   -0.02969    0.04372
 22 Li    0.00309    0.00116    0.03796
 23 Li    0.01285   -0.01243    0.03115
 24 Li   -0.02561    0.02743    0.06542
 25 Li    0.01668    0.00235    0.04316
 26 Li    0.01082    0.01066    0.03941
 27 Li   -0.03813    0.00021   -0.01538
 28 Li    0.05576   -0.04850   -0.04268
 29 Li    0.02841   -0.00169    0.09100
 30 Li   -0.10464   -0.08654    0.25282
 31 Li    0.03349    0.03758   -0.02990
 32 Li    0.07513   -0.00851    0.12451
 33 Li    0.00243    0.01989   -0.03294
 34 Li   -0.01848    0.00784   -0.01645
 35 Li    0.01843    0.00619   -0.01872
 36 O     2.25667    2.48182   16.04428
 37 O    -0.01006   -0.07141   -0.04244
 38 C     0.04092   -0.10158    0.37539
 39 C     0.80314   -0.41171    1.30420
 40 C     0.00384    0.03831    0.09508
 41 H     0.00485   -0.01785   -0.03132
 42 H    -0.00608   -0.00159   -0.04038
 43 H     0.03562   -0.11734    0.07027
 44 H    -0.05298    0.00699   -0.17784
 45 H    -0.01271    0.01193    0.00766
 46 H     0.03265    0.00755    0.00154
 47 H     2.28541   -8.66729    6.12244
 48 H    -0.00009   -0.01826    0.02385
 49 N     4.41334    5.20442  -17.32347
 50 N    -9.79909    1.70329   -6.76652

System changes: positions 

Initializing position-dependent things.

Density initialized from wave functions
       .-----------------------.  
      /|                       |  
     / |                       |  
    /  |                       |  
   /   |                       |  
  /    |                       |  
 *     |                       |  
 |     |                       |  
 |     |                       |  
 |     |                       |  
 |     |                       |  
 |O H  |                       |  
 |     |                       |  
 |C    |               H       |  
 | H H |                H C    |  
 |     |                       |  
 C     |       Li              |  
 |OH   |               H       |  
 |   Li|     Li      Li        |  
 |H    |  Li      Li   N  Li   |  
 |     |   Li      Li      Li  |  
 |     |Li      Li      Li     |  
 |     |         Li      Li    |  
 |   LLi     LLi     LLi       |  
 |     |  Li      Li      Li   |  
 | Li  |   Li      Li          |  
 |     |Li      Li      Li     |  
 Li    | Li      Li            |  
 |    Li      Li      Li       |  
 |     |                       |  
 |     |                       |  
 |     |                       |  
 |     |                       |  
 |     |                       |  
 |     |                       |  
 |     .-----------------------.  
 |    /                       /   
 |   /                       /    
 |  /                       /     
 | /                       /      
 |/                       /       
 *-----------------------*        

Positions:
   0 Li     1.617037    1.617037   10.000000    ( 0.0000,  0.0000,  0.0000)
   1 Li     4.851111    1.617037   10.000000    ( 0.0000,  0.0000,  0.0000)
   2 Li     8.085185    1.617037   10.000000    ( 0.0000,  0.0000,  0.0000)
   3 Li     1.617037    4.851111   10.000000    ( 0.0000,  0.0000,  0.0000)
   4 Li     4.851111    4.851111   10.000000    ( 0.0000,  0.0000,  0.0000)
   5 Li     8.085185    4.851111   10.000000    ( 0.0000,  0.0000,  0.0000)
   6 Li     1.617037    8.085185   10.000000    ( 0.0000,  0.0000,  0.0000)
   7 Li     4.851111    8.085185   10.000000    ( 0.0000,  0.0000,  0.0000)
   8 Li     8.085185    8.085185   10.000000    ( 0.0000,  0.0000,  0.0000)
   9 Li     0.000000    0.000000   11.617037    ( 0.0000,  0.0000,  0.0000)
  10 Li     3.234074    0.000000   11.617037    ( 0.0000,  0.0000,  0.0000)
  11 Li     6.468148    0.000000   11.617037    ( 0.0000,  0.0000,  0.0000)
  12 Li     0.000000    3.234074   11.617037    ( 0.0000,  0.0000,  0.0000)
  13 Li     3.234074    3.234074   11.617037    ( 0.0000,  0.0000,  0.0000)
  14 Li     6.468148    3.234074   11.617037    ( 0.0000,  0.0000,  0.0000)
  15 Li     0.000000    6.468148   11.617037    ( 0.0000,  0.0000,  0.0000)
  16 Li     3.234074    6.468148   11.617037    ( 0.0000,  0.0000,  0.0000)
  17 Li     6.468148    6.468148   11.617037    ( 0.0000,  0.0000,  0.0000)
  18 Li     1.617342    1.617065   13.469032    ( 0.0000,  0.0000,  0.0000)
  19 Li     4.851027    1.617032   13.469989    ( 0.0000,  0.0000,  0.0000)
  20 Li     8.085114    1.617082   13.469015    ( 0.0000,  0.0000,  0.0000)
  21 Li     1.616928    4.850961   13.469951    ( 0.0000,  0.0000,  0.0000)
  22 Li     4.851127    4.851114   13.469947    ( 0.0000,  0.0000,  0.0000)
  23 Li     8.085253    4.851058   13.469871    ( 0.0000,  0.0000,  0.0000)
  24 Li     1.616897    8.085329   13.470077    ( 0.0000,  0.0000,  0.0000)
  25 Li     4.851204    8.085202   13.469969    ( 0.0000,  0.0000,  0.0000)
  26 Li     8.085244    8.085229   13.469927    ( 0.0000,  0.0000,  0.0000)
  27 Li    -0.000283    0.000162   15.446155    ( 0.0000,  0.0000,  0.0000)
  28 Li     3.234369   -0.000287   15.445723    ( 0.0000,  0.0000,  0.0000)
  29 Li     6.468368    0.000043   15.446532    ( 0.0000,  0.0000,  0.0000)
  30 Li    -0.000662    3.233462   15.447634    ( 0.0000,  0.0000,  0.0000)
  31 Li     3.234248    3.234298   15.445799    ( 0.0000,  0.0000,  0.0000)
  32 Li     6.468641    3.233966   15.446720    ( 0.0000,  0.0000,  0.0000)
  33 Li     0.000026    6.468261   15.445738    ( 0.0000,  0.0000,  0.0000)
  34 Li     3.233984    6.468187   15.445842    ( 0.0000,  0.0000,  0.0000)
  35 Li     6.468228    6.468185   15.445823    ( 0.0000,  0.0000,  0.0000)
  36 O      0.008693    1.624659   18.513319    ( 0.0000,  0.0000,  0.0000)
  37 O      0.006078    1.596341   23.308235    ( 0.0000,  0.0000,  0.0000)
  38 C     -0.014184    1.614288   20.844887    ( 0.0000,  0.0000,  0.0000)
  39 C      0.000982    0.747828   19.598615    ( 0.0000,  0.0000,  0.0000)
  40 C      0.009490    0.785654   22.124965    ( 0.0000,  0.0000,  0.0000)
  41 H      0.860258    2.275884   20.819559    ( 0.0000,  0.0000,  0.0000)
  42 H     -0.902490    2.252552   20.841423    ( 0.0000,  0.0000,  0.0000)
  43 H      0.891201    0.107992   19.586457    ( 0.0000,  0.0000,  0.0000)
  44 H     -0.889878    0.100378   19.576489    ( 0.0000,  0.0000,  0.0000)
  45 H      0.876754    0.109706   22.125221    ( 0.0000,  0.0000,  0.0000)
  46 H     -0.890455    0.169162   22.201337    ( 0.0000,  0.0000,  0.0000)
  47 H      0.015275    1.045556   17.673528    ( 0.0000,  0.0000,  0.0000)
  48 H      0.780597    2.171626   23.275815    ( 0.0000,  0.0000,  0.0000)
  49 N      0.002742    1.632483   16.872614    ( 0.0000,  0.0000,  0.0000)
  50 N     -1.122425    1.625370   16.915388    ( 0.0000,  0.0000,  0.0000)

Unit cell:
           periodic     x           y           z      points  spacing
  1. axis:    yes    9.702222    0.000000    0.000000    60     0.1617
  2. axis:    yes    0.000000    9.702222    0.000000    60     0.1617
  3. axis:    no     0.000000    0.000000   28.351111   176     0.1611

  Lengths:   9.702222   9.702222  28.351111
  Angles:   90.000000  90.000000  90.000000

Effective grid spacing dv^(1/3) = 0.1615

     iter     time        total  log10-change:
                         energy  eigst   dens
iter:   1 22:14:24  -345.021082  -0.75
iter:   2 22:14:32  -344.976848  -0.99  -1.74
iter:   3 22:14:40  -344.939291  -1.61  -1.73
iter:   4 22:14:48  -344.910430  -1.58  -2.02
Writing to output.gpw (mode='')

iter:   5 22:14:56  -344.947050c -1.77  -2.23
iter:   6 22:15:04  -344.921603c -1.96  -1.96
iter:   7 22:15:12  -344.894857  -1.72  -2.07
iter:   8 22:15:20  -344.893772c -2.11  -2.54
iter:   9 22:15:28  -344.893976c -2.44  -2.72
Writing to output.gpw (mode='')

iter:  10 22:15:36  -344.894418c -2.83  -2.82
iter:  11 22:15:44  -344.894027c -3.19  -2.87
iter:  12 22:15:52  -344.894329c -3.20  -2.96
iter:  13 22:16:05  -344.894367c -3.58  -3.06
iter:  14 22:16:15  -344.894251c -3.65  -3.11
Writing to output.gpw (mode='')

iter:  15 22:16:23  -344.894268c -3.69  -3.26
iter:  16 22:16:31  -344.894202c -3.89  -3.37
iter:  17 22:16:39  -344.894246c -3.84  -3.40
iter:  18 22:16:47  -344.894230c -4.14  -3.53
iter:  19 22:16:55  -344.894227c -4.24  -3.49
Writing to output.gpw (mode='')

iter:  20 22:17:03  -344.894265c -4.43  -3.47
iter:  21 22:17:11  -344.894275c -4.50  -3.85
iter:  22 22:17:19  -344.894258c -4.94  -3.81
iter:  23 22:17:27  -344.894253c -4.94  -3.96
iter:  24 22:17:34  -344.894260c -5.02  -4.00
Writing to output.gpw (mode='')

iter:  25 22:17:42  -344.894262c -5.29  -4.08c
iter:  26 22:17:50  -344.894267c -5.28  -4.15c
iter:  27 22:17:58  -344.894264c -5.57  -4.22c
iter:  28 22:18:06  -344.894262c -5.58  -4.24c
iter:  29 22:18:14  -344.894261c -5.74  -4.37c
Writing to output.gpw (mode='')

iter:  30 22:18:22  -344.894267c -5.71  -4.46c
iter:  31 22:18:30  -344.894261c -5.99  -4.49c
iter:  32 22:18:38  -344.894261c -5.92  -4.63c
iter:  33 22:18:46  -344.894263c -5.98  -4.72c
iter:  34 22:18:54  -344.894261c -6.44  -4.70c
Writing to output.gpw (mode='')

iter:  35 22:19:02  -344.894262c -6.38  -4.93c
iter:  36 22:19:10  -344.894262c -6.19  -4.99c
iter:  37 22:19:18  -344.894263c -6.63  -5.11c
iter:  38 22:19:26  -344.894263c -6.55  -5.17c
iter:  39 22:19:33  -344.894263c -6.44  -5.29c
Writing to output.gpw (mode='')

iter:  40 22:19:43  -344.894263c -6.80  -5.35c
iter:  41 22:19:51  -344.894263c -7.05  -5.52c
iter:  42 22:19:59  -344.894263c -6.87  -5.54c
iter:  43 22:20:07  -344.894263c -7.22  -5.55c
iter:  44 22:20:15  -344.894263c -7.28  -5.58c
Writing to output.gpw (mode='')

iter:  45 22:20:23  -344.894263c -7.42c -5.61c

Converged after 45 iterations.

Dipole moment: (-26.879757, -17.027417, -0.239597) |e|*Ang

Energy contributions relative to reference atoms: (reference = -17528.314784)

Kinetic:       +217.367769
Potential:     -198.127761
External:        +0.000000
XC:            -365.206840
Entropy (-ST):   -0.169016
Local:           +1.157076
--------------------------
Free energy:   -344.978771
Extrapolated:  -344.894263

Dipole-layer corrected work functions: 3.403434, 3.864022 eV

Showing only first 2 kpts
 Kpt  Band  Eigenvalues  Occupancy
  0    37     -3.87852    1.98515
  0    38     -3.70419    1.60726
  0    39     -3.59654    0.64438
  0    40     -3.38334    0.01328

  1    37     -3.69775    1.56504
  1    38     -3.61752    0.83930
  1    39     -3.54869    0.30871
  1    40     -3.52306    0.19712


Fermi level: -3.63373

No gap

Forces in eV/Ang:
  0 Li    0.02146   -0.00112   -0.28184
  1 Li   -0.01244    0.00233   -0.27088
  2 Li   -0.01058    0.00120   -0.28300
  3 Li   -0.00180    0.01676   -0.27768
  4 Li   -0.00139   -0.00084   -0.27770
  5 Li    0.00410    0.02245   -0.27519
  6 Li   -0.00414   -0.01574   -0.28151
  7 Li   -0.00194    0.00023   -0.27469
  8 Li    0.00825   -0.02458   -0.27627
  9 Li   -0.00282    0.01113    0.32825
 10 Li    0.00743   -0.00083    0.25169
 11 Li   -0.00375    0.00786    0.28856
 12 Li   -0.00064   -0.00942    0.32366
 13 Li    0.01564   -0.00466    0.25050
 14 Li   -0.00980   -0.00513    0.28427
 15 Li   -0.00705    0.00026    0.23118
 16 Li   -0.01101    0.00179    0.25631
 17 Li    0.01542   -0.00267    0.25186
 18 Li    0.05359    0.00616   -0.11549
 19 Li   -0.01119   -0.00160    0.05077
 20 Li   -0.01909    0.00878   -0.14693
 21 Li   -0.02049   -0.02978    0.04360
 22 Li    0.00137    0.00280    0.03712
 23 Li    0.01351   -0.01607    0.03500
 24 Li   -0.02623    0.02758    0.06584
 25 Li    0.01580    0.00094    0.04245
 26 Li    0.01138    0.01428    0.04365
 27 Li   -0.01014   -0.05063   -0.06607
 28 Li    0.05451   -0.04821   -0.04036
 29 Li    0.00610   -0.01222    0.07415
 30 Li   -0.09285   -0.03608    0.20513
 31 Li    0.03087    0.03713   -0.02783
 32 Li    0.06068   -0.00102    0.10986
 33 Li    0.00193    0.02148   -0.03156
 34 Li   -0.01809    0.00752   -0.01556
 35 Li    0.01934    0.00683   -0.01794
 36 O     1.76341    1.32371   12.46978
 37 O    -0.00494   -0.06227    0.00470
 38 C     0.04477   -0.15345    0.55186
 39 C     0.60353   -0.33561    1.43830
 40 C     0.00395    0.04569    0.13595
 41 H    -0.00324   -0.03378   -0.02616
 42 H     0.00924   -0.02615   -0.04199
 43 H     0.09168   -0.16908    0.12144
 44 H    -0.02589   -0.02819   -0.09735
 45 H    -0.01404    0.01181    0.01069
 46 H     0.03318    0.00771    0.00440
 47 H     2.37788   -5.80888    5.61136
 48 H    -0.00563   -0.02082    0.02269
 49 N     4.78541    3.56959  -14.71515
 50 N    -9.69444    1.70247   -5.69237

System changes: positions 

Initializing position-dependent things.

Density initialized from wave functions
       .-----------------------.  
      /|                       |  
     / |                       |  
    /  |                       |  
   /   |                       |  
  /    |                       |  
 *     |                       |  
 |     |                       |  
 |     |                       |  
 |     |                       |  
 |     |                       |  
 |O H  |                       |  
 |     |                       |  
 |C    |               H       |  
 | H H |                H C    |  
 |     |                       |  
 C     |       Li      Li      Li 
 |OH   |               H       |  
 |   Li|     Li      Li        |  
 |H    |  Li      Li   N  Li   |  
 |     |   Li      Li      Li  |  
 |     |Li      Li      Li     |  
 |     |                       |  
 |   LLi     LLi     LLi       |  
 |     |  Li      Li      Li   |  
 | Li  |   Li      Li          |  
 |     |Li      Li      Li     |  
 Li    | Li      Li            |  
 |    Li      Li      Li       |  
 |     |                       |  
 |     |                       |  
 |     |                       |  
 |     |                       |  
 |     |                       |  
 |     |                       |  
 |     .-----------------------.  
 |    /                       /   
 |   /                       /    
 |  /                       /     
 | /                       /      
 |/                       /       
 *-----------------------*        

Positions:
   0 Li     1.617037    1.617037   10.000000    ( 0.0000,  0.0000,  0.0000)
   1 Li     4.851111    1.617037   10.000000    ( 0.0000,  0.0000,  0.0000)
   2 Li     8.085185    1.617037   10.000000    ( 0.0000,  0.0000,  0.0000)
   3 Li     1.617037    4.851111   10.000000    ( 0.0000,  0.0000,  0.0000)
   4 Li     4.851111    4.851111   10.000000    ( 0.0000,  0.0000,  0.0000)
   5 Li     8.085185    4.851111   10.000000    ( 0.0000,  0.0000,  0.0000)
   6 Li     1.617037    8.085185   10.000000    ( 0.0000,  0.0000,  0.0000)
   7 Li     4.851111    8.085185   10.000000    ( 0.0000,  0.0000,  0.0000)
   8 Li     8.085185    8.085185   10.000000    ( 0.0000,  0.0000,  0.0000)
   9 Li     0.000000    0.000000   11.617037    ( 0.0000,  0.0000,  0.0000)
  10 Li     3.234074    0.000000   11.617037    ( 0.0000,  0.0000,  0.0000)
  11 Li     6.468148    0.000000   11.617037    ( 0.0000,  0.0000,  0.0000)
  12 Li     0.000000    3.234074   11.617037    ( 0.0000,  0.0000,  0.0000)
  13 Li     3.234074    3.234074   11.617037    ( 0.0000,  0.0000,  0.0000)
  14 Li     6.468148    3.234074   11.617037    ( 0.0000,  0.0000,  0.0000)
  15 Li     0.000000    6.468148   11.617037    ( 0.0000,  0.0000,  0.0000)
  16 Li     3.234074    6.468148   11.617037    ( 0.0000,  0.0000,  0.0000)
  17 Li     6.468148    6.468148   11.617037    ( 0.0000,  0.0000,  0.0000)
  18 Li     1.617649    1.617097   13.468354    ( 0.0000,  0.0000,  0.0000)
  19 Li     4.850970    1.617026   13.470276    ( 0.0000,  0.0000,  0.0000)
  20 Li     8.084970    1.617141   13.468134    ( 0.0000,  0.0000,  0.0000)
  21 Li     1.616807    4.850813   13.470169    ( 0.0000,  0.0000,  0.0000)
  22 Li     4.851125    4.851133   13.470162    ( 0.0000,  0.0000,  0.0000)
  23 Li     8.085330    4.850970   13.470046    ( 0.0000,  0.0000,  0.0000)
  24 Li     1.616746    8.085477   13.470433    ( 0.0000,  0.0000,  0.0000)
  25 Li     4.851290    8.085207   13.470206    ( 0.0000,  0.0000,  0.0000)
  26 Li     8.085311    8.085308   13.470168    ( 0.0000,  0.0000,  0.0000)
  27 Li    -0.000298   -0.000160   15.445935    ( 0.0000,  0.0000,  0.0000)
  28 Li     3.234653   -0.000584   15.445534    ( 0.0000,  0.0000,  0.0000)
  29 Li     6.468377   -0.000007   15.446987    ( 0.0000,  0.0000,  0.0000)
  30 Li    -0.001241    3.233330   15.448956    ( 0.0000,  0.0000,  0.0000)
  31 Li     3.234391    3.234525   15.445689    ( 0.0000,  0.0000,  0.0000)
  32 Li     6.469019    3.233913   15.447395    ( 0.0000,  0.0000,  0.0000)
  33 Li     0.000051    6.468393   15.445541    ( 0.0000,  0.0000,  0.0000)
  34 Li     3.233896    6.468225   15.445751    ( 0.0000,  0.0000,  0.0000)
  35 Li     6.468316    6.468234   15.445709    ( 0.0000,  0.0000,  0.0000)
  36 O      0.011041    1.618046   18.536855    ( 0.0000,  0.0000,  0.0000)
  37 O      0.006107    1.596074   23.308755    ( 0.0000,  0.0000,  0.0000)
  38 C     -0.013863    1.612289   20.850189    ( 0.0000,  0.0000,  0.0000)
  39 C      0.002602    0.747518   19.608218    ( 0.0000,  0.0000,  0.0000)
  40 C      0.009495    0.786244   22.125895    ( 0.0000,  0.0000,  0.0000)
  41 H      0.860223    2.275592   20.819383    ( 0.0000,  0.0000,  0.0000)
  42 H     -0.902368    2.252224   20.841087    ( 0.0000,  0.0000,  0.0000)
  43 H      0.892455    0.106345   19.587657    ( 0.0000,  0.0000,  0.0000)
  44 H     -0.889917    0.099769   19.576621    ( 0.0000,  0.0000,  0.0000)
  45 H      0.876694    0.109746   22.125307    ( 0.0000,  0.0000,  0.0000)
  46 H     -0.890285    0.169188   22.201388    ( 0.0000,  0.0000,  0.0000)
  47 H      0.026142    1.055321   17.688075    ( 0.0000,  0.0000,  0.0000)
  48 H      0.780496    2.171468   23.275916    ( 0.0000,  0.0000,  0.0000)
  49 N      0.002228    1.626398   16.833083    ( 0.0000,  0.0000,  0.0000)
  50 N     -1.138124    1.633557   16.897943    ( 0.0000,  0.0000,  0.0000)

Unit cell:
           periodic     x           y           z      points  spacing
  1. axis:    yes    9.702222    0.000000    0.000000    60     0.1617
  2. axis:    yes    0.000000    9.702222    0.000000    60     0.1617
  3. axis:    no     0.000000    0.000000   28.351111   176     0.1611

  Lengths:   9.702222   9.702222  28.351111
  Angles:   90.000000  90.000000  90.000000

Effective grid spacing dv^(1/3) = 0.1615

     iter     time        total  log10-change:
                         energy  eigst   dens
iter:   1 22:20:33  -346.047010  -0.88
iter:   2 22:20:41  -346.038061  -1.25  -1.88
iter:   3 22:20:49  -346.012434c -1.75  -1.82
iter:   4 22:20:56  -346.000483c -2.04  -2.08
Writing to output.gpw (mode='')

iter:   5 22:21:12  -345.992672c -1.72  -2.35
iter:   6 22:21:19  -345.992093c -2.13  -2.39
iter:   7 22:21:28  -345.991036c -2.40  -2.60
iter:   8 22:21:36  -345.991386c -2.43  -2.76
iter:   9 22:21:44  -345.991127c -3.13  -2.67
Writing to output.gpw (mode='')

iter:  10 22:21:52  -345.990830c -3.12  -2.76
iter:  11 22:22:00  -345.991093c -3.02  -3.00
iter:  12 22:22:08  -345.990939c -3.29  -3.14
iter:  13 22:22:16  -345.990969c -3.56  -3.18
iter:  14 22:22:24  -345.990961c -3.83  -3.21
Writing to output.gpw (mode='')

iter:  15 22:22:32  -345.991011c -3.87  -3.33
iter:  16 22:22:40  -345.991062c -3.73  -3.40
iter:  17 22:22:48  -345.991071c -4.00  -3.48
iter:  18 22:22:56  -345.991050c -4.06  -3.40
iter:  19 22:23:04  -345.991047c -4.65  -3.66
Writing to output.gpw (mode='')

iter:  20 22:23:12  -345.991062c -4.47  -3.77
iter:  21 22:23:20  -345.991053c -4.44  -3.87
iter:  22 22:23:28  -345.991055c -4.73  -3.89
iter:  23 22:23:36  -345.991055c -5.27  -4.00
iter:  24 22:23:44  -345.991054c -5.00  -4.06c
Writing to output.gpw (mode='')

iter:  25 22:23:52  -345.991050c -5.09  -4.10c
iter:  26 22:24:00  -345.991054c -5.42  -4.28c
iter:  27 22:24:08  -345.991053c -5.36  -4.30c
iter:  28 22:24:16  -345.991057c -5.56  -4.46c
iter:  29 22:24:24  -345.991058c -5.56  -4.56c
Writing to output.gpw (mode='')

iter:  30 22:24:32  -345.991058c -5.62  -4.61c
iter:  31 22:24:40  -345.991056c -5.74  -4.69c
iter:  32 22:24:48  -345.991057c -5.87  -4.70c
iter:  33 22:24:56  -345.991056c -6.13  -4.64c
iter:  34 22:25:04  -345.991059c -6.17  -4.72c
Writing to output.gpw (mode='')

iter:  35 22:25:12  -345.991059c -6.27  -4.88c
iter:  36 22:25:20  -345.991057c -6.38  -5.01c
iter:  37 22:25:28  -345.991058c -6.71  -5.12c
iter:  38 22:25:36  -345.991059c -6.38  -5.19c
iter:  39 22:25:44  -345.991058c -6.61  -5.29c
Writing to output.gpw (mode='')

iter:  40 22:25:52  -345.991059c -6.73  -5.37c
iter:  41 22:26:08  -345.991059c -6.89  -5.44c
iter:  42 22:26:17  -345.991059c -7.01  -5.51c
iter:  43 22:26:25  -345.991059c -7.14  -5.73c
iter:  44 22:26:33  -345.991059c -6.95  -5.84c
Writing to output.gpw (mode='')

iter:  45 22:26:41  -345.991059c -7.16  -5.88c
iter:  46 22:26:49  -345.991059c -7.21  -5.93c
iter:  47 22:26:56  -345.991059c -7.25  -5.97c
iter:  48 22:27:04  -345.991059c -7.42c -5.92c

Converged after 48 iterations.

Dipole moment: (-27.370036, -16.946975, -0.287785) |e|*Ang

Energy contributions relative to reference atoms: (reference = -17528.314784)

Kinetic:       +212.751121
Potential:     -195.212489
External:        +0.000000
XC:            -364.601750
Entropy (-ST):   -0.170058
Local:           +1.157088
--------------------------
Free energy:   -346.076088
Extrapolated:  -345.991059

Dipole-layer corrected work functions: 3.405349, 3.958571 eV

Showing only first 2 kpts
 Kpt  Band  Eigenvalues  Occupancy
  0    37     -3.92652    1.98509
  0    38     -3.74787    1.57778
  0    39     -3.64893    0.68117
  0    40     -3.42942    0.01273

  1    37     -3.74579    1.56373
  1    38     -3.66349    0.81736
  1    39     -3.59675    0.30783
  1    40     -3.57303    0.20337


Fermi level: -3.68196

No gap
Writing to output.gpw (mode='')


Forces in eV/Ang:
  0 Li    0.02013   -0.00093   -0.28229
  1 Li   -0.01237    0.00236   -0.26991
  2 Li   -0.01007    0.00124   -0.28318
  3 Li   -0.00109    0.01685   -0.27807
  4 Li   -0.00104    0.00008   -0.27846
  5 Li    0.00415    0.02244   -0.27573
  6 Li   -0.00367   -0.01590   -0.28210
  7 Li   -0.00163   -0.00066   -0.27513
  8 Li    0.00817   -0.02471   -0.27733
  9 Li   -0.00233    0.01156    0.32979
 10 Li    0.00807   -0.00089    0.25292
 11 Li   -0.00349    0.00783    0.28809
 12 Li   -0.00051   -0.00978    0.32398
 13 Li    0.01666   -0.00461    0.25103
 14 Li   -0.00976   -0.00492    0.28393
 15 Li   -0.00739    0.00022    0.23078
 16 Li   -0.01186    0.00154    0.25558
 17 Li    0.01494   -0.00260    0.25168
 18 Li    0.05366    0.00749   -0.11389
 19 Li   -0.01003   -0.00134    0.05021
 20 Li   -0.02187    0.00963   -0.14723
 21 Li   -0.02121   -0.02843    0.04148
 22 Li    0.00053    0.00245    0.03718
 23 Li    0.01335   -0.01541    0.03370
 24 Li   -0.02619    0.02542    0.06310
 25 Li    0.01504    0.00115    0.04272
 26 Li    0.01138    0.01369    0.04178
 27 Li   -0.00274   -0.05988   -0.06001
 28 Li    0.05381   -0.04848   -0.03782
 29 Li    0.00125   -0.01032    0.07529
 30 Li   -0.10378   -0.03478    0.21020
 31 Li    0.02720    0.03787   -0.02520
 32 Li    0.06749   -0.00781    0.11494
 33 Li    0.00285    0.02100   -0.03318
 34 Li   -0.01658    0.00705   -0.01579
 35 Li    0.01779    0.00683   -0.01855
 36 O     1.31365    1.15854   10.12568
 37 O    -0.00236   -0.05398    0.04907
 38 C     0.04113   -0.09209    0.57969
 39 C     0.47453   -0.48920    1.41518
 40 C     0.00760    0.01354    0.20515
 41 H    -0.01478   -0.05083   -0.00402
 42 H     0.03039   -0.05151   -0.02617
 43 H     0.09732   -0.19439    0.19208
 44 H     0.00378   -0.05695   -0.00512
 45 H    -0.01698    0.01245    0.01762
 46 H     0.03397    0.00778    0.01043
 47 H     2.21235   -4.33346    4.93265
 48 H    -0.00746   -0.01928    0.02383
 49 N     2.86449    2.58496  -12.94870
 50 N    -7.11360    1.63580   -4.85433

System changes: positions 

Initializing position-dependent things.

Density initialized from wave functions
       .-----------------------.  
      /|                       |  
     / |                       |  
    /  |                       |  
   /   |                       |  
  /    |                       |  
 *     |                       |  
 |     |                       |  
 |     |                       |  
 |     |                       |  
 |     |                       |  
 |O H  |                       |  
 |     |                       |  
 |C    |               H       |  
 | H H |                H C    |  
 |     |                       |  
 C     |       Li      Li      Li 
 |OH   |               H       |  
 |H  Li|     Li      Li        |  
 |     |  Li      Li   N  Ni   |  
 |     |   Li      Li      Li  |  
 |     |Li      Li      Li     |  
 |     |                       |  
 |   LLi     LLi     LLi       |  
 |     |  Li      Li      Li   |  
 | Li  |   Li      Li          |  
 |     |Li      Li      Li     |  
 Li    | Li      Li            |  
 |    Li      Li      Li       |  
 |     |                       |  
 |     |                       |  
 |     |                       |  
 |     |                       |  
 |     |                       |  
 |     |                       |  
 |     .-----------------------.  
 |    /                       /   
 |   /                       /    
 |  /                       /     
 | /                       /      
 |/                       /       
 *-----------------------*        

Positions:
   0 Li     1.617037    1.617037   10.000000    ( 0.0000,  0.0000,  0.0000)
   1 Li     4.851111    1.617037   10.000000    ( 0.0000,  0.0000,  0.0000)
   2 Li     8.085185    1.617037   10.000000    ( 0.0000,  0.0000,  0.0000)
   3 Li     1.617037    4.851111   10.000000    ( 0.0000,  0.0000,  0.0000)
   4 Li     4.851111    4.851111   10.000000    ( 0.0000,  0.0000,  0.0000)
   5 Li     8.085185    4.851111   10.000000    ( 0.0000,  0.0000,  0.0000)
   6 Li     1.617037    8.085185   10.000000    ( 0.0000,  0.0000,  0.0000)
   7 Li     4.851111    8.085185   10.000000    ( 0.0000,  0.0000,  0.0000)
   8 Li     8.085185    8.085185   10.000000    ( 0.0000,  0.0000,  0.0000)
   9 Li     0.000000    0.000000   11.617037    ( 0.0000,  0.0000,  0.0000)
  10 Li     3.234074    0.000000   11.617037    ( 0.0000,  0.0000,  0.0000)
  11 Li     6.468148    0.000000   11.617037    ( 0.0000,  0.0000,  0.0000)
  12 Li     0.000000    3.234074   11.617037    ( 0.0000,  0.0000,  0.0000)
  13 Li     3.234074    3.234074   11.617037    ( 0.0000,  0.0000,  0.0000)
  14 Li     6.468148    3.234074   11.617037    ( 0.0000,  0.0000,  0.0000)
  15 Li     0.000000    6.468148   11.617037    ( 0.0000,  0.0000,  0.0000)
  16 Li     3.234074    6.468148   11.617037    ( 0.0000,  0.0000,  0.0000)
  17 Li     6.468148    6.468148   11.617037    ( 0.0000,  0.0000,  0.0000)
  18 Li     1.617967    1.617146   13.467681    ( 0.0000,  0.0000,  0.0000)
  19 Li     4.850924    1.617021   13.470570    ( 0.0000,  0.0000,  0.0000)
  20 Li     8.084799    1.617208   13.467219    ( 0.0000,  0.0000,  0.0000)
  21 Li     1.616675    4.850664   13.470386    ( 0.0000,  0.0000,  0.0000)
  22 Li     4.851116    4.851149   13.470383    ( 0.0000,  0.0000,  0.0000)
  23 Li     8.085408    4.850880   13.470228    ( 0.0000,  0.0000,  0.0000)
  24 Li     1.616589    8.085612   13.470782    ( 0.0000,  0.0000,  0.0000)
  25 Li     4.851372    8.085213   13.470455    ( 0.0000,  0.0000,  0.0000)
  26 Li     8.085380    8.085389   13.470407    ( 0.0000,  0.0000,  0.0000)
  27 Li    -0.000223   -0.000632   15.445648    ( 0.0000,  0.0000,  0.0000)
  28 Li     3.234950   -0.000885   15.445350    ( 0.0000,  0.0000,  0.0000)
  29 Li     6.468321   -0.000060   15.447439    ( 0.0000,  0.0000,  0.0000)
  30 Li    -0.001921    3.233231   15.450262    ( 0.0000,  0.0000,  0.0000)
  31 Li     3.234512    3.234760   15.445583    ( 0.0000,  0.0000,  0.0000)
  32 Li     6.469452    3.233815   15.448110    ( 0.0000,  0.0000,  0.0000)
  33 Li     0.000079    6.468523   15.445329    ( 0.0000,  0.0000,  0.0000)
  34 Li     3.233815    6.468262   15.445657    ( 0.0000,  0.0000,  0.0000)
  35 Li     6.468401    6.468281   15.445591    ( 0.0000,  0.0000,  0.0000)
  36 O      0.011509    1.614168   18.553009    ( 0.0000,  0.0000,  0.0000)
  37 O      0.006145    1.595856   23.309598    ( 0.0000,  0.0000,  0.0000)
  38 C     -0.013591    1.611272   20.855258    ( 0.0000,  0.0000,  0.0000)
  39 C      0.003488    0.745009   19.617486    ( 0.0000,  0.0000,  0.0000)
  40 C      0.009545    0.786390   22.127558    ( 0.0000,  0.0000,  0.0000)
  41 H      0.860064    2.275136   20.819448    ( 0.0000,  0.0000,  0.0000)
  42 H     -0.902034    2.251669   20.840942    ( 0.0000,  0.0000,  0.0000)
  43 H      0.893567    0.104607   19.589477    ( 0.0000,  0.0000,  0.0000)
  44 H     -0.889665    0.098990   19.577515    ( 0.0000,  0.0000,  0.0000)
  45 H      0.876591    0.109806   22.125461    ( 0.0000,  0.0000,  0.0000)
  46 H     -0.890092    0.169224   22.201496    ( 0.0000,  0.0000,  0.0000)
  47 H      0.036925    1.065835   17.702902    ( 0.0000,  0.0000,  0.0000)
  48 H      0.780396    2.171334   23.276043    ( 0.0000,  0.0000,  0.0000)
  49 N     -0.006102    1.619211   16.794626    ( 0.0000,  0.0000,  0.0000)
  50 N     -1.144185    1.641991   16.883424    ( 0.0000,  0.0000,  0.0000)

Unit cell:
           periodic     x           y           z      points  spacing
  1. axis:    yes    9.702222    0.000000    0.000000    60     0.1617
  2. axis:    yes    0.000000    9.702222    0.000000    60     0.1617
  3. axis:    no     0.000000    0.000000   28.351111   176     0.1611

  Lengths:   9.702222   9.702222  28.351111
  Angles:   90.000000  90.000000  90.000000

Effective grid spacing dv^(1/3) = 0.1615

     iter     time        total  log10-change:
                         energy  eigst   dens
iter:   1 22:27:14  -346.819389  -1.05
iter:   2 22:27:22  -346.808696  -1.26  -1.84
iter:   3 22:27:30  -346.770749  -2.03  -1.80
iter:   4 22:27:38  -346.765414  -2.01  -2.36
Writing to output.gpw (mode='')

iter:   5 22:27:46  -346.766371c -2.44  -2.49
iter:   6 22:27:54  -346.763899c -2.30  -2.35
iter:   7 22:28:01  -346.762932c -2.77  -2.69
iter:   8 22:28:09  -346.762886c -2.63  -2.93
iter:   9 22:28:18  -346.762741c -3.14  -3.00
Writing to output.gpw (mode='')

iter:  10 22:28:32  -346.762920c -3.26  -3.16
iter:  11 22:28:42  -346.762914c -3.75  -3.23
iter:  12 22:28:50  -346.763287c -3.42  -3.23
iter:  13 22:28:58  -346.763009c -3.44  -3.04
iter:  14 22:29:06  -346.762892c -3.68  -3.41
Writing to output.gpw (mode='')

iter:  15 22:29:14  -346.762960c -4.08  -3.51
iter:  16 22:29:22  -346.762962c -4.24  -3.58
iter:  17 22:29:30  -346.762972c -4.19  -3.60
iter:  18 22:29:38  -346.762957c -4.67  -3.74
iter:  19 22:29:45  -346.762962c -4.59  -3.86
Writing to output.gpw (mode='')

iter:  20 22:29:53  -346.762962c -4.69  -3.91
iter:  21 22:30:01  -346.762996c -4.98  -3.98
iter:  22 22:30:09  -346.762974c -5.15  -3.94
iter:  23 22:30:17  -346.762965c -5.12  -4.12c
iter:  24 22:30:25  -346.762972c -4.91  -4.19c
Writing to output.gpw (mode='')

iter:  25 22:30:33  -346.762973c -5.72  -4.28c
iter:  26 22:30:41  -346.762973c -5.39  -4.29c
iter:  27 22:30:49  -346.762975c -5.77  -4.27c
iter:  28 22:30:57  -346.762972c -5.52  -4.45c
iter:  29 22:31:10  -346.762976c -5.80  -4.48c
Writing to output.gpw (mode='')

iter:  30 22:31:18  -346.762975c -5.78  -4.53c
iter:  31 22:31:26  -346.762981c -6.01  -4.61c
iter:  32 22:31:34  -346.762978c -6.00  -4.52c
iter:  33 22:31:42  -346.762978c -6.46  -4.60c
iter:  34 22:31:50  -346.762976c -6.37  -4.63c
Writing to output.gpw (mode='')

iter:  35 22:31:58  -346.762975c -6.40  -4.67c
iter:  36 22:32:06  -346.762975c -6.55  -4.69c
iter:  37 22:32:14  -346.762977c -6.77  -4.97c
iter:  38 22:32:22  -346.762977c -6.76  -5.27c
iter:  39 22:32:29  -346.762977c -7.08  -5.37c
Writing to output.gpw (mode='')

iter:  40 22:32:38  -346.762977c -7.15  -5.43c
iter:  41 22:32:45  -346.762977c -7.29  -5.48c
iter:  42 22:32:53  -346.762978c -7.31  -5.52c
iter:  43 22:33:01  -346.762978c -7.46c -5.68c

Converged after 43 iterations.

Dipole moment: (-26.820208, -16.934203, -0.306822) |e|*Ang

Energy contributions relative to reference atoms: (reference = -17528.314784)

Kinetic:       +210.831420
Potential:     -194.263806
External:        +0.000000
XC:            -364.405867
Entropy (-ST):   -0.170173
Local:           +1.160363
--------------------------
Free energy:   -346.848064
Extrapolated:  -346.762978

Dipole-layer corrected work functions: 3.405739, 3.995557 eV

Showing only first 2 kpts
 Kpt  Band  Eigenvalues  Occupancy
  0    37     -3.94539    1.98514
  0    38     -3.76581    1.57279
  0    39     -3.66597    0.66644
  0    40     -3.44767    0.01262

  1    37     -3.76134    1.54195
  1    38     -3.68227    0.81824
  1    39     -3.62119    0.33901
  1    40     -3.59185    0.20385


Fermi level: -3.70065

No gap
Writing to output.gpw (mode='')


Forces in eV/Ang:
  0 Li    0.01951   -0.00071   -0.28256
  1 Li   -0.01259    0.00242   -0.26905
  2 Li   -0.00994    0.00122   -0.28303
  3 Li   -0.00064    0.01669   -0.27809
  4 Li   -0.00058    0.00040   -0.27885
  5 Li    0.00442    0.02249   -0.27606
  6 Li   -0.00342   -0.01567   -0.28239
  7 Li   -0.00122   -0.00091   -0.27545
  8 Li    0.00838   -0.02494   -0.27792
  9 Li   -0.00177    0.01212    0.33063
 10 Li    0.00912   -0.00095    0.25385
 11 Li   -0.00373    0.00745    0.28660
 12 Li   -0.00055   -0.01033    0.32391
 13 Li    0.01823   -0.00447    0.25080
 14 Li   -0.00989   -0.00463    0.28298
 15 Li   -0.00792    0.00029    0.23039
 16 Li   -0.01297    0.00101    0.25543
 17 Li    0.01469   -0.00208    0.25188
 18 Li    0.05320    0.00914   -0.11011
 19 Li   -0.00801   -0.00117    0.05097
 20 Li   -0.02534    0.00978   -0.15003
 21 Li   -0.02202   -0.02847    0.04120
 22 Li   -0.00058    0.00278    0.03682
 23 Li    0.01335   -0.01620    0.03498
 24 Li   -0.02623    0.02398    0.06156
 25 Li    0.01419    0.00051    0.04242
 26 Li    0.01133    0.01502    0.04237
 27 Li    0.01387   -0.09590   -0.09138
 28 Li    0.05431   -0.04825   -0.03678
 29 Li   -0.01190   -0.01438    0.06596
 30 Li   -0.10543   -0.00315    0.17421
 31 Li    0.02594    0.03835   -0.02529
 32 Li    0.06341   -0.00811    0.10956
 33 Li    0.00286    0.02078   -0.03319
 34 Li   -0.01594    0.00677   -0.01543
 35 Li    0.01808    0.00662   -0.01815
 36 O     1.14258    0.95416    8.47404
 37 O     0.00042   -0.05042    0.09087
 38 C     0.03498   -0.10060    0.57530
 39 C     0.38437   -0.48261    1.33473
 40 C     0.00931    0.01493    0.24470
 41 H    -0.01257   -0.05620    0.01333
 42 H     0.03243   -0.05982   -0.01036
 43 H     0.10134   -0.21344    0.23524
 44 H     0.00289   -0.09819    0.06423
 45 H    -0.01314    0.00735    0.02682
 46 H     0.02904    0.00319    0.01926
 47 H     2.11682   -3.27623    4.44385
 48 H    -0.00856   -0.01745    0.02607
 49 N     2.65465    1.81721  -11.55184
 50 N    -6.38982    1.55857   -4.14549

System changes: positions 

Initializing position-dependent things.

Density initialized from wave functions
       .-----------------------.  
      /|                       |  
     / |                       |  
    /  |                       |  
   /   |                       |  
  /    |                       |  
 *     |                       |  
 |     |                       |  
 |     |                       |  
 |     |                       |  
 |     |                       |  
 |O H  |                       |  
 |     |                       |  
 |C    |               H       |  
 | H H |                H C    |  
 |     |                       |  
 C     Li      Li      Li      |  
 |OH   |               H       |  
 |H  Li|     Li      Li        |  
 |     |  Li      Li   N  Ni   |  
 |     |   Li      Li      Li  |  
 |     |Li      Li      Li     |  
 |     |                       |  
 |   LLi     LLi     LLi       |  
 |     |  Li      Li      Li   |  
 | Li  |   Li      Li          |  
 |     |Li      Li      Li     |  
 Li    | Li      Li            |  
 |    Li      Li      Li       |  
 |     |                       |  
 |     |                       |  
 |     |                       |  
 |     |                       |  
 |     |                       |  
 |     |                       |  
 |     .-----------------------.  
 |    /                       /   
 |   /                       /    
 |  /                       /     
 | /                       /      
 |/                       /       
 *-----------------------*        

Positions:
   0 Li     1.617037    1.617037   10.000000    ( 0.0000,  0.0000,  0.0000)
   1 Li     4.851111    1.617037   10.000000    ( 0.0000,  0.0000,  0.0000)
   2 Li     8.085185    1.617037   10.000000    ( 0.0000,  0.0000,  0.0000)
   3 Li     1.617037    4.851111   10.000000    ( 0.0000,  0.0000,  0.0000)
   4 Li     4.851111    4.851111   10.000000    ( 0.0000,  0.0000,  0.0000)
   5 Li     8.085185    4.851111   10.000000    ( 0.0000,  0.0000,  0.0000)
   6 Li     1.617037    8.085185   10.000000    ( 0.0000,  0.0000,  0.0000)
   7 Li     4.851111    8.085185   10.000000    ( 0.0000,  0.0000,  0.0000)
   8 Li     8.085185    8.085185   10.000000    ( 0.0000,  0.0000,  0.0000)
   9 Li     0.000000    0.000000   11.617037    ( 0.0000,  0.0000,  0.0000)
  10 Li     3.234074    0.000000   11.617037    ( 0.0000,  0.0000,  0.0000)
  11 Li     6.468148    0.000000   11.617037    ( 0.0000,  0.0000,  0.0000)
  12 Li     0.000000    3.234074   11.617037    ( 0.0000,  0.0000,  0.0000)
  13 Li     3.234074    3.234074   11.617037    ( 0.0000,  0.0000,  0.0000)
  14 Li     6.468148    3.234074   11.617037    ( 0.0000,  0.0000,  0.0000)
  15 Li     0.000000    6.468148   11.617037    ( 0.0000,  0.0000,  0.0000)
  16 Li     3.234074    6.468148   11.617037    ( 0.0000,  0.0000,  0.0000)
  17 Li     6.468148    6.468148   11.617037    ( 0.0000,  0.0000,  0.0000)
  18 Li     1.618323    1.617221   13.466959    ( 0.0000,  0.0000,  0.0000)
  19 Li     4.850891    1.617017   13.470915    ( 0.0000,  0.0000,  0.0000)
  20 Li     8.084575    1.617283   13.466164    ( 0.0000,  0.0000,  0.0000)
  21 Li     1.616516    4.850488   13.470638    ( 0.0000,  0.0000,  0.0000)
  22 Li     4.851096    4.851170   13.470631    ( 0.0000,  0.0000,  0.0000)
  23 Li     8.085498    4.850770   13.470454    ( 0.0000,  0.0000,  0.0000)
  24 Li     1.616411    8.085751   13.471167    ( 0.0000,  0.0000,  0.0000)
  25 Li     4.851457    8.085212   13.470738    ( 0.0000,  0.0000,  0.0000)
  26 Li     8.085457    8.085496   13.470686    ( 0.0000,  0.0000,  0.0000)
  27 Li     0.000031   -0.001569   15.444933    ( 0.0000,  0.0000,  0.0000)
  28 Li     3.235302   -0.001222   15.445140    ( 0.0000,  0.0000,  0.0000)
  29 Li     6.468122   -0.000166   15.447845    ( 0.0000,  0.0000,  0.0000)
  30 Li    -0.002711    3.233463   15.451302    ( 0.0000,  0.0000,  0.0000)
  31 Li     3.234646    3.235033   15.445448    ( 0.0000,  0.0000,  0.0000)
  32 Li     6.469896    3.233707   15.448859    ( 0.0000,  0.0000,  0.0000)
  33 Li     0.000110    6.468666   15.445090    ( 0.0000,  0.0000,  0.0000)
  34 Li     3.233726    6.468301   15.445553    ( 0.0000,  0.0000,  0.0000)
  35 Li     6.468506    6.468329   15.445462    ( 0.0000,  0.0000,  0.0000)
  36 O      0.012223    1.610989   18.564734    ( 0.0000,  0.0000,  0.0000)
  37 O      0.006207    1.595618   23.310920    ( 0.0000,  0.0000,  0.0000)
  38 C     -0.013373    1.610165   20.860379    ( 0.0000,  0.0000,  0.0000)
  39 C      0.004015    0.742078   19.626629    ( 0.0000,  0.0000,  0.0000)
  40 C      0.009623    0.786556   22.129814    ( 0.0000,  0.0000,  0.0000)
  41 H      0.859941    2.274604   20.819721    ( 0.0000,  0.0000,  0.0000)
  42 H     -0.901683    2.251017   20.840984    ( 0.0000,  0.0000,  0.0000)
  43 H      0.894694    0.102578   19.591889    ( 0.0000,  0.0000,  0.0000)
  44 H     -0.889479    0.097706   19.579125    ( 0.0000,  0.0000,  0.0000)
  45 H      0.876527    0.109810   22.125742    ( 0.0000,  0.0000,  0.0000)
  46 H     -0.889936    0.169206   22.201721    ( 0.0000,  0.0000,  0.0000)
  47 H      0.048495    1.079432   17.717676    ( 0.0000,  0.0000,  0.0000)
  48 H      0.780287    2.171213   23.276223    ( 0.0000,  0.0000,  0.0000)
  49 N     -0.011863    1.608419   16.756543    ( 0.0000,  0.0000,  0.0000)
  50 N     -1.151381    1.650923   16.871406    ( 0.0000,  0.0000,  0.0000)

Unit cell:
           periodic     x           y           z      points  spacing
  1. axis:    yes    9.702222    0.000000    0.000000    60     0.1617
  2. axis:    yes    0.000000    9.702222    0.000000    60     0.1617
  3. axis:    no     0.000000    0.000000   28.351111   176     0.1611

  Lengths:   9.702222   9.702222  28.351111
  Angles:   90.000000  90.000000  90.000000

Effective grid spacing dv^(1/3) = 0.1615

     iter     time        total  log10-change:
                         energy  eigst   dens
iter:   1 22:33:11  -347.419657  -1.12
iter:   2 22:33:19  -347.421532  -1.59  -2.06
iter:   3 22:33:27  -347.409543c -2.18  -2.03
iter:   4 22:33:35  -347.406246c -2.14  -2.57
Writing to output.gpw (mode='')

iter:   5 22:33:43  -347.406276c -2.09  -2.62
iter:   6 22:33:51  -347.405975c -2.85  -2.68
iter:   7 22:33:59  -347.405658c -2.82  -2.85
iter:   8 22:34:07  -347.405699c -3.15  -2.96
iter:   9 22:34:15  -347.405678c -3.61  -3.14
Writing to output.gpw (mode='')

iter:  10 22:34:23  -347.405750c -3.50  -3.23
iter:  11 22:34:31  -347.405924c -3.71  -3.35
iter:  12 22:34:39  -347.405917c -4.26  -3.41
iter:  13 22:34:47  -347.405921c -4.37  -3.43
iter:  14 22:34:55  -347.405839c -3.86  -3.42
Writing to output.gpw (mode='')

iter:  15 22:35:03  -347.405848c -4.48  -3.35
iter:  16 22:35:11  -347.405843c -4.34  -3.43
iter:  17 22:35:19  -347.405867c -4.47  -3.56
iter:  18 22:35:27  -347.405836c -4.45  -3.62
iter:  19 22:35:38  -347.405865c -4.36  -3.69
Writing to output.gpw (mode='')

iter:  20 22:35:46  -347.405852c -5.03  -3.78
iter:  21 22:35:54  -347.405864c -4.68  -4.01c
iter:  22 22:36:09  -347.405862c -5.35  -4.03c
iter:  23 22:36:17  -347.405863c -5.32  -4.10c
iter:  24 22:36:25  -347.405863c -5.03  -4.21c
Writing to output.gpw (mode='')

iter:  25 22:36:33  -347.405858c -5.57  -4.05c
iter:  26 22:36:41  -347.405858c -5.49  -4.34c
iter:  27 22:36:49  -347.405863c -5.70  -4.31c
iter:  28 22:36:57  -347.405861c -6.07  -4.47c
iter:  29 22:37:05  -347.405865c -6.10  -4.53c
Writing to output.gpw (mode='')

iter:  30 22:37:13  -347.405864c -6.29  -4.71c
iter:  31 22:37:21  -347.405865c -6.30  -4.75c
iter:  32 22:37:29  -347.405865c -6.29  -4.87c
iter:  33 22:37:37  -347.405865c -6.82  -5.08c
iter:  34 22:37:45  -347.405864c -6.45  -5.14c
Writing to output.gpw (mode='')

iter:  35 22:37:53  -347.405865c -6.64  -5.16c
iter:  36 22:38:01  -347.405864c -6.67  -5.29c
iter:  37 22:38:09  -347.405865c -7.10  -5.39c
iter:  38 22:38:17  -347.405865c -7.17  -5.42c
iter:  39 22:38:25  -347.405865c -7.13  -5.46c
Writing to output.gpw (mode='')

iter:  40 22:38:33  -347.405864c -7.10  -5.56c
iter:  41 22:38:41  -347.405865c -7.39  -5.43c
iter:  42 22:38:49  -347.405865c -7.25  -5.53c
iter:  43 22:38:57  -347.405865c -7.73c -5.61c

Converged after 43 iterations.

Dipole moment: (-26.518323, -16.897611, -0.318751) |e|*Ang

Energy contributions relative to reference atoms: (reference = -17528.314784)

Kinetic:       +208.675495
Potential:     -193.002097
External:        +0.000000
XC:            -364.156856
Entropy (-ST):   -0.170280
Local:           +1.162733
--------------------------
Free energy:   -347.491005
Extrapolated:  -347.405865

Dipole-layer corrected work functions: 3.406007, 4.018756 eV

Showing only first 2 kpts
 Kpt  Band  Eigenvalues  Occupancy
  0    37     -3.95703    1.98511
  0    38     -3.77613    1.56319
  0    39     -3.67714    0.66151
  0    40     -3.45868    0.01244

  1    37     -3.77036    1.52249
  1    38     -3.69415    0.81971
  1    39     -3.63885    0.37372
  1    40     -3.60158    0.19663


Fermi level: -3.71238

No gap
Writing to output.gpw (mode='')


Forces in eV/Ang:
  0 Li    0.01874   -0.00041   -0.28295
  1 Li   -0.01275    0.00248   -0.26843
  2 Li   -0.00966    0.00119   -0.28282
  3 Li   -0.00012    0.01669   -0.27827
  4 Li   -0.00023    0.00084   -0.27924
  5 Li    0.00480    0.02248   -0.27656
  6 Li   -0.00307   -0.01557   -0.28289
  7 Li   -0.00093   -0.00125   -0.27579
  8 Li    0.00861   -0.02514   -0.27866
  9 Li   -0.00114    0.01253    0.33134
 10 Li    0.00983   -0.00085    0.25532
 11 Li   -0.00368    0.00720    0.28557
 12 Li   -0.00084   -0.01070    0.32376
 13 Li    0.01955   -0.00426    0.25078
 14 Li   -0.00954   -0.00463    0.28282
 15 Li   -0.00843    0.00035    0.23017
 16 Li   -0.01386    0.00017    0.25509
 17 Li    0.01416   -0.00132    0.25233
 18 Li    0.05234    0.01126   -0.10676
 19 Li   -0.00635   -0.00098    0.05123
 20 Li   -0.02744    0.00966   -0.14875
 21 Li   -0.02266   -0.02827    0.04052
 22 Li   -0.00153    0.00268    0.03655
 23 Li    0.01300   -0.01580    0.03495
 24 Li   -0.02593    0.02171    0.05896
 25 Li    0.01335    0.00018    0.04228
 26 Li    0.01098    0.01524    0.04124
 27 Li    0.02620   -0.12867   -0.11692
 28 Li    0.05562   -0.04830   -0.03590
 29 Li   -0.02147   -0.01596    0.06040
 30 Li   -0.11152    0.01728    0.14915
 31 Li    0.02519    0.03936   -0.02570
 32 Li    0.06382   -0.01135    0.10893
 33 Li    0.00314    0.01986   -0.03368
 34 Li   -0.01516    0.00653   -0.01538
 35 Li    0.01796    0.00617   -0.01796
 36 O     1.00485    0.93858    7.30584
 37 O     0.00484   -0.04626    0.12661
 38 C     0.03238   -0.09144    0.54968
 39 C     0.33068   -0.45537    1.19584
 40 C     0.00816    0.00766    0.27080
 41 H    -0.01330   -0.06329    0.03040
 42 H     0.03401   -0.06674    0.00618
 43 H     0.09296   -0.22217    0.26930
 44 H     0.00176   -0.12785    0.11683
 45 H    -0.01038    0.00362    0.03868
 46 H     0.02590   -0.00022    0.03065
 47 H     1.97708   -2.62634    3.88696
 48 H    -0.00989   -0.01473    0.03021
 49 N     1.98514    1.29178  -10.27870
 50 N    -5.45759    1.50460   -3.66785

System changes: positions 

Initializing position-dependent things.

Density initialized from wave functions
       .-----------------------.  
      /|                       |  
     / |                       |  
    /  |                       |  
   /   |                       |  
  /    |                       |  
 *     |                       |  
 |     |                       |  
 |     |                       |  
 |     |                       |  
 |     |                       |  
 |O H  |                       |  
 |     |                       |  
 |C    |               H       |  
 | H H |                H C    |  
 |     |                       |  
 C     Li      Li      Li      |  
 |OH   |               H       |  
 |H  Li|     Li      Li        |  
 |     |  Li      Li   N  Ni   |  
 |     |   Li      Li      Li  |  
 |     |Li      Li      Li     |  
 |     |                       |  
 |   LLi     LLi     LLi       |  
 |     |  Li      Li      Li   |  
 | Li  |   Li      Li          |  
 |     |Li      Li      Li     |  
 Li    | Li      Li            |  
 |    Li      Li      Li       |  
 |     |                       |  
 |     |                       |  
 |     |                       |  
 |     |                       |  
 |     |                       |  
 |     |                       |  
 |     .-----------------------.  
 |    /                       /   
 |   /                       /    
[...]
--------------------------
Free energy:   -353.634188
Extrapolated:  -353.552673

Dipole-layer corrected work functions: 3.404524, 3.743096 eV

Showing only first 2 kpts
 Kpt  Band  Eigenvalues  Occupancy
  0    37     -3.76370    1.95614
  0    38     -3.59534    1.21204
  0    39     -3.56962    0.95808
  0    40     -3.46965    0.22146

  1    37     -3.88522    1.99606
  1    38     -3.53837    0.65973
  1    39     -3.46536    0.20515
  1    40     -3.44958    0.15389


Fermi level: -3.57381

No gap
Writing to output.gpw (mode='')


Forces in eV/Ang:
  0 Li   -0.01113   -0.00844   -0.29579
  1 Li    0.00339    0.01185   -0.29403
  2 Li   -0.00176    0.00129   -0.25413
  3 Li    0.01327    0.01703   -0.28232
  4 Li   -0.01046    0.00833   -0.29131
  5 Li   -0.01335   -0.00534   -0.29445
  6 Li    0.00553   -0.00650   -0.29523
  7 Li   -0.01713   -0.01300   -0.28259
  8 Li    0.00956    0.00802   -0.29531
  9 Li   -0.02331    0.03301    0.34557
 10 Li    0.02505    0.03211    0.30203
 11 Li    0.05649    0.05070    0.27828
 12 Li   -0.02804   -0.04752    0.26414
 13 Li    0.01360   -0.03091    0.29438
 14 Li    0.04687   -0.04563    0.32471
 15 Li   -0.01739   -0.03563    0.30237
 16 Li    0.02580   -0.02205    0.28549
 17 Li    0.02110   -0.00385    0.29335
 18 Li   -0.00490    0.00550   -0.00035
 19 Li   -0.02314   -0.00382   -0.01138
 20 Li    0.01057    0.00209   -0.02530
 21 Li   -0.00294    0.01755    0.00056
 22 Li   -0.00199   -0.00695    0.00538
 23 Li    0.00136    0.01805   -0.00293
 24 Li    0.00812    0.00269   -0.00094
 25 Li   -0.00288   -0.00608    0.00721
 26 Li   -0.00805   -0.00630   -0.00997
 27 Li    0.00172   -0.01105   -0.02104
 28 Li   -0.00234   -0.00378    0.00746
 29 Li   -0.02086   -0.00224   -0.01834
 30 Li   -0.00564   -0.00454   -0.00635
 31 Li   -0.00827    0.00058    0.00374
 32 Li   -0.01310    0.02395    0.00830
 33 Li    0.00400    0.02150    0.00904
 34 Li   -0.00546   -0.00030    0.00326
 35 Li    0.00403   -0.01183    0.00218
 36 O    -0.01899    0.04671    0.01725
 37 O    -0.02715    0.02231    0.02344
 38 C     0.00838   -0.00553   -0.02844
 39 C     0.00266   -0.02561   -0.04761
 40 C     0.01899    0.00421    0.01734
 41 H     0.00821    0.00056   -0.01666
 42 H     0.02166    0.03299   -0.00766
 43 H     0.02626   -0.03335    0.01576
 44 H    -0.04480   -0.02585    0.03156
 45 H     0.03214   -0.01868   -0.01878
 46 H     0.00922    0.03604    0.00631
 47 H    -0.01436    0.02116   -0.00917
 48 H    -0.00103   -0.02450   -0.03263
 49 N    -0.01050    0.03173   -0.00853
 50 N    -0.01420   -0.03098    0.00272

System changes: positions 

Initializing position-dependent things.

Density initialized from wave functions
       .-----------------------.  
      /|                       |  
     / |                       |  
    /  |                       |  
   /   |                       |  
  /    |                       |  
 *     |                       |  
 |     |                       |  
 |     |                       |  
 |     |                       |  
 |     |                       |  
 |  H  |                  O    |  
 |     |                       |  
 |CH   |                       |  
 |C  H |               HH      |  
 |     |                       |  
 |C    Li      Li              |  
 | H   |               H       |  
 |H  Li|     Li      Li        |  
 |     |  Li      Li      Li   |  
 |     |   Li      LiN    Li   |  
 |     |Li      Li     NLi     |  
 |     |          Li           |  
 |   LLi     LLi     LLi       |  
 |     |  Li      Li      Li   |  
 | Li  |   Li      Li          |  
 |     |Li      Li      Li     |  
 Li    | Li      Li            |  
 |    Li      Li      Li       |  
 |     |                       |  
 |     |                       |  
 |     |                       |  
 |     |                       |  
 |     |                       |  
 |     |                       |  
 |     .-----------------------.  
 |    /                       /   
 |   /                       /    
 |  /                       /     
 | /                       /      
 |/                       /       
 *-----------------------*        

Positions:
   0 Li     1.617037    1.617037   10.000000    ( 0.0000,  0.0000,  0.0000)
   1 Li     4.851111    1.617037   10.000000    ( 0.0000,  0.0000,  0.0000)
   2 Li     8.085185    1.617037   10.000000    ( 0.0000,  0.0000,  0.0000)
   3 Li     1.617037    4.851111   10.000000    ( 0.0000,  0.0000,  0.0000)
   4 Li     4.851111    4.851111   10.000000    ( 0.0000,  0.0000,  0.0000)
   5 Li     8.085185    4.851111   10.000000    ( 0.0000,  0.0000,  0.0000)
   6 Li     1.617037    8.085185   10.000000    ( 0.0000,  0.0000,  0.0000)
   7 Li     4.851111    8.085185   10.000000    ( 0.0000,  0.0000,  0.0000)
   8 Li     8.085185    8.085185   10.000000    ( 0.0000,  0.0000,  0.0000)
   9 Li     0.000000    0.000000   11.617037    ( 0.0000,  0.0000,  0.0000)
  10 Li     3.234074    0.000000   11.617037    ( 0.0000,  0.0000,  0.0000)
  11 Li     6.468148    0.000000   11.617037    ( 0.0000,  0.0000,  0.0000)
  12 Li     0.000000    3.234074   11.617037    ( 0.0000,  0.0000,  0.0000)
  13 Li     3.234074    3.234074   11.617037    ( 0.0000,  0.0000,  0.0000)
  14 Li     6.468148    3.234074   11.617037    ( 0.0000,  0.0000,  0.0000)
  15 Li     0.000000    6.468148   11.617037    ( 0.0000,  0.0000,  0.0000)
  16 Li     3.234074    6.468148   11.617037    ( 0.0000,  0.0000,  0.0000)
  17 Li     6.468148    6.468148   11.617037    ( 0.0000,  0.0000,  0.0000)
  18 Li     1.631135    1.575433   13.528382    ( 0.0000,  0.0000,  0.0000)
  19 Li     4.915521    1.667821   13.534449    ( 0.0000,  0.0000,  0.0000)
  20 Li     8.129330    1.613514   13.631288    ( 0.0000,  0.0000,  0.0000)
  21 Li     1.571085    4.750106   13.506795    ( 0.0000,  0.0000,  0.0000)
  22 Li     4.831502    4.881520   13.507821    ( 0.0000,  0.0000,  0.0000)
  23 Li     8.047301    4.796926   13.518711    ( 0.0000,  0.0000,  0.0000)
  24 Li     1.671510    8.021926   13.465593    ( 0.0000,  0.0000,  0.0000)
  25 Li     4.928945    8.158946   13.493215    ( 0.0000,  0.0000,  0.0000)
  26 Li     8.125244    8.080862   13.501508    ( 0.0000,  0.0000,  0.0000)
  27 Li     0.155454   -0.200903   15.411321    ( 0.0000,  0.0000,  0.0000)
  28 Li     3.408226   -0.048306   15.444486    ( 0.0000,  0.0000,  0.0000)
  29 Li     6.789148    0.225884   15.640420    ( 0.0000,  0.0000,  0.0000)
  30 Li    -0.191903    2.977845   15.729273    ( 0.0000,  0.0000,  0.0000)
  31 Li     3.143786    3.288250   15.487034    ( 0.0000,  0.0000,  0.0000)
  32 Li     6.420731    3.313159   15.547015    ( 0.0000,  0.0000,  0.0000)
  33 Li     0.041203    6.285799   15.425945    ( 0.0000,  0.0000,  0.0000)
  34 Li     3.220488    6.484314   15.435432    ( 0.0000,  0.0000,  0.0000)
  35 Li     6.412708    6.612248   15.443300    ( 0.0000,  0.0000,  0.0000)
  36 O      0.346333    1.798211   18.597411    ( 0.0000,  0.0000,  0.0000)
  37 O     -0.066900    1.502450   23.457800    ( 0.0000,  0.0000,  0.0000)
  38 C      0.065950    1.685723   20.996282    ( 0.0000,  0.0000,  0.0000)
  39 C      0.137263    0.893103   19.697714    ( 0.0000,  0.0000,  0.0000)
  40 C      0.028890    0.775772   22.226022    ( 0.0000,  0.0000,  0.0000)
  41 H      0.944692    2.338756   21.055380    ( 0.0000,  0.0000,  0.0000)
  42 H     -0.821417    2.325203   20.992996    ( 0.0000,  0.0000,  0.0000)
  43 H      0.963491    0.169839   19.741327    ( 0.0000,  0.0000,  0.0000)
  44 H     -0.792852    0.329394   19.546060    ( 0.0000,  0.0000,  0.0000)
  45 H      0.908401    0.119022   22.239917    ( 0.0000,  0.0000,  0.0000)
  46 H     -0.856034    0.134003   22.202769    ( 0.0000,  0.0000,  0.0000)
  47 H      0.244663    1.282967   17.782703    ( 0.0000,  0.0000,  0.0000)
  48 H      0.719918    2.053744   23.545894    ( 0.0000,  0.0000,  0.0000)
  49 N     -1.087276    1.130841   15.630435    ( 0.0000,  0.0000,  0.0000)
  50 N     -1.976550    2.027692   15.654961    ( 0.0000,  0.0000,  0.0000)

Unit cell:
           periodic     x           y           z      points  spacing
  1. axis:    yes    9.702222    0.000000    0.000000    60     0.1617
  2. axis:    yes    0.000000    9.702222    0.000000    60     0.1617
  3. axis:    no     0.000000    0.000000   28.351111   176     0.1611

  Lengths:   9.702222   9.702222  28.351111
  Angles:   90.000000  90.000000  90.000000

Effective grid spacing dv^(1/3) = 0.1615

     iter     time        total  log10-change:
                         energy  eigst   dens
iter:   1 04:01:13  -353.554478  -2.76
iter:   2 04:01:21  -353.553615  -3.36  -2.65
iter:   3 04:01:29  -353.553484c -3.97  -2.86
iter:   4 04:01:37  -353.553460c -4.32  -3.11
Writing to output.gpw (mode='')

iter:   5 04:01:45  -353.553424c -3.91  -3.19
iter:   6 04:01:53  -353.553398c -3.98  -3.50
iter:   7 04:02:01  -353.553394c -4.07  -3.66
iter:   8 04:02:09  -353.553378c -5.00  -3.66
iter:   9 04:02:17  -353.553349c -4.88  -3.85
Writing to output.gpw (mode='')

iter:  10 04:02:24  -353.553359c -5.62  -3.81
iter:  11 04:02:32  -353.553383c -5.15  -3.90
iter:  12 04:02:40  -353.553385c -5.72  -4.14c
iter:  13 04:02:48  -353.553377c -5.53  -4.27c
iter:  14 04:02:56  -353.553385c -5.76  -4.19c
Writing to output.gpw (mode='')

iter:  15 04:03:04  -353.553380c -6.22  -4.43c
iter:  16 04:03:12  -353.553376c -6.51  -4.54c
iter:  17 04:03:20  -353.553379c -6.86  -4.62c
iter:  18 04:03:28  -353.553378c -6.99  -4.87c
iter:  19 04:03:36  -353.553379c -7.19  -4.91c
Writing to output.gpw (mode='')

iter:  20 04:03:44  -353.553378c -7.54c -4.95c

Converged after 20 iterations.

Dipole moment: (-34.935410, -13.963453, -0.178021) |e|*Ang

Energy contributions relative to reference atoms: (reference = -17528.314784)

Kinetic:       +175.082318
Potential:     -168.776086
External:        +0.000000
XC:            -360.979082
Entropy (-ST):   -0.163000
Local:           +1.200972
--------------------------
Free energy:   -353.634878
Extrapolated:  -353.553378

Dipole-layer corrected work functions: 3.404399, 3.746616 eV

Showing only first 2 kpts
 Kpt  Band  Eigenvalues  Occupancy
  0    37     -3.76546    1.95620
  0    38     -3.59709    1.21254
  0    39     -3.57112    0.95611
  0    40     -3.47153    0.22222

  1    37     -3.88704    1.99607
  1    38     -3.53971    0.65657
  1    39     -3.46686    0.20443
  1    40     -3.45113    0.15347


Fermi level: -3.57551

No gap

Forces in eV/Ang:
  0 Li   -0.01106   -0.00850   -0.29580
  1 Li    0.00330    0.01191   -0.29400
  2 Li   -0.00173    0.00126   -0.25410
  3 Li    0.01331    0.01713   -0.28232
  4 Li   -0.01048    0.00836   -0.29129
  5 Li   -0.01337   -0.00527   -0.29436
  6 Li    0.00562   -0.00660   -0.29527
  7 Li   -0.01720   -0.01305   -0.28255
  8 Li    0.00954    0.00795   -0.29531
  9 Li   -0.02315    0.03298    0.34574
 10 Li    0.02498    0.03190    0.30170
 11 Li    0.05606    0.05077    0.27889
 12 Li   -0.02789   -0.04720    0.26465
 13 Li    0.01341   -0.03036    0.29408
 14 Li    0.04690   -0.04579    0.32512
 15 Li   -0.01720   -0.03522    0.30182
 16 Li    0.02625   -0.02230    0.28512
 17 Li    0.02045   -0.00405    0.29280
 18 Li   -0.00464    0.00560   -0.00035
 19 Li   -0.02195   -0.00359   -0.01075
 20 Li    0.00972    0.00248   -0.01711
 21 Li   -0.00331    0.01617    0.00091
 22 Li   -0.00198   -0.00656    0.00521
 23 Li    0.00150    0.01767   -0.00282
 24 Li    0.00795    0.00248   -0.00123
 25 Li   -0.00238   -0.00548    0.00702
 26 Li   -0.00773   -0.00642   -0.00977
 27 Li   -0.00303   -0.00270   -0.01792
 28 Li   -0.00204   -0.00379    0.00706
 29 Li   -0.01691   -0.00439   -0.01736
 30 Li   -0.00812   -0.00334   -0.00580
 31 Li   -0.00834    0.00071    0.00344
 32 Li   -0.01185    0.01936    0.00832
 33 Li    0.00375    0.01981    0.00849
 34 Li   -0.00507   -0.00026    0.00325
 35 Li    0.00378   -0.01076    0.00201
 36 O    -0.02148    0.01868    0.02943
 37 O    -0.02068    0.01503    0.00193
 38 C     0.01422   -0.01005   -0.02046
 39 C    -0.00147   -0.01336   -0.01980
 40 C     0.01467    0.00258    0.00170
 41 H     0.00078   -0.00256   -0.01967
 42 H     0.03646    0.01741   -0.00967
 43 H     0.00172   -0.01190    0.00641
 44 H    -0.01446   -0.00976    0.02069
 45 H     0.02251   -0.00868   -0.01700
 46 H     0.00547    0.02973    0.01171
 47 H    -0.01492    0.01949   -0.01728
 48 H     0.00341   -0.01498   -0.02236
 49 N    -0.02191   -0.00128   -0.02683
 50 N    -0.00732   -0.00092   -0.02419

Timing:                                      incl.     excl.
-------------------------------------------------------------------
Density initialized from wave functions:     6.418     6.416   0.0% |
 Symmetrize density:                         0.002     0.002   0.0% |
Forces:                                     39.909    39.909   0.2% |
Hamiltonian:                               468.208     0.011   0.0% |
 Atomic:                                     0.019     0.019   0.0% |
  XC Correction:                             0.000     0.000   0.0% |
 Calculate atomic Hamiltonians:              0.032     0.032   0.0% |
 Communicate:                                5.596     5.596   0.0% |
 Hartree integrate/restrict:                 1.745     1.745   0.0% |
 Initialize Hamiltonian:                     0.001     0.001   0.0% |
 Poisson:                                   22.875     8.453   0.0% |
  Communicate from 1D:                       2.265     2.265   0.0% |
  Communicate from 2D:                       2.206     2.206   0.0% |
  Communicate to 1D:                         1.247     1.247   0.0% |
  Communicate to 2D:                         2.513     2.513   0.0% |
  FFT 1D:                                    3.118     3.118   0.0% |
  FFT 2D:                                    3.074     3.074   0.0% |
 XC 3D grid:                               437.528    71.471   0.3% |
  VdW-DF integral:                         366.057     2.998   0.0% |
   Convolution:                             32.861    32.861   0.1% |
   FFT:                                     13.970    13.970   0.1% |
   gather:                                 126.027   126.027   0.6% |
   hmm1:                                    12.083    12.083   0.1% |
   hmm2:                                    16.365    16.365   0.1% |
   iFFT:                                    14.630    14.630   0.1% |
   potential:                              143.527     4.083   0.0% |
    collect:                                23.044    23.044   0.1% |
    p1:                                     66.463    66.463   0.3% |
    p2:                                     24.783    24.783   0.1% |
    sum:                                    25.155    25.155   0.1% |
   splines:                                  3.595     3.595   0.0% |
 vbar:                                       0.401     0.401   0.0% |
LCAO initialization:                         1.229     0.184   0.0% |
 LCAO eigensolver:                           0.207     0.000   0.0% |
  Calculate projections:                     0.000     0.000   0.0% |
  DenseAtomicCorrection:                     0.000     0.000   0.0% |
  Distribute overlap matrix:                 0.189     0.189   0.0% |
  Orbital Layouts:                           0.015     0.015   0.0% |
  Potential matrix:                          0.002     0.002   0.0% |
  Sum over cells:                            0.001     0.001   0.0% |
 LCAO to grid:                               0.730     0.730   0.0% |
 Set positions (LCAO WFS):                   0.108     0.065   0.0% |
  Basic WFS set positions:                   0.001     0.001   0.0% |
  Basis functions set positions:             0.000     0.000   0.0% |
  P tci:                                     0.000     0.000   0.0% |
  ST tci:                                    0.012     0.012   0.0% |
  mktci:                                     0.030     0.030   0.0% |
Redistribute:                                0.047     0.047   0.0% |
SCF-cycle:                               21673.740   354.705   1.6% ||
 Davidson:                                6308.091  1880.209   8.4% |--|
  Apply hamiltonian:                       406.722   406.722   1.8% ||
  Subspace diag:                          1175.206     0.301   0.0% |
   calc_h_matrix:                          620.280   213.020   1.0% |
    Apply hamiltonian:                     407.261   407.261   1.8% ||
   diagonalize:                             41.238    41.238   0.2% |
   rotate_psi:                             513.387   513.387   2.3% ||
  calc. matrices:                         2022.969  1070.049   4.8% |-|
   Apply hamiltonian:                      952.920   952.920   4.3% |-|
  diagonalize:                              18.645    18.645   0.1% |
  rotate_psi:                              804.340   804.340   3.6% ||
 Density:                                  112.469     0.065   0.0% |
  Atomic density matrices:                  13.098    13.098   0.1% |
  Mix:                                      49.308    49.308   0.2% |
  Multipole moments:                         5.272     5.272   0.0% |
  Pseudo density:                           44.726    44.663   0.2% |
   Symmetrize density:                       0.063     0.063   0.0% |
 Hamiltonian:                            14883.046     0.344   0.0% |
  Atomic:                                    0.640     0.633   0.0% |
   XC Correction:                            0.007     0.007   0.0% |
  Calculate atomic Hamiltonians:             1.011     1.011   0.0% |
  Communicate:                             198.431   198.431   0.9% |
  Hartree integrate/restrict:               59.321    59.321   0.3% |
  Poisson:                                 734.784   276.100   1.2% |
   Communicate from 1D:                     72.800    72.800   0.3% |
   Communicate from 2D:                     71.511    71.511   0.3% |
   Communicate to 1D:                       40.577    40.577   0.2% |
   Communicate to 2D:                       83.986    83.986   0.4% |
   FFT 1D:                                  94.366    94.366   0.4% |
   FFT 2D:                                  95.444    95.444   0.4% |
  XC 3D grid:                            13876.102  2320.772  10.4% |---|
   VdW-DF integral:                      11555.329    95.573   0.4% |
    Convolution:                          1049.024  1049.024   4.7% |-|
    FFT:                                   444.096   444.096   2.0% ||
    gather:                               3893.634  3893.634  17.5% |------|
    hmm1:                                  385.225   385.225   1.7% ||
    hmm2:                                  514.445   514.445   2.3% ||
    iFFT:                                  460.401   460.401   2.1% ||
    potential:                            4712.908   132.162   0.6% |
     collect:                              739.432   739.432   3.3% ||
     p1:                                  2121.013  2121.013   9.5% |---|
     p2:                                   795.459   795.459   3.6% ||
     sum:                                  924.842   924.842   4.2% |-|
    splines:                                 0.024     0.024   0.0% |
  vbar:                                     12.413    12.413   0.1% |
 Orthonormalize:                            15.428     0.011   0.0% |
  calc_s_matrix:                             2.633     2.633   0.0% |
  inverse-cholesky:                          3.601     3.601   0.0% |
  projections:                               0.002     0.002   0.0% |
  rotate_psi_s:                              9.181     9.181   0.0% |
Set symmetry:                                0.001     0.001   0.0% |
Other:                                      89.402    89.402   0.4% |
-------------------------------------------------------------------
Total:                                             22278.954 100.0%

Memory usage: 1.20 GiB
Date: Sat Mar 11 04:03:45 2023
