
  ___ ___ ___ _ _ _  
 |   |   |_  | | | | 
 | | | | | . | | | | 
 |__ |  _|___|_____|  22.8.0
 |___|_|             

User:   vazumah@r135.ib.bridges2.psc.edu
Date:   Fri Mar 10 21:52:26 2023
Arch:   x86_64
Pid:    101763
CWD:    /jet/home/vazumah/Calcs/LiMEAS/proton_donors/propanediol13_y/bridge/8.085_1.617/N2_y
Python: 3.11.0
gpaw:   /jet/home/vazumah/.conda/envs/GPAW_mpich/lib/python3.11/site-packages/gpaw
_gpaw:  /jet/home/vazumah/.conda/envs/GPAW_mpich/lib/python3.11/site-packages/
        _gpaw.cpython-311-x86_64-linux-gnu.so
ase:    /jet/home/vazumah/.conda/envs/GPAW_mpich/lib/python3.11/site-packages/ase (version 3.22.1)
numpy:  /jet/home/vazumah/.conda/envs/GPAW_mpich/lib/python3.11/site-packages/numpy (version 1.24.2)
scipy:  /jet/home/vazumah/.conda/envs/GPAW_mpich/lib/python3.11/site-packages/scipy (version 1.10.1)
libxc:  5.2.3
units:  Angstrom and eV
cores: 128
OpenMP: True
OMP_NUM_THREADS: 1

Input parameters:
  h: 0.16
  kpts: {size: [4, 4, 1]}
  occupations: {name: fermi-dirac,
                width: 0.05}
  poissonsolver: {dipolelayer: xy}
  xc: BEEF-vdW

System changes: positions, numbers, cell, pbc, initial_charges, initial_magmoms 

Initialize ...

species:
  Li:
    name: Lithium
    id: 830b4218f175192f93f959cfc0aad614
    Z: 3.0
    valence: 1
    core: 2
    charge: 0.0
    file: /jet/home/vazumah/datasets/gpaw-setups-0.9.20000/Li.PBE.gz
    compensation charges: {type: gauss,
                           rc: 0.33,
                           lmax: 2}
    cutoffs: {filter: 1.91,
              core: 2.55}
    valence states:
      #              energy  rcut
      - 2s(1.00)    -2.874   1.058
      - 2p(0.00)    -1.090   1.058
      -  s          24.337   1.058
  
    # Using partial waves for Li as LCAO basis

  O:
    name: Oxygen
    id: 32ecd46bf208036f09c70b0ec9a88b78
    Z: 8.0
    valence: 6
    core: 2
    charge: 0.0
    file: /jet/home/vazumah/datasets/gpaw-setups-0.9.20000/O.PBE.gz
    compensation charges: {type: gauss,
                           rc: 0.21,
                           lmax: 2}
    cutoffs: {filter: 1.17,
              core: 0.83}
    valence states:
      #              energy  rcut
      - 2s(2.00)   -23.961   0.688
      - 2p(4.00)    -9.029   0.598
      -  s           3.251   0.688
      -  p          18.182   0.598
      -  d           0.000   0.619
  
    # Using partial waves for O as LCAO basis

  C:
    name: Carbon
    id: 4aa54d4b901d75f77cc0ea3eec22967b
    Z: 6.0
    valence: 4
    core: 2
    charge: 0.0
    file: /jet/home/vazumah/datasets/gpaw-setups-0.9.20000/C.PBE.gz
    compensation charges: {type: gauss,
                           rc: 0.20,
                           lmax: 2}
    cutoffs: {filter: 1.14,
              core: 1.14}
    valence states:
      #              energy  rcut
      - 2s(2.00)   -13.751   0.635
      - 2p(2.00)    -5.284   0.635
      -  s          13.461   0.635
      -  p          21.927   0.635
      -  d           0.000   0.635
  
    # Using partial waves for C as LCAO basis

  H:
    name: Hydrogen
    id: d65de229564ff8ea4db303e23b6d1ecf
    Z: 1.0
    valence: 1
    core: 0
    charge: 0.0
    file: /jet/home/vazumah/datasets/gpaw-setups-0.9.20000/H.PBE.gz
    compensation charges: {type: gauss,
                           rc: 0.15,
                           lmax: 2}
    cutoffs: {filter: 0.85,
              core: 0.53}
    valence states:
      #              energy  rcut
      - 1s(1.00)    -6.494   0.476
      -  s          20.717   0.476
      -  p           0.000   0.476
  
    # Using partial waves for H as LCAO basis

  N:
    name: Nitrogen
    id: f7500608b86eaa90eef8b1d9a670dc53
    Z: 7.0
    valence: 5
    core: 2
    charge: 0.0
    file: /jet/home/vazumah/datasets/gpaw-setups-0.9.20000/N.PBE.gz
    compensation charges: {type: gauss,
                           rc: 0.18,
                           lmax: 2}
    cutoffs: {filter: 1.11,
              core: 0.96}
    valence states:
      #              energy  rcut
      - 2s(2.00)   -18.583   0.603
      - 2p(3.00)    -7.089   0.529
      -  s           8.629   0.603
      -  p          20.123   0.529
      -  d           0.000   0.577
  
    # Using partial waves for N as LCAO basis

Reference energy: -17528.314784  # eV

Spin-paired calculation

Convergence criteria:
 Maximum [total energy] change in last 3 cyles: 0.0005 eV / electron
 Maximum integral of absolute [dens]ity change: 0.0001 electrons / valence electron
 Maximum integral of absolute [eigenst]ate change: 4e-08 eV^2 / valence electron
 Maximum number of scf [iter]ations: 333
 (Square brackets indicate name in SCF output, whereas a 'c' in
 the SCF output indicates the quantity has converged.)

Symmetries present (total): 1

  ( 1  0  0)
  ( 0  1  0)
  ( 0  0  1)

16 k-points: 4 x 4 x 1 Monkhorst-Pack grid
8 k-points in the irreducible part of the Brillouin zone
       k-points in crystal coordinates                weights
   0:     0.12500000   -0.37500000    0.00000000          2/16
   1:     0.12500000   -0.12500000    0.00000000          2/16
   2:     0.12500000    0.12500000    0.00000000          2/16
   3:     0.12500000    0.37500000    0.00000000          2/16
   4:     0.37500000   -0.37500000    0.00000000          2/16
   5:     0.37500000   -0.12500000    0.00000000          2/16
   6:     0.37500000    0.12500000    0.00000000          2/16
   7:     0.37500000    0.37500000    0.00000000          2/16

Wave functions: Uniform real-space grid
  Kinetic energy operator: 6*3+1=19 point O(h^6) finite-difference Laplacian
  ScaLapack parameters: grid=1x1, blocksize=None
  Wavefunction extrapolation:
    Improved wavefunction reuse through dual PAW basis 

Occupation numbers: Fermi-Dirac:
  width: 0.0500  # eV
 

Eigensolver
   Davidson(niter=2) 

Densities:
  Coarse grid: 60*60*176 grid
  Fine grid: 120*120*352 grid
  Total Charge: 0.000000 

Density mixing:
  Method: separate
  Backend: pulay
  Linear mixing parameter: 0.05
  old densities: 5
  Damping of long wavelength oscillations: 50 

Hamiltonian:
  XC and Coulomb potentials evaluated on a 120*120*352 grid
  Using the BEEF-vdW Exchange-Correlation functional
  Interpolation: tri-quintic (5. degree polynomial)
  Poisson solver: FastPoissonSolver using
    Stencil: 6*3+1=19 point O(h^6) finite-difference Laplacian
    FFT axes: [0, 1]
    FST axes: [2]

Dipole correction along z-axis 

XC parameters: BEEF-vdW with 2 nearest neighbor stencil

Memory estimate:
  Process memory now: 132.29 MiB
  Calculator: 93.74 MiB
    Density: 23.40 MiB
      Arrays: 7.76 MiB
      Localized functions: 12.69 MiB
      Mixer: 2.95 MiB
    Hamiltonian: 6.08 MiB
      Arrays: 5.07 MiB
      XC: 0.00 MiB
      Poisson: 0.00 MiB
      vbar: 1.00 MiB
    Wavefunctions: 64.26 MiB
      Arrays psit_nG: 30.12 MiB
      Eigensolver: 33.47 MiB
      Projections: 0.02 MiB
      Projectors: 0.67 MiB

Total number of cores used: 128
Parallelization over k-points: 8
Domain decomposition: 2 x 2 x 4

Number of atoms: 51
Number of atomic orbitals: 180
Number of bands in calculation: 51
Number of valence electrons: 78
Bands to converge: occupied

... initialized

Initializing position-dependent things.

Density initialized from atomic densities
Creating initial wave functions:
  51 bands from LCAO basis set

       .-----------------------.  
      /|                       |  
     / |                       |  
    /  |                       |  
   /   |                       |  
  /    |                       |  
 *     |                       |  
 |     |                       |  
 |     |                       |  
 |     |                       |  
 |     |                       |  
 |     |                       |  
 |     |              H     H  |  
 |     |                   C   |  
 |     |                CO  H  |  
 |     |              H   H    |  
 |     |                       |  
 |     |          H  HO        |  
 |   Li|     Li    C LiN       |  
 |     |  Li      Hi  N   Li   |  
 | Li  |   Li      Li          |  
 |     |Li      Li      Li     |  
 Li    | Li      Li            |  
 |   LLi     LLi     LLi       |  
 |     |  Li      Li      Li   |  
 | Li  |   Li      Li          |  
 |     |Li      Li      Li     |  
 Li    | Li      Li            |  
 |    Li      Li      Li       |  
 |     |                       |  
 |     |                       |  
 |     |                       |  
 |     |                       |  
 |     |                       |  
 |     |                       |  
 |     .-----------------------.  
 |    /                       /   
 |   /                       /    
 |  /                       /     
 | /                       /      
 |/                       /       
 *-----------------------*        

Positions:
   0 Li     1.617037    1.617037   10.000000    ( 0.0000,  0.0000,  0.0000)
   1 Li     4.851111    1.617037   10.000000    ( 0.0000,  0.0000,  0.0000)
   2 Li     8.085185    1.617037   10.000000    ( 0.0000,  0.0000,  0.0000)
   3 Li     1.617037    4.851111   10.000000    ( 0.0000,  0.0000,  0.0000)
   4 Li     4.851111    4.851111   10.000000    ( 0.0000,  0.0000,  0.0000)
   5 Li     8.085185    4.851111   10.000000    ( 0.0000,  0.0000,  0.0000)
   6 Li     1.617037    8.085185   10.000000    ( 0.0000,  0.0000,  0.0000)
   7 Li     4.851111    8.085185   10.000000    ( 0.0000,  0.0000,  0.0000)
   8 Li     8.085185    8.085185   10.000000    ( 0.0000,  0.0000,  0.0000)
   9 Li     0.000000    0.000000   11.617037    ( 0.0000,  0.0000,  0.0000)
  10 Li     3.234074    0.000000   11.617037    ( 0.0000,  0.0000,  0.0000)
  11 Li     6.468148    0.000000   11.617037    ( 0.0000,  0.0000,  0.0000)
  12 Li     0.000000    3.234074   11.617037    ( 0.0000,  0.0000,  0.0000)
  13 Li     3.234074    3.234074   11.617037    ( 0.0000,  0.0000,  0.0000)
  14 Li     6.468148    3.234074   11.617037    ( 0.0000,  0.0000,  0.0000)
  15 Li     0.000000    6.468148   11.617037    ( 0.0000,  0.0000,  0.0000)
  16 Li     3.234074    6.468148   11.617037    ( 0.0000,  0.0000,  0.0000)
  17 Li     6.468148    6.468148   11.617037    ( 0.0000,  0.0000,  0.0000)
  18 Li     1.617038    1.617038   13.469728    ( 0.0000,  0.0000,  0.0000)
  19 Li     4.851111    1.617038   13.469729    ( 0.0000,  0.0000,  0.0000)
  20 Li     8.085184    1.617038   13.469728    ( 0.0000,  0.0000,  0.0000)
  21 Li     1.617038    4.851111   13.469729    ( 0.0000,  0.0000,  0.0000)
  22 Li     4.851111    4.851111   13.469730    ( 0.0000,  0.0000,  0.0000)
  23 Li     8.085184    4.851111   13.469729    ( 0.0000,  0.0000,  0.0000)
  24 Li     1.617038    8.085184   13.469728    ( 0.0000,  0.0000,  0.0000)
  25 Li     4.851111    8.085184   13.469729    ( 0.0000,  0.0000,  0.0000)
  26 Li     8.085184    8.085184   13.469728    ( 0.0000,  0.0000,  0.0000)
  27 Li    -0.000000   -0.000000   15.445939    ( 0.0000,  0.0000,  0.0000)
  28 Li     3.234074    0.000000   15.445939    ( 0.0000,  0.0000,  0.0000)
  29 Li     6.468148    0.000000   15.445939    ( 0.0000,  0.0000,  0.0000)
  30 Li     0.000000    3.234074   15.445939    ( 0.0000,  0.0000,  0.0000)
  31 Li     3.234076    3.234076   15.445938    ( 0.0000,  0.0000,  0.0000)
  32 Li     6.468146    3.234076   15.445938    ( 0.0000,  0.0000,  0.0000)
  33 Li     0.000000    6.468148   15.445939    ( 0.0000,  0.0000,  0.0000)
  34 Li     3.234076    6.468146   15.445938    ( 0.0000,  0.0000,  0.0000)
  35 Li     6.468146    6.468146   15.445938    ( 0.0000,  0.0000,  0.0000)
  36 O      8.085185    1.617037   18.445939    ( 0.0000,  0.0000,  0.0000)
  37 O      8.064856   -3.245305   18.439829    ( 0.0000,  0.0000,  0.0000)
  38 C      8.083641   -0.778878   18.460386    ( 0.0000,  0.0000,  0.0000)
  39 C      7.217366    0.472167   18.448818    ( 0.0000,  0.0000,  0.0000)
  40 C      7.253373   -2.061494   18.436457    ( 0.0000,  0.0000,  0.0000)
  41 H      8.744147   -0.756795   17.585726    ( 0.0000,  0.0000,  0.0000)
  42 H      8.720751   -0.778737   19.348391    ( 0.0000,  0.0000,  0.0000)
  43 H      6.577107    0.477097   17.555271    ( 0.0000,  0.0000,  0.0000)
  44 H      6.568688    0.485709   19.335503    ( 0.0000,  0.0000,  0.0000)
  45 H      6.577807   -2.062195   17.569134    ( 0.0000,  0.0000,  0.0000)
  46 H      6.637282   -2.138343   19.336560    ( 0.0000,  0.0000,  0.0000)
  47 H      7.540828    2.412562   18.441073    ( 0.0000,  0.0000,  0.0000)
  48 H      8.639896   -3.212722   17.665312    ( 0.0000,  0.0000,  0.0000)
  49 N      8.085000    1.617000   16.945939    ( 0.0000,  0.0000,  0.0000)
  50 N      8.085000    2.713622   16.945939    ( 0.0000,  0.0000,  0.0000)

Unit cell:
           periodic     x           y           z      points  spacing
  1. axis:    yes    9.702222    0.000000    0.000000    60     0.1617
  2. axis:    yes    0.000000    9.702222    0.000000    60     0.1617
  3. axis:    no     0.000000    0.000000   28.351111   176     0.1611

  Lengths:   9.702222   9.702222  28.351111
  Angles:   90.000000  90.000000  90.000000

Effective grid spacing dv^(1/3) = 0.1615

     iter     time        total  log10-change:
                         energy  eigst   dens
iter:   1 21:52:42  -671.736262
iter:   2 21:52:50   -58.614785  +2.76  +0.03
iter:   3 21:52:58  -135.864042  +3.18  -0.20
iter:   4 21:53:06  -249.525566  +2.92  -0.33
Writing to output.gpw (mode='')

iter:   5 21:53:14  -302.322178  +2.67  -0.41
iter:   6 21:53:22  -350.561990  +2.41  -0.62
iter:   7 21:53:29  -375.892921  +2.06  -0.66
iter:   8 21:53:37  -376.475326  +1.67  -0.55
iter:   9 21:53:45  -354.407562  +1.25  -0.55
Writing to output.gpw (mode='')

iter:  10 21:53:53  -354.775535  +0.94  -0.73
iter:  11 21:54:01  -565.666496  +2.77  -0.75
iter:  12 21:54:09  -533.624369  +2.12  -0.21
iter:  13 21:54:23  -344.851212  +1.75  -0.20
iter:  14 21:54:30  -346.070602  +1.41  -0.79
Writing to output.gpw (mode='')

iter:  15 21:54:38  -350.002533  +1.74  -0.80
iter:  16 21:54:46  -353.922980  +1.42  -0.88
iter:  17 21:54:54  -351.543566  +0.90  -0.84
iter:  18 21:55:02  -380.965829  +1.40  -0.85
iter:  19 21:55:10  -358.062292  +0.35  -0.48
Writing to output.gpw (mode='')

iter:  20 21:55:18  -346.252746  +0.55  -0.63
iter:  21 21:55:26  -345.802517  +0.48  -1.02
iter:  22 21:55:34  -345.768649  +0.56  -1.20
iter:  23 21:55:42  -345.951658  -0.05  -1.39
iter:  24 21:55:50  -346.002373  -0.17  -1.30
Writing to output.gpw (mode='')

iter:  25 21:55:58  -345.874252  -0.61  -1.48
iter:  26 21:56:06  -345.812789  -0.39  -1.59
iter:  27 21:56:14  -345.793188  -0.63  -1.64
iter:  28 21:56:22  -345.798117c -0.80  -1.63
iter:  29 21:56:30  -345.772512c -1.29  -1.81
Writing to output.gpw (mode='')

iter:  30 21:56:38  -345.756670  -1.28  -1.85
iter:  31 21:56:46  -345.765327c -1.62  -1.86
iter:  32 21:56:54  -345.796071  -1.47  -1.94
iter:  33 21:57:01  -345.769151c -1.49  -1.96
iter:  34 21:57:11  -345.762288c -1.61  -2.13
Writing to output.gpw (mode='')

iter:  35 21:57:21  -345.763795c -2.01  -2.23
iter:  36 21:57:36  -345.766998c -2.04  -2.33
iter:  37 21:57:44  -345.765676c -2.37  -2.54
iter:  38 21:57:52  -345.767014c -2.37  -2.59
iter:  39 21:58:00  -345.768304c -2.21  -2.73
Writing to output.gpw (mode='')

iter:  40 21:58:08  -345.768756c -2.59  -2.80
iter:  41 21:58:16  -345.768745c -2.74  -2.89
iter:  42 21:58:24  -345.769710c -2.72  -2.94
iter:  43 21:58:32  -345.770038c -2.85  -3.01
iter:  44 21:58:40  -345.769799c -3.01  -3.07
Writing to output.gpw (mode='')

iter:  45 21:58:48  -345.770073c -3.06  -3.34
iter:  46 21:58:56  -345.770225c -3.18  -3.37
iter:  47 21:59:04  -345.770479c -2.98  -3.38
iter:  48 21:59:18  -345.770606c -3.41  -3.47
iter:  49 21:59:27  -345.770631c -3.40  -3.52
Writing to output.gpw (mode='')

iter:  50 21:59:35  -345.770720c -3.56  -3.64
iter:  51 21:59:43  -345.770799c -3.40  -3.68
iter:  52 21:59:51  -345.770874c -3.58  -3.81
iter:  53 21:59:59  -345.770921c -3.69  -3.85
iter:  54 22:00:06  -345.770956c -3.75  -3.83
Writing to output.gpw (mode='')

iter:  55 22:00:14  -345.770996c -3.86  -3.85
iter:  56 22:00:22  -345.771038c -3.63  -3.79
iter:  57 22:00:30  -345.771073c -3.72  -3.73
iter:  58 22:00:38  -345.771102c -4.04  -3.77
iter:  59 22:00:46  -345.771110c -4.13  -3.97
Writing to output.gpw (mode='')

iter:  60 22:00:54  -345.771117c -4.16  -4.00c
iter:  61 22:01:02  -345.771128c -4.22  -4.07c
iter:  62 22:01:10  -345.771128c -4.32  -4.13c
iter:  63 22:01:18  -345.771144c -4.49  -4.29c
iter:  64 22:01:25  -345.771138c -4.46  -4.28c
Writing to output.gpw (mode='')

iter:  65 22:01:33  -345.771147c -4.43  -4.43c
iter:  66 22:01:41  -345.771160c -4.47  -4.54c
iter:  67 22:01:49  -345.771163c -4.55  -4.63c
iter:  68 22:01:57  -345.771165c -4.63  -4.62c
iter:  69 22:02:05  -345.771172c -4.73  -4.63c
Writing to output.gpw (mode='')

iter:  70 22:02:13  -345.771173c -4.67  -4.73c
iter:  71 22:02:21  -345.771177c -4.88  -4.70c
iter:  72 22:02:29  -345.771180c -4.86  -4.64c
iter:  73 22:02:36  -345.771181c -4.99  -4.59c
iter:  74 22:02:44  -345.771182c -5.05  -4.53c
Writing to output.gpw (mode='')

iter:  75 22:02:52  -345.771182c -4.93  -4.51c
iter:  76 22:03:00  -345.771179c -5.06  -4.52c
iter:  77 22:03:08  -345.771181c -5.23  -4.53c
iter:  78 22:03:16  -345.771182c -5.20  -4.49c
iter:  79 22:03:26  -345.771181c -5.33  -4.73c
Writing to output.gpw (mode='')

iter:  80 22:03:34  -345.771181c -5.30  -4.82c
iter:  81 22:03:42  -345.771179c -5.31  -4.81c
iter:  82 22:03:49  -345.771179c -5.43  -4.81c
iter:  83 22:03:57  -345.771179c -5.44  -4.80c
iter:  84 22:04:05  -345.771178c -5.40  -4.82c
Writing to output.gpw (mode='')

iter:  85 22:04:18  -345.771179c -5.47  -4.78c
iter:  86 22:04:27  -345.771178c -5.59  -4.77c
iter:  87 22:04:35  -345.771182c -5.74  -4.74c
iter:  88 22:04:43  -345.771183c -5.76  -4.74c
iter:  89 22:04:51  -345.771185c -5.71  -4.60c
Writing to output.gpw (mode='')

iter:  90 22:04:59  -345.771184c -5.84  -4.68c
iter:  91 22:05:06  -345.771180c -5.83  -4.78c
iter:  92 22:05:14  -345.771181c -5.96  -4.84c
iter:  93 22:05:22  -345.771181c -5.96  -4.80c
iter:  94 22:05:30  -345.771182c -6.06  -4.86c
Writing to output.gpw (mode='')

iter:  95 22:05:38  -345.771183c -6.18  -4.82c
iter:  96 22:05:46  -345.771181c -6.10  -4.79c
iter:  97 22:05:54  -345.771180c -6.04  -4.88c
iter:  98 22:06:02  -345.771182c -6.27  -4.92c
iter:  99 22:06:09  -345.771182c -6.44  -5.30c
Writing to output.gpw (mode='')

iter: 100 22:06:17  -345.771181c -6.37  -5.34c
iter: 101 22:06:25  -345.771181c -6.11  -5.40c
iter: 102 22:06:33  -345.771181c -6.38  -5.56c
iter: 103 22:06:41  -345.771181c -6.56  -5.65c
iter: 104 22:06:49  -345.771180c -6.47  -5.70c
Writing to output.gpw (mode='')

iter: 105 22:06:57  -345.771180c -6.37  -5.80c
iter: 106 22:07:05  -345.771181c -6.47  -5.88c
iter: 107 22:07:13  -345.771181c -6.50  -6.06c
iter: 108 22:07:21  -345.771181c -6.41  -6.12c
iter: 109 22:07:29  -345.771181c -6.78  -6.13c
Writing to output.gpw (mode='')

iter: 110 22:07:36  -345.771181c -6.71  -6.04c
iter: 111 22:07:44  -345.771181c -6.97  -6.06c
iter: 112 22:07:53  -345.771181c -6.98  -6.06c
iter: 113 22:08:00  -345.771181c -6.83  -6.03c
iter: 114 22:08:08  -345.771181c -7.01  -6.01c
Writing to output.gpw (mode='')

iter: 115 22:08:16  -345.771181c -7.00  -5.98c
iter: 116 22:08:24  -345.771181c -7.21  -6.01c
iter: 117 22:08:32  -345.771181c -7.25  -5.97c
iter: 118 22:08:40  -345.771180c -7.30  -5.92c
iter: 119 22:08:48  -345.771180c -7.39  -5.96c
Writing to output.gpw (mode='')

iter: 120 22:08:56  -345.771181c -7.35  -6.29c
iter: 121 22:09:04  -345.771180c -7.41c -6.38c

Converged after 121 iterations.

Dipole moment: (-1.168349, -7.284349, 0.288441) |e|*Ang

Energy contributions relative to reference atoms: (reference = -17528.314784)

Kinetic:       +214.942323
Potential:     -197.507470
External:        +0.000000
XC:            -364.274001
Entropy (-ST):   -0.161620
Local:           +1.148778
--------------------------
Free energy:   -345.851990
Extrapolated:  -345.771180

Dipole-layer corrected work functions: 3.389860, 2.835378 eV

Showing only first 2 kpts
 Kpt  Band  Eigenvalues  Occupancy
  0    37     -3.35764    1.98522
  0    38     -3.27481    1.92490
  0    39     -3.01222    0.23672
  0    40     -2.89209    0.02400

  1    37     -3.19150    1.65771
  1    38     -3.10259    0.90007
  1    39     -3.05244    0.46167
  1    40     -3.01305    0.24021


Fermi level: -3.11262

No gap
Writing to output.gpw (mode='')


Forces in eV/Ang:
  0 Li    0.01911    0.00145   -0.27416
  1 Li   -0.01990    0.00287   -0.27482
  2 Li   -0.00105   -0.00732   -0.28112
  3 Li    0.00688    0.00183   -0.28190
  4 Li   -0.00953   -0.00378   -0.27729
  5 Li    0.00556    0.02177   -0.27847
  6 Li   -0.00407   -0.00478   -0.27843
  7 Li   -0.00024    0.00142   -0.27023
  8 Li    0.00500   -0.01375   -0.26589
  9 Li   -0.00663   -0.00948    0.29467
 10 Li    0.00780    0.01721    0.23947
 11 Li    0.00252   -0.00628    0.29333
 12 Li   -0.01300    0.00089    0.31937
 13 Li    0.00430   -0.01191    0.23574
 14 Li    0.00745   -0.00030    0.31903
 15 Li   -0.00013    0.00960    0.22887
 16 Li   -0.00666   -0.00286    0.27970
 17 Li    0.00320    0.00418    0.24617
 18 Li   -0.01813    0.00788    0.04135
 19 Li    0.01919    0.00444    0.05982
 20 Li    0.00191   -0.02625   -0.22645
 21 Li   -0.03155   -0.02816    0.05143
 22 Li    0.02669   -0.02188    0.05604
 23 Li    0.00445    0.05959   -0.07990
 24 Li   -0.00629    0.01918    0.04201
 25 Li    0.00772    0.01647    0.05954
 26 Li   -0.00047   -0.01356    0.07796
 27 Li    0.06017   -0.06261   -0.10783
 28 Li    0.00607    0.02397   -0.01646
 29 Li   -0.09267   -0.10943   -0.33734
 30 Li   -0.13521    0.04638    0.10593
 31 Li    0.02381   -0.01535   -0.00855
 32 Li    0.15495    0.11252    0.05090
 33 Li    0.15224    0.02520   -0.30795
 34 Li   -0.00959   -0.00800   -0.00121
 35 Li   -0.03065   -0.00901   -0.11697
 36 O    -0.47173   -6.28373   10.65230
 37 O    -0.39733    0.19977    0.45730
 38 C     0.00026    0.02330    0.16124
 39 C    -1.29107   -2.36132    2.77504
 40 C     0.16910   -0.25109    0.23811
 41 H     0.01473   -0.14732    0.01980
 42 H     0.02834    0.02746   -0.01867
 43 H    -0.21216    0.18388    0.39497
 44 H     0.09311    0.11879   -0.11297
 45 H    -0.09645    0.08016   -0.05325
 46 H    -0.04631    0.02742   -0.05593
 47 H    -0.41409    1.00131    1.16736
 48 H     0.17980   -0.04227   -0.33099
 49 N     2.66129   -5.50931   -6.28481
 50 N    -0.41257   12.93845   -8.30022

System changes: positions 

Initializing position-dependent things.

Density initialized from wave functions
       .-----------------------.  
      /|                       |  
     / |                       |  
    /  |                       |  
   /   |                       |  
  /    |                       |  
 *     |                       |  
 |     |                       |  
 |     |                       |  
 |     |                       |  
 |     |                       |  
 |     |                       |  
 |     |              H     H  |  
 |     |                   C   |  
 |     |                CO  H  |  
 |     |              H   H    |  
 |     Li              Li      |  
 |     |          H  HO        |  
 |   Li|     Li    C LiN       |  
 |     |  Li      Hi  N   Li   |  
 |     |   Li      Li      Li  |  
 |     |Li      Li      Li     |  
 |     | Li                    |  
 |   LLi     LLi     LLi       |  
 |     |  Li      Li      Li   |  
 | Li  |   Li      Li          |  
 |     |Li      Li      Li     |  
 Li    | Li      Li            |  
 |    Li      Li      Li       |  
 |     |                       |  
 |     |                       |  
 |     |                       |  
 |     |                       |  
 |     |                       |  
 |     |                       |  
 |     .-----------------------.  
 |    /                       /   
 |   /                       /    
 |  /                       /     
 | /                       /      
 |/                       /       
 *-----------------------*        

Positions:
   0 Li     1.617037    1.617037   10.000000    ( 0.0000,  0.0000,  0.0000)
   1 Li     4.851111    1.617037   10.000000    ( 0.0000,  0.0000,  0.0000)
   2 Li     8.085185    1.617037   10.000000    ( 0.0000,  0.0000,  0.0000)
   3 Li     1.617037    4.851111   10.000000    ( 0.0000,  0.0000,  0.0000)
   4 Li     4.851111    4.851111   10.000000    ( 0.0000,  0.0000,  0.0000)
   5 Li     8.085185    4.851111   10.000000    ( 0.0000,  0.0000,  0.0000)
   6 Li     1.617037    8.085185   10.000000    ( 0.0000,  0.0000,  0.0000)
   7 Li     4.851111    8.085185   10.000000    ( 0.0000,  0.0000,  0.0000)
   8 Li     8.085185    8.085185   10.000000    ( 0.0000,  0.0000,  0.0000)
   9 Li     0.000000    0.000000   11.617037    ( 0.0000,  0.0000,  0.0000)
  10 Li     3.234074    0.000000   11.617037    ( 0.0000,  0.0000,  0.0000)
  11 Li     6.468148    0.000000   11.617037    ( 0.0000,  0.0000,  0.0000)
  12 Li     0.000000    3.234074   11.617037    ( 0.0000,  0.0000,  0.0000)
  13 Li     3.234074    3.234074   11.617037    ( 0.0000,  0.0000,  0.0000)
  14 Li     6.468148    3.234074   11.617037    ( 0.0000,  0.0000,  0.0000)
  15 Li     0.000000    6.468148   11.617037    ( 0.0000,  0.0000,  0.0000)
  16 Li     3.234074    6.468148   11.617037    ( 0.0000,  0.0000,  0.0000)
  17 Li     6.468148    6.468148   11.617037    ( 0.0000,  0.0000,  0.0000)
  18 Li     1.616991    1.617059   13.469835    ( 0.0000,  0.0000,  0.0000)
  19 Li     4.851161    1.617050   13.469885    ( 0.0000,  0.0000,  0.0000)
  20 Li     8.085189    1.616970   13.469139    ( 0.0000,  0.0000,  0.0000)
  21 Li     1.616956    4.851038   13.469863    ( 0.0000,  0.0000,  0.0000)
  22 Li     4.851180    4.851054   13.469876    ( 0.0000,  0.0000,  0.0000)
  23 Li     8.085195    4.851266   13.469522    ( 0.0000,  0.0000,  0.0000)
  24 Li     1.617022    8.085234   13.469837    ( 0.0000,  0.0000,  0.0000)
  25 Li     4.851131    8.085226   13.469884    ( 0.0000,  0.0000,  0.0000)
  26 Li     8.085183    8.085149   13.469931    ( 0.0000,  0.0000,  0.0000)
  27 Li     0.000157   -0.000163   15.445659    ( 0.0000,  0.0000,  0.0000)
  28 Li     3.234090    0.000062   15.445896    ( 0.0000,  0.0000,  0.0000)
  29 Li     6.467907   -0.000285   15.445061    ( 0.0000,  0.0000,  0.0000)
  30 Li    -0.000352    3.234194   15.446214    ( 0.0000,  0.0000,  0.0000)
  31 Li     3.234138    3.234037   15.445916    ( 0.0000,  0.0000,  0.0000)
  32 Li     6.468549    3.234369   15.446070    ( 0.0000,  0.0000,  0.0000)
  33 Li     0.000396    6.468214   15.445138    ( 0.0000,  0.0000,  0.0000)
  34 Li     3.234052    6.468125   15.445935    ( 0.0000,  0.0000,  0.0000)
  35 Li     6.468066    6.468122   15.445634    ( 0.0000,  0.0000,  0.0000)
  36 O      8.083958    1.600692   18.473648    ( 0.0000,  0.0000,  0.0000)
  37 O      8.063823   -3.244785   18.441019    ( 0.0000,  0.0000,  0.0000)
  38 C      8.083641   -0.778817   18.460806    ( 0.0000,  0.0000,  0.0000)
  39 C      7.214007    0.466025   18.456036    ( 0.0000,  0.0000,  0.0000)
  40 C      7.253813   -2.062148   18.437077    ( 0.0000,  0.0000,  0.0000)
  41 H      8.744185   -0.757178   17.585778    ( 0.0000,  0.0000,  0.0000)
  42 H      8.720825   -0.778665   19.348343    ( 0.0000,  0.0000,  0.0000)
  43 H      6.576555    0.477575   17.556298    ( 0.0000,  0.0000,  0.0000)
  44 H      6.568930    0.486018   19.335210    ( 0.0000,  0.0000,  0.0000)
  45 H      6.577557   -2.061987   17.568996    ( 0.0000,  0.0000,  0.0000)
  46 H      6.637162   -2.138272   19.336415    ( 0.0000,  0.0000,  0.0000)
  47 H      7.539751    2.415167   18.444109    ( 0.0000,  0.0000,  0.0000)
  48 H      8.640364   -3.212832   17.664451    ( 0.0000,  0.0000,  0.0000)
  49 N      8.091923    1.602669   16.929591    ( 0.0000,  0.0000,  0.0000)
  50 N      8.083927    2.747277   16.924349    ( 0.0000,  0.0000,  0.0000)

Unit cell:
           periodic     x           y           z      points  spacing
  1. axis:    yes    9.702222    0.000000    0.000000    60     0.1617
  2. axis:    yes    0.000000    9.702222    0.000000    60     0.1617
  3. axis:    no     0.000000    0.000000   28.351111   176     0.1611

  Lengths:   9.702222   9.702222  28.351111
  Angles:   90.000000  90.000000  90.000000

Effective grid spacing dv^(1/3) = 0.1615

     iter     time        total  log10-change:
                         energy  eigst   dens
iter:   1 22:09:20  -348.390072  -0.40
iter:   2 22:09:29  -347.261366  -0.48  -1.32
iter:   3 22:09:37  -347.154165  -0.89  -1.33
iter:   4 22:09:45  -347.072283  -0.60  -1.45
Writing to output.gpw (mode='')

iter:   5 22:09:53  -346.828356  -1.05  -1.68
iter:   6 22:10:01  -347.217343  -0.63  -1.97
iter:   7 22:10:09  -346.857529  -1.46  -1.46
iter:   8 22:10:17  -346.840002  -1.64  -1.99
iter:   9 22:10:25  -346.821994c -1.66  -2.10
Writing to output.gpw (mode='')

iter:  10 22:10:33  -346.809786c -2.17  -2.14
iter:  11 22:10:41  -346.805469c -2.41  -2.30
iter:  12 22:10:49  -346.804845c -2.53  -2.66
iter:  13 22:10:57  -346.806925c -3.03  -2.61
iter:  14 22:11:05  -346.811464c -2.85  -2.71
Writing to output.gpw (mode='')

iter:  15 22:11:13  -346.804726c -2.71  -2.46
iter:  16 22:11:21  -346.805262c -2.91  -2.95
iter:  17 22:11:29  -346.805001c -3.42  -3.09
iter:  18 22:11:37  -346.805248c -3.76  -3.26
iter:  19 22:11:45  -346.804951c -4.01  -3.36
Writing to output.gpw (mode='')

iter:  20 22:11:53  -346.805168c -4.38  -3.33
iter:  21 22:12:01  -346.805187c -4.66  -3.50
iter:  22 22:12:09  -346.805210c -4.28  -3.51
iter:  23 22:12:17  -346.805149c -4.75  -3.70
iter:  24 22:12:25  -346.805207c -4.82  -3.64
Writing to output.gpw (mode='')

iter:  25 22:12:33  -346.805204c -4.98  -3.78
iter:  26 22:12:41  -346.805210c -5.00  -3.92
iter:  27 22:12:49  -346.805221c -5.30  -4.09c
iter:  28 22:12:57  -346.805214c -5.54  -4.27c
iter:  29 22:13:05  -346.805214c -5.57  -4.31c
Writing to output.gpw (mode='')

iter:  30 22:13:13  -346.805212c -5.74  -4.33c
iter:  31 22:13:21  -346.805211c -5.88  -4.49c
iter:  32 22:13:29  -346.805225c -5.97  -4.58c
iter:  33 22:13:37  -346.805219c -6.10  -4.69c
iter:  34 22:13:45  -346.805211c -6.15  -4.79c
Writing to output.gpw (mode='')

iter:  35 22:13:53  -346.805219c -6.14  -4.87c
iter:  36 22:14:01  -346.805219c -6.57  -5.08c
iter:  37 22:14:09  -346.805218c -6.44  -5.12c
iter:  38 22:14:23  -346.805219c -6.72  -5.23c
iter:  39 22:14:31  -346.805220c -6.74  -5.27c
Writing to output.gpw (mode='')

iter:  40 22:14:39  -346.805219c -6.72  -5.33c
iter:  41 22:14:47  -346.805217c -6.89  -5.40c
iter:  42 22:14:55  -346.805220c -6.98  -5.33c
iter:  43 22:15:03  -346.805220c -7.24  -5.58c
iter:  44 22:15:11  -346.805219c -7.08  -5.68c
Writing to output.gpw (mode='')

iter:  45 22:15:19  -346.805219c -7.15  -5.69c
iter:  46 22:15:27  -346.805220c -7.45c -5.79c

Converged after 46 iterations.

Dipole moment: (-1.363711, -7.286213, 0.240383) |e|*Ang

Energy contributions relative to reference atoms: (reference = -17528.314784)

Kinetic:       +204.689222
Potential:     -189.915072
External:        +0.000000
XC:            -362.647821
Entropy (-ST):   -0.168136
Local:           +1.152520
--------------------------
Free energy:   -346.889288
Extrapolated:  -346.805220

Dipole-layer corrected work functions: 3.393758, 2.931659 eV

Showing only first 2 kpts
 Kpt  Band  Eigenvalues  Occupancy
  0    37     -3.40238    1.98357
  0    38     -3.31963    1.91690
  0    39     -3.08628    0.35638
  0    40     -2.93561    0.02108

  1    37     -3.24197    1.65988
  1    38     -3.14966    0.87023
  1    39     -3.09524    0.41192
  1    40     -3.06154    0.23353


Fermi level: -3.16271

No gap
Writing to output.gpw (mode='')


Forces in eV/Ang:
  0 Li    0.01932    0.00159   -0.27521
  1 Li   -0.02005    0.00298   -0.27628
  2 Li   -0.00075   -0.00654   -0.28233
  3 Li    0.00821    0.00246   -0.28255
  4 Li   -0.01100   -0.00329   -0.27840
  5 Li    0.00557    0.02005   -0.27891
  6 Li   -0.00242   -0.00497   -0.27890
  7 Li   -0.00180    0.00128   -0.27073
  8 Li    0.00506   -0.01302   -0.26628
  9 Li   -0.00727   -0.00820    0.29776
 10 Li    0.00694    0.01601    0.23804
 11 Li    0.00375   -0.00503    0.29665
 12 Li   -0.01249    0.00112    0.32135
 13 Li    0.00401   -0.01157    0.23492
 14 Li    0.00717   -0.00033    0.32153
 15 Li   -0.00007    0.00875    0.23018
 16 Li   -0.00676   -0.00271    0.27745
 17 Li    0.00302    0.00345    0.24748
 18 Li   -0.01289    0.00756    0.03270
 19 Li    0.01268    0.00379    0.05071
 20 Li    0.00267   -0.02342   -0.21567
 21 Li   -0.03041   -0.02889    0.04896
 22 Li    0.02572   -0.02286    0.05331
 23 Li    0.00491    0.06218   -0.08884
 24 Li   -0.00751    0.01907    0.04204
 25 Li    0.00858    0.01756    0.06011
 26 Li   -0.00032   -0.01729    0.07041
 27 Li    0.02907   -0.02635   -0.05438
 28 Li    0.00513    0.01849   -0.02276
 29 Li   -0.06522   -0.08145   -0.28478
 30 Li   -0.18030   -0.00032    0.18567
 31 Li    0.02326   -0.01007   -0.01602
 32 Li    0.19956    0.08275    0.12412
 33 Li    0.15529    0.02223   -0.30357
 34 Li   -0.01035   -0.00701   -0.00358
 35 Li   -0.03366   -0.00693   -0.10905
 36 O    -0.65797   -4.60199    8.48580
 37 O    -0.29922    0.15303    0.33187
 38 C    -0.05153   -0.12597    0.18215
 39 C    -1.14763   -2.07687    2.34330
 40 C     0.17208   -0.20496    0.21823
 41 H    -0.01022   -0.11685    0.03599
 42 H     0.03750    0.01877   -0.01102
 43 H    -0.16109    0.16435    0.49034
 44 H    -0.08340    0.01327    0.10022
 45 H    -0.08698    0.07606   -0.03833
 46 H    -0.05307    0.02468   -0.04662
 47 H    -0.03110    0.45741    0.94908
 48 H     0.10469   -0.04744   -0.21380
 49 N     2.59408   -0.43772   -5.72274
 50 N    -0.49629    6.59657   -6.59254

System changes: positions 

Initializing position-dependent things.

Density initialized from wave functions
       .-----------------------.  
      /|                       |  
     / |                       |  
    /  |                       |  
   /   |                       |  
  /    |                       |  
 *     |                       |  
 |     |                       |  
 |     |                       |  
 |     |                       |  
 |     |                       |  
 |     |                       |  
 |     |              H     H  |  
 |     |                   C   |  
 |     |                CO  H  |  
 |     |              H   H    |  
 |     Li              Li      |  
 |     |          H  HO        |  
 |   Li|     Li    C LiN       |  
 |     |  Li      Hi  N   Li   |  
 |     |   Li      Li      Li  |  
 |     |Li      Li      Li     |  
 |     | Li                    |  
 |   LLi     LLi     LLi       |  
 |     |  Li      Li      Li   |  
 | Li  |   Li      Li          |  
 |     |Li      Li      Li     |  
 Li    | Li      Li            |  
 |    Li      Li      Li       |  
 |     |                       |  
 |     |                       |  
 |     |                       |  
 |     |                       |  
 |     |                       |  
 |     |                       |  
 |     .-----------------------.  
 |    /                       /   
 |   /                       /    
 |  /                       /     
 | /                       /      
 |/                       /       
 *-----------------------*        

Positions:
   0 Li     1.617037    1.617037   10.000000    ( 0.0000,  0.0000,  0.0000)
   1 Li     4.851111    1.617037   10.000000    ( 0.0000,  0.0000,  0.0000)
   2 Li     8.085185    1.617037   10.000000    ( 0.0000,  0.0000,  0.0000)
   3 Li     1.617037    4.851111   10.000000    ( 0.0000,  0.0000,  0.0000)
   4 Li     4.851111    4.851111   10.000000    ( 0.0000,  0.0000,  0.0000)
   5 Li     8.085185    4.851111   10.000000    ( 0.0000,  0.0000,  0.0000)
   6 Li     1.617037    8.085185   10.000000    ( 0.0000,  0.0000,  0.0000)
   7 Li     4.851111    8.085185   10.000000    ( 0.0000,  0.0000,  0.0000)
   8 Li     8.085185    8.085185   10.000000    ( 0.0000,  0.0000,  0.0000)
   9 Li     0.000000    0.000000   11.617037    ( 0.0000,  0.0000,  0.0000)
  10 Li     3.234074    0.000000   11.617037    ( 0.0000,  0.0000,  0.0000)
  11 Li     6.468148    0.000000   11.617037    ( 0.0000,  0.0000,  0.0000)
  12 Li     0.000000    3.234074   11.617037    ( 0.0000,  0.0000,  0.0000)
  13 Li     3.234074    3.234074   11.617037    ( 0.0000,  0.0000,  0.0000)
  14 Li     6.468148    3.234074   11.617037    ( 0.0000,  0.0000,  0.0000)
  15 Li     0.000000    6.468148   11.617037    ( 0.0000,  0.0000,  0.0000)
  16 Li     3.234074    6.468148   11.617037    ( 0.0000,  0.0000,  0.0000)
  17 Li     6.468148    6.468148   11.617037    ( 0.0000,  0.0000,  0.0000)
  18 Li     1.616944    1.617096   13.469972    ( 0.0000,  0.0000,  0.0000)
  19 Li     4.851203    1.617067   13.470112    ( 0.0000,  0.0000,  0.0000)
  20 Li     8.085205    1.616860   13.468076    ( 0.0000,  0.0000,  0.0000)
  21 Li     1.616805    4.850888   13.470104    ( 0.0000,  0.0000,  0.0000)
  22 Li     4.851308    4.850934   13.470138    ( 0.0000,  0.0000,  0.0000)
  23 Li     8.085222    4.851592   13.469037    ( 0.0000,  0.0000,  0.0000)
  24 Li     1.616979    8.085331   13.470052    ( 0.0000,  0.0000,  0.0000)
  25 Li     4.851178    8.085320   13.470193    ( 0.0000,  0.0000,  0.0000)
  26 Li     8.085182    8.085047   13.470263    ( 0.0000,  0.0000,  0.0000)
  27 Li     0.000196   -0.000170   15.445569    ( 0.0000,  0.0000,  0.0000)
  28 Li     3.234112    0.000138   15.445758    ( 0.0000,  0.0000,  0.0000)
  29 Li     6.467671   -0.000602   15.443792    ( 0.0000,  0.0000,  0.0000)
  30 Li    -0.001430    3.234029   15.447442    ( 0.0000,  0.0000,  0.0000)
  31 Li     3.234255    3.234004   15.445808    ( 0.0000,  0.0000,  0.0000)
  32 Li     6.469724    3.234687   15.446961    ( 0.0000,  0.0000,  0.0000)
  33 Li     0.001199    6.468317   15.443604    ( 0.0000,  0.0000,  0.0000)
  34 Li     3.233996    6.468092   15.445908    ( 0.0000,  0.0000,  0.0000)
  35 Li     6.467883    6.468094   15.445105    ( 0.0000,  0.0000,  0.0000)
  36 O      8.079946    1.583109   18.509352    ( 0.0000,  0.0000,  0.0000)
  37 O      8.062640   -3.244168   18.442272    ( 0.0000,  0.0000,  0.0000)
  38 C      8.083196   -0.779984   18.461809    ( 0.0000,  0.0000,  0.0000)
  39 C      7.208654    0.456423   18.466480    ( 0.0000,  0.0000,  0.0000)
  40 C      7.254702   -2.063032   18.438121    ( 0.0000,  0.0000,  0.0000)
  41 H      8.744045   -0.757668   17.586018    ( 0.0000,  0.0000,  0.0000)
  42 H      8.721049   -0.778600   19.348313    ( 0.0000,  0.0000,  0.0000)
  43 H      6.575912    0.478345   17.559136    ( 0.0000,  0.0000,  0.0000)
  44 H      6.567885    0.485715   19.336470    ( 0.0000,  0.0000,  0.0000)
  45 H      6.577146   -2.061613   17.568852    ( 0.0000,  0.0000,  0.0000)
  46 H      6.636867   -2.138155   19.336209    ( 0.0000,  0.0000,  0.0000)
  47 H      7.540937    2.415591   18.448187    ( 0.0000,  0.0000,  0.0000)
  48 H      8.640634   -3.213093   17.663771    ( 0.0000,  0.0000,  0.0000)
  49 N      8.104927    1.618244   16.902356    ( 0.0000,  0.0000,  0.0000)
  50 N      8.081100    2.758676   16.896697    ( 0.0000,  0.0000,  0.0000)

Unit cell:
           periodic     x           y           z      points  spacing
  1. axis:    yes    9.702222    0.000000    0.000000    60     0.1617
  2. axis:    yes    0.000000    9.702222    0.000000    60     0.1617
  3. axis:    no     0.000000    0.000000   28.351111   176     0.1611

  Lengths:   9.702222   9.702222  28.351111
  Angles:   90.000000  90.000000  90.000000

Effective grid spacing dv^(1/3) = 0.1615

     iter     time        total  log10-change:
                         energy  eigst   dens
iter:   1 22:15:37  -347.684774  -0.79
iter:   2 22:15:45  -347.661704  -1.08  -1.84
iter:   3 22:15:53  -347.647860c -1.57  -1.84
iter:   4 22:16:01  -347.661700c -1.68  -2.15
Writing to output.gpw (mode='')

iter:   5 22:16:09  -347.627601c -1.75  -2.08
iter:   6 22:16:16  -347.629159c -2.28  -2.24
iter:   7 22:16:24  -347.623960c -1.81  -2.20
iter:   8 22:16:32  -347.621651c -2.46  -2.24
iter:   9 22:16:40  -347.622648c -2.22  -2.44
Writing to output.gpw (mode='')

iter:  10 22:16:48  -347.622577c -2.55  -2.54
iter:  11 22:16:56  -347.622597c -2.53  -2.40
iter:  12 22:17:04  -347.621646c -3.39  -2.71
iter:  13 22:17:12  -347.622596c -3.00  -2.81
iter:  14 22:17:20  -347.621738c -3.16  -2.78
Writing to output.gpw (mode='')

iter:  15 22:17:28  -347.621611c -3.83  -2.95
iter:  16 22:17:36  -347.621262c -3.70  -3.09
iter:  17 22:17:44  -347.621321c -3.53  -3.31
iter:  18 22:17:51  -347.621391c -4.35  -3.29
iter:  19 22:17:59  -347.621423c -4.36  -3.46
Writing to output.gpw (mode='')

iter:  20 22:18:07  -347.621387c -4.37  -3.64
iter:  21 22:18:15  -347.621430c -4.45  -3.86
iter:  22 22:18:23  -347.621414c -4.65  -3.82
iter:  23 22:18:31  -347.621397c -5.02  -4.01c
iter:  24 22:18:39  -347.621441c -5.17  -4.12c
Writing to output.gpw (mode='')

iter:  25 22:18:47  -347.621432c -5.34  -4.24c
iter:  26 22:18:55  -347.621410c -5.18  -4.36c
iter:  27 22:19:02  -347.621424c -5.28  -4.49c
iter:  28 22:19:10  -347.621437c -5.42  -4.50c
iter:  29 22:19:23  -347.621429c -5.28  -4.54c
Writing to output.gpw (mode='')

iter:  30 22:19:31  -347.621429c -5.77  -4.61c
iter:  31 22:19:39  -347.621430c -5.60  -4.63c
iter:  32 22:19:47  -347.621430c -5.70  -4.66c
iter:  33 22:19:55  -347.621430c -6.07  -4.68c
iter:  34 22:20:03  -347.621434c -6.07  -4.68c
Writing to output.gpw (mode='')

iter:  35 22:20:11  -347.621430c -6.17  -4.68c
iter:  36 22:20:19  -347.621431c -5.97  -4.70c
iter:  37 22:20:27  -347.621432c -6.25  -4.73c
iter:  38 22:20:35  -347.621431c -6.25  -4.70c
iter:  39 22:20:43  -347.621433c -6.47  -4.73c
Writing to output.gpw (mode='')

iter:  40 22:20:51  -347.621435c -6.69  -4.71c
iter:  41 22:20:59  -347.621434c -6.68  -4.74c
iter:  42 22:21:06  -347.621436c -6.81  -4.77c
iter:  43 22:21:14  -347.621440c -6.93  -4.80c
iter:  44 22:21:22  -347.621436c -6.93  -4.88c
Writing to output.gpw (mode='')

iter:  45 22:21:30  -347.621433c -6.93  -4.97c
iter:  46 22:21:38  -347.621434c -6.83  -5.06c
iter:  47 22:21:46  -347.621434c -7.05  -5.19c
iter:  48 22:21:54  -347.621434c -7.08  -5.28c
iter:  49 22:22:02  -347.621435c -7.41c -5.41c

Converged after 49 iterations.

Dipole moment: (-1.399251, -7.403050, 0.209891) |e|*Ang

Energy contributions relative to reference atoms: (reference = -17528.314784)

Kinetic:       +202.087062
Potential:     -188.505475
External:        +0.000000
XC:            -362.275376
Entropy (-ST):   -0.166612
Local:           +1.155660
--------------------------
Free energy:   -347.704741
Extrapolated:  -347.621435

Dipole-layer corrected work functions: 3.395228, 2.991745 eV

Showing only first 2 kpts
 Kpt  Band  Eigenvalues  Occupancy
  0    37     -3.43333    1.98362
  0    38     -3.35348    1.92165
  0    39     -3.11286    0.33245
  0    40     -2.96572    0.02080

  1    37     -3.27083    1.64891
  1    38     -3.17964    0.86237
  1    39     -3.12939    0.43444
  1    40     -3.09068    0.22685


Fermi level: -3.19349

No gap
Writing to output.gpw (mode='')


Forces in eV/Ang:
  0 Li    0.01987    0.00181   -0.27523
  1 Li   -0.02093    0.00351   -0.27647
  2 Li   -0.00060   -0.00671   -0.28200
  3 Li    0.00846    0.00283   -0.28253
  4 Li   -0.01088   -0.00289   -0.27858
  5 Li    0.00562    0.02049   -0.27902
  6 Li   -0.00191   -0.00473   -0.27949
  7 Li   -0.00204    0.00140   -0.27144
  8 Li    0.00521   -0.01411   -0.26654
  9 Li   -0.00710   -0.00831    0.29731
 10 Li    0.00711    0.01656    0.23844
 11 Li    0.00370   -0.00501    0.29644
 12 Li   -0.01335    0.00088    0.32246
 13 Li    0.00376   -0.01208    0.23423
 14 Li    0.00858   -0.00051    0.32321
 15 Li    0.00010    0.01080    0.22928
 16 Li   -0.00713   -0.00442    0.27580
 17 Li    0.00240    0.00473    0.24693
 18 Li   -0.01449    0.00816    0.03458
 19 Li    0.01398    0.00454    0.05063
 20 Li    0.00376   -0.02574   -0.21635
 21 Li   -0.03152   -0.02993    0.04962
 22 Li    0.02626   -0.02439    0.05508
 23 Li    0.00565    0.06205   -0.08554
 24 Li   -0.00655    0.01781    0.04093
 25 Li    0.00752    0.01713    0.05881
 26 Li   -0.00049   -0.01610    0.06584
 27 Li    0.02553   -0.02165   -0.04507
 28 Li    0.00301    0.01893   -0.02335
 29 Li   -0.06512   -0.08292   -0.26555
 30 Li   -0.12808   -0.00504    0.15410
 31 Li    0.02311   -0.00923   -0.01744
 32 Li    0.15130    0.09441    0.09007
 33 Li    0.15211    0.01665   -0.30144
 34 Li   -0.01025   -0.00703   -0.00440
 35 Li   -0.03099   -0.00862   -0.10553
 36 O    -0.83605   -2.89050    7.19727
 37 O    -0.19858    0.08615    0.22902
 38 C    -0.07346   -0.24201    0.21102
 39 C    -0.79281   -1.52077    1.71411
 40 C     0.13547   -0.17696    0.17307
 41 H    -0.04087   -0.08227    0.04783
 42 H     0.04941    0.00528    0.00033
 43 H    -0.11013    0.14141    0.51397
 44 H    -0.33514   -0.12558    0.31979
 45 H    -0.06296    0.07103   -0.00966
 46 H    -0.05856    0.02223   -0.03291
 47 H     0.27210   -0.24679    0.99724
 48 H     0.03858   -0.04980   -0.11912
 49 N     2.35684   -0.48408   -5.53336
 50 N    -0.51477    5.48853   -5.29545

System changes: positions 

Initializing position-dependent things.

Density initialized from wave functions
       .-----------------------.  
      /|                       |  
     / |                       |  
    /  |                       |  
   /   |                       |  
  /    |                       |  
 *     |                       |  
 |     |                       |  
 |     |                       |  
 |     |                       |  
 |     |                       |  
 |     |                       |  
 |     |              H     H  |  
 |     |                   C   |  
 |     |                CO  H  |  
 |     |              H   H    |  
 |     Li              Li      |  
 |     |          H  HO        |  
 |   Li|     Li    C LiN       |  
 |     |  Li      Hi  N   Li   |  
 |     |   Li      Li      Li  |  
 |     |Li      Li      Li     |  
 |     | Li                    |  
 |   LLi     LLi     LLi       |  
 |     |  Li      Li      Li   |  
 | Li  |   Li      Li          |  
 |     |Li      Li      Li     |  
 Li    | Li      Li            |  
 |    Li      Li      Li       |  
 |     |                       |  
 |     |                       |  
 |     |                       |  
 |     |                       |  
 |     |                       |  
 |     |                       |  
 |     .-----------------------.  
 |    /                       /   
 |   /                       /    
 |  /                       /     
 | /                       /      
 |/                       /       
 *-----------------------*        

Positions:
   0 Li     1.617037    1.617037   10.000000    ( 0.0000,  0.0000,  0.0000)
   1 Li     4.851111    1.617037   10.000000    ( 0.0000,  0.0000,  0.0000)
   2 Li     8.085185    1.617037   10.000000    ( 0.0000,  0.0000,  0.0000)
   3 Li     1.617037    4.851111   10.000000    ( 0.0000,  0.0000,  0.0000)
   4 Li     4.851111    4.851111   10.000000    ( 0.0000,  0.0000,  0.0000)
   5 Li     8.085185    4.851111   10.000000    ( 0.0000,  0.0000,  0.0000)
   6 Li     1.617037    8.085185   10.000000    ( 0.0000,  0.0000,  0.0000)
   7 Li     4.851111    8.085185   10.000000    ( 0.0000,  0.0000,  0.0000)
   8 Li     8.085185    8.085185   10.000000    ( 0.0000,  0.0000,  0.0000)
   9 Li     0.000000    0.000000   11.617037    ( 0.0000,  0.0000,  0.0000)
  10 Li     3.234074    0.000000   11.617037    ( 0.0000,  0.0000,  0.0000)
  11 Li     6.468148    0.000000   11.617037    ( 0.0000,  0.0000,  0.0000)
  12 Li     0.000000    3.234074   11.617037    ( 0.0000,  0.0000,  0.0000)
  13 Li     3.234074    3.234074   11.617037    ( 0.0000,  0.0000,  0.0000)
  14 Li     6.468148    3.234074   11.617037    ( 0.0000,  0.0000,  0.0000)
  15 Li     0.000000    6.468148   11.617037    ( 0.0000,  0.0000,  0.0000)
  16 Li     3.234074    6.468148   11.617037    ( 0.0000,  0.0000,  0.0000)
  17 Li     6.468148    6.468148   11.617037    ( 0.0000,  0.0000,  0.0000)
  18 Li     1.616851    1.617154   13.470193    ( 0.0000,  0.0000,  0.0000)
  19 Li     4.851286    1.617100   13.470431    ( 0.0000,  0.0000,  0.0000)
  20 Li     8.085239    1.616679   13.466621    ( 0.0000,  0.0000,  0.0000)
  21 Li     1.616586    4.850674   13.470441    ( 0.0000,  0.0000,  0.0000)
  22 Li     4.851489    4.850755   13.470518    ( 0.0000,  0.0000,  0.0000)
  23 Li     8.085266    4.852026   13.468440    ( 0.0000,  0.0000,  0.0000)
  24 Li     1.616936    8.085446   13.470327    ( 0.0000,  0.0000,  0.0000)
  25 Li     4.851226    8.085438   13.470591    ( 0.0000,  0.0000,  0.0000)
  26 Li     8.085178    8.084932   13.470666    ( 0.0000,  0.0000,  0.0000)
  27 Li     0.000254   -0.000179   15.445479    ( 0.0000,  0.0000,  0.0000)
  28 Li     3.234118    0.000253   15.445575    ( 0.0000,  0.0000,  0.0000)
  29 Li     6.467310   -0.001092   15.442242    ( 0.0000,  0.0000,  0.0000)
  30 Li    -0.002156    3.233822   15.448571    ( 0.0000,  0.0000,  0.0000)
  31 Li     3.234411    3.233962   15.445657    ( 0.0000,  0.0000,  0.0000)
  32 Li     6.470630    3.235308   15.447616    ( 0.0000,  0.0000,  0.0000)
  33 Li     0.002235    6.468390   15.441560    ( 0.0000,  0.0000,  0.0000)
  34 Li     3.233924    6.468047   15.445866    ( 0.0000,  0.0000,  0.0000)
  35 Li     6.467676    6.468032   15.444425    ( 0.0000,  0.0000,  0.0000)
  36 O      8.072625    1.578136   18.544752    ( 0.0000,  0.0000,  0.0000)
  37 O      8.062149   -3.244099   18.442875    ( 0.0000,  0.0000,  0.0000)
  38 C      8.082407   -0.782763   18.463485    ( 0.0000,  0.0000,  0.0000)
  39 C      7.205655    0.449999   18.473361    ( 0.0000,  0.0000,  0.0000)
  40 C      7.255435   -2.063945   18.438993    ( 0.0000,  0.0000,  0.0000)
  41 H      8.743515   -0.757943   17.586463    ( 0.0000,  0.0000,  0.0000)
  42 H      8.721483   -0.778667   19.348403    ( 0.0000,  0.0000,  0.0000)
  43 H      6.575602    0.479126   17.563094    ( 0.0000,  0.0000,  0.0000)
  44 H      6.563619    0.483743   19.340564    ( 0.0000,  0.0000,  0.0000)
  45 H      6.576878   -2.061167   17.568994    ( 0.0000,  0.0000,  0.0000)
  46 H      6.636414   -2.138025   19.336090    ( 0.0000,  0.0000,  0.0000)
  47 H      7.545704    2.408242   18.454622    ( 0.0000,  0.0000,  0.0000)
  48 H      8.640293   -3.213464   17.663852    ( 0.0000,  0.0000,  0.0000)
  49 N      8.119560    1.630469   16.867194    ( 0.0000,  0.0000,  0.0000)
  50 N      8.077202    2.770349   16.872968    ( 0.0000,  0.0000,  0.0000)

Unit cell:
           periodic     x           y           z      points  spacing
  1. axis:    yes    9.702222    0.000000    0.000000    60     0.1617
  2. axis:    yes    0.000000    9.702222    0.000000    60     0.1617
  3. axis:    no     0.000000    0.000000   28.351111   176     0.1611

  Lengths:   9.702222   9.702222  28.351111
  Angles:   90.000000  90.000000  90.000000

Effective grid spacing dv^(1/3) = 0.1615

     iter     time        total  log10-change:
                         energy  eigst   dens
iter:   1 22:22:12  -348.348781  -0.82
iter:   2 22:22:20  -348.339942  -1.14  -1.88
iter:   3 22:22:28  -348.324654c -1.65  -1.88
iter:   4 22:22:36  -348.343083c -1.48  -2.31
Writing to output.gpw (mode='')

iter:   5 22:22:43  -348.311651c -1.72  -2.19
iter:   6 22:22:51  -348.311455c -2.38  -2.22
iter:   7 22:22:59  -348.308822c -2.36  -2.27
iter:   8 22:23:08  -348.308661c -2.29  -2.52
iter:   9 22:23:15  -348.308559c -2.61  -2.40
Writing to output.gpw (mode='')

iter:  10 22:23:23  -348.308151c -2.79  -2.80
iter:  11 22:23:31  -348.307941c -3.21  -2.96
iter:  12 22:23:39  -348.308475c -3.25  -2.97
iter:  13 22:23:47  -348.307886c -3.30  -3.13
iter:  14 22:23:55  -348.308440c -3.47  -3.10
Writing to output.gpw (mode='')

iter:  15 22:24:03  -348.308287c -3.75  -3.30
iter:  16 22:24:19  -348.308258c -3.87  -3.52
iter:  17 22:24:28  -348.308207c -4.21  -3.54
iter:  18 22:24:36  -348.308261c -4.13  -3.69
iter:  19 22:24:44  -348.308259c -4.40  -3.74
Writing to output.gpw (mode='')

iter:  20 22:24:52  -348.308297c -4.53  -3.84
iter:  21 22:25:00  -348.308292c -4.74  -3.97
iter:  22 22:25:08  -348.308289c -4.74  -4.06c
iter:  23 22:25:16  -348.308309c -4.74  -4.08c
iter:  24 22:25:24  -348.308299c -4.91  -4.12c
Writing to output.gpw (mode='')

iter:  25 22:25:32  -348.308308c -4.92  -4.36c
iter:  26 22:25:40  -348.308305c -5.39  -4.33c
iter:  27 22:25:48  -348.308302c -5.38  -4.33c
iter:  28 22:25:56  -348.308303c -5.53  -4.33c
iter:  29 22:26:04  -348.308307c -5.39  -4.31c
Writing to output.gpw (mode='')

iter:  30 22:26:12  -348.308302c -5.58  -4.28c
iter:  31 22:26:20  -348.308303c -5.60  -4.36c
iter:  32 22:26:28  -348.308303c -5.88  -4.39c
iter:  33 22:26:36  -348.308307c -5.99  -4.36c
iter:  34 22:26:44  -348.308308c -5.65  -4.42c
Writing to output.gpw (mode='')

iter:  35 22:26:52  -348.308308c -5.85  -4.40c
iter:  36 22:27:00  -348.308307c -5.92  -4.44c
iter:  37 22:27:09  -348.308307c -6.10  -4.40c
iter:  38 22:27:22  -348.308308c -6.38  -4.45c
iter:  39 22:27:37  -348.308318c -6.40  -4.47c
Writing to output.gpw (mode='')

iter:  40 22:27:47  -348.308318c -6.22  -4.51c
iter:  41 22:27:55  -348.308326c -6.34  -4.56c
iter:  42 22:28:03  -348.308321c -6.50  -4.64c
iter:  43 22:28:11  -348.308316c -6.52  -4.70c
iter:  44 22:28:19  -348.308320c -6.64  -4.82c
Writing to output.gpw (mode='')

iter:  45 22:28:27  -348.308321c -6.86  -4.97c
iter:  46 22:28:35  -348.308321c -6.83  -5.07c
iter:  47 22:28:43  -348.308320c -7.09  -5.27c
iter:  48 22:28:51  -348.308322c -7.00  -5.23c
iter:  49 22:28:59  -348.308320c -7.19  -5.33c
Writing to output.gpw (mode='')

iter:  50 22:29:07  -348.308321c -6.98  -5.36c
iter:  51 22:29:19  -348.308321c -7.49c -5.67c

Converged after 51 iterations.

Dipole moment: (-1.467690, -7.466341, 0.168727) |e|*Ang

Energy contributions relative to reference atoms: (reference = -17528.314784)

Kinetic:       +199.825219
Potential:     -187.197914
External:        +0.000000
XC:            -362.011101
Entropy (-ST):   -0.165801
Local:           +1.158374
--------------------------
Free energy:   -348.391221
Extrapolated:  -348.308321

Dipole-layer corrected work functions: 3.397558, 3.073207 eV

Showing only first 2 kpts
 Kpt  Band  Eigenvalues  Occupancy
  0    37     -3.47280    1.98282
  0    38     -3.39778    1.92519
  0    39     -3.15140    0.31429
  0    40     -3.00613    0.02020

  1    37     -3.31050    1.63588
  1    38     -3.22039    0.85121
  1    39     -3.17585    0.46626
  1    40     -3.12899    0.21284


Fermi level: -3.23538

No gap
Writing to output.gpw (mode='')


Forces in eV/Ang:
  0 Li    0.02049    0.00219   -0.27553
  1 Li   -0.02183    0.00387   -0.27685
  2 Li   -0.00042   -0.00670   -0.28162
  3 Li    0.00878    0.00339   -0.28271
  4 Li   -0.01071   -0.00233   -0.27883
  5 Li    0.00574    0.02056   -0.27926
  6 Li   -0.00107   -0.00433   -0.28026
  7 Li   -0.00244    0.00163   -0.27241
  8 Li    0.00527   -0.01532   -0.26671
  9 Li   -0.00686   -0.00816    0.29677
 10 Li    0.00733    0.01686    0.23906
 11 Li    0.00368   -0.00477    0.29609
 12 Li   -0.01415    0.00062    0.32349
 13 Li    0.00351   -0.01248    0.23358
 14 Li    0.00998   -0.00046    0.32452
 15 Li    0.00013    0.01279    0.22889
 16 Li   -0.00750   -0.00648    0.27358
 17 Li    0.00179    0.00640    0.24669
 18 Li   -0.01533    0.00853    0.03531
 19 Li    0.01456    0.00524    0.04949
 20 Li    0.00477   -0.02681   -0.21025
 21 Li   -0.03198   -0.03093    0.04951
 22 Li    0.02609   -0.02566    0.05609
 23 Li    0.00620    0.06115   -0.08100
 24 Li   -0.00571    0.01635    0.03982
 25 Li    0.00623    0.01618    0.05716
 26 Li   -0.00064   -0.01451    0.06046
 27 Li    0.01740   -0.01167   -0.03157
 28 Li    0.00114    0.01890   -0.02385
 29 Li   -0.06435   -0.08223   -0.24433
 30 Li   -0.08656   -0.01374    0.13335
 31 Li    0.02224   -0.00794   -0.01949
 32 Li    0.11157    0.09951    0.06659
 33 Li    0.14874    0.01075   -0.29806
 34 Li   -0.01001   -0.00674   -0.00553
 35 Li   -0.02849   -0.01111   -0.10122
 36 O    -0.61427   -2.30953    6.27694
 37 O    -0.16208    0.03174    0.19124
 38 C    -0.04846   -0.20833    0.18909
 39 C    -0.62336   -1.02231    1.46083
 40 C     0.09172   -0.16773    0.15177
 41 H    -0.06459   -0.06914    0.06866
 42 H     0.05836   -0.01211    0.01550
 43 H    -0.08188    0.13553    0.47827
 44 H    -0.43502   -0.25153    0.33071
 45 H    -0.04696    0.06397    0.00782
 46 H    -0.05885    0.01401   -0.02664
 47 H     0.15994   -0.31883    0.96705
 48 H     0.02329   -0.04844   -0.08903
 49 N     2.10104   -0.23048   -5.12080
 50 N    -0.47453    4.39606   -4.36064

System changes: positions 

Initializing position-dependent things.

Density initialized from wave functions
       .-----------------------.  
      /|                       |  
     / |                       |  
    /  |                       |  
   /   |                       |  
  /    |                       |  
 *     |                       |  
 |     |                       |  
 |     |                       |  
 |     |                       |  
 |     |                       |  
 |     |                       |  
 |     |              H     H  |  
 |     |                   C   |  
 |     |                CO  H  |  
 |     |              H   H    |  
 |     Li              Li      |  
 |     |          H  HO        |  
 |   Li|     Li    C LiN       |  
 |     |  Li      Hi  N   Li   |  
 |     |   Li      Li      Li  |  
 |     |Li      Li      Li     |  
 |     | Li                    |  
 |   LLi     LLi     LLi       |  
 |     |  Li      Li      Li   |  
 | Li  |   Li      Li          |  
 |     |Li      Li      Li     |  
 Li    | Li      Li            |  
 |    Li      Li      Li       |  
 |     |                       |  
 |     |                       |  
 |     |                       |  
 |     |                       |  
 |     |                       |  
 |     |                       |  
 |     .-----------------------.  
 |    /                       /   
 |   /                       /    
 |  /                       /     
 | /                       /      
 |/                       /       
 *-----------------------*        

Positions:
   0 Li     1.617037    1.617037   10.000000    ( 0.0000,  0.0000,  0.0000)
   1 Li     4.851111    1.617037   10.000000    ( 0.0000,  0.0000,  0.0000)
   2 Li     8.085185    1.617037   10.000000    ( 0.0000,  0.0000,  0.0000)
   3 Li     1.617037    4.851111   10.000000    ( 0.0000,  0.0000,  0.0000)
   4 Li     4.851111    4.851111   10.000000    ( 0.0000,  0.0000,  0.0000)
   5 Li     8.085185    4.851111   10.000000    ( 0.0000,  0.0000,  0.0000)
   6 Li     1.617037    8.085185   10.000000    ( 0.0000,  0.0000,  0.0000)
   7 Li     4.851111    8.085185   10.000000    ( 0.0000,  0.0000,  0.0000)
   8 Li     8.085185    8.085185   10.000000    ( 0.0000,  0.0000,  0.0000)
   9 Li     0.000000    0.000000   11.617037    ( 0.0000,  0.0000,  0.0000)
  10 Li     3.234074    0.000000   11.617037    ( 0.0000,  0.0000,  0.0000)
  11 Li     6.468148    0.000000   11.617037    ( 0.0000,  0.0000,  0.0000)
  12 Li     0.000000    3.234074   11.617037    ( 0.0000,  0.0000,  0.0000)
  13 Li     3.234074    3.234074   11.617037    ( 0.0000,  0.0000,  0.0000)
  14 Li     6.468148    3.234074   11.617037    ( 0.0000,  0.0000,  0.0000)
  15 Li     0.000000    6.468148   11.617037    ( 0.0000,  0.0000,  0.0000)
  16 Li     3.234074    6.468148   11.617037    ( 0.0000,  0.0000,  0.0000)
  17 Li     6.468148    6.468148   11.617037    ( 0.0000,  0.0000,  0.0000)
  18 Li     1.616731    1.617226   13.470464    ( 0.0000,  0.0000,  0.0000)
  19 Li     4.851395    1.617148   13.470793    ( 0.0000,  0.0000,  0.0000)
  20 Li     8.085290    1.616458   13.465021    ( 0.0000,  0.0000,  0.0000)
  21 Li     1.616329    4.850418   13.470828    ( 0.0000,  0.0000,  0.0000)
  22 Li     4.851693    4.850536   13.470968    ( 0.0000,  0.0000,  0.0000)
  23 Li     8.085323    4.852508   13.467822    ( 0.0000,  0.0000,  0.0000)
  24 Li     1.616897    8.085560   13.470629    ( 0.0000,  0.0000,  0.0000)
  25 Li     4.851265    8.085561   13.471028    ( 0.0000,  0.0000,  0.0000)
  26 Li     8.085171    8.084823   13.471073    ( 0.0000,  0.0000,  0.0000)
  27 Li     0.000255   -0.000107   15.445476    ( 0.0000,  0.0000,  0.0000)
  28 Li     3.234105    0.000391   15.445366    ( 0.0000,  0.0000,  0.0000)
  29 Li     6.466871   -0.001678   15.440648    ( 0.0000,  0.0000,  0.0000)
  30 Li    -0.002466    3.233532   15.449546    ( 0.0000,  0.0000,  0.0000)
  31 Li     3.234580    3.233923   15.445467    ( 0.0000,  0.0000,  0.0000)
  32 Li     6.471164    3.236105   15.448022    ( 0.0000,  0.0000,  0.0000)
  33 Li     0.003381    6.468409   15.439249    ( 0.0000,  0.0000,  0.0000)
  34 Li     3.233845    6.467998   15.445807    ( 0.0000,  0.0000,  0.0000)
  35 Li     6.467471    6.467927   15.443686    ( 0.0000,  0.0000,  0.0000)
  36 O      8.067886    1.574836   18.578051    ( 0.0000,  0.0000,  0.0000)
  37 O      8.061760   -3.244577   18.443413    ( 0.0000,  0.0000,  0.0000)
  38 C      8.081957   -0.785064   18.465021    ( 0.0000,  0.0000,  0.0000)
  39 C      7.203645    0.448020   18.479597    ( 0.0000,  0.0000,  0.0000)
  40 C      7.255743   -2.064982   18.439818    ( 0.0000,  0.0000,  0.0000)
  41 H      8.742671   -0.758187   17.587219    ( 0.0000,  0.0000,  0.0000)
  42 H      8.722071   -0.778945   19.348684    ( 0.0000,  0.0000,  0.0000)
  43 H      6.575468    0.480014   17.566979    ( 0.0000,  0.0000,  0.0000)
  44 H      6.558073    0.480151   19.344701    ( 0.0000,  0.0000,  0.0000)
  45 H      6.576731   -2.060736   17.569321    ( 0.0000,  0.0000,  0.0000)
  46 H      6.635908   -2.137981   19.335999    ( 0.0000,  0.0000,  0.0000)
  47 H      7.548522    2.400931   18.461773    ( 0.0000,  0.0000,  0.0000)
  48 H      8.639920   -3.213860   17.664019    ( 0.0000,  0.0000,  0.0000)
  49 N      8.133404    1.641776   16.831409    ( 0.0000,  0.0000,  0.0000)
  50 N      8.073423    2.778852   16.853839    ( 0.0000,  0.0000,  0.0000)

Unit cell:
           periodic     x           y           z      points  spacing
  1. axis:    yes    9.702222    0.000000    0.000000    60     0.1617
  2. axis:    yes    0.000000    9.702222    0.000000    60     0.1617
  3. axis:    no     0.000000    0.000000   28.351111   176     0.1611

  Lengths:   9.702222   9.702222  28.351111
  Angles:   90.000000  90.000000  90.000000

Effective grid spacing dv^(1/3) = 0.1615

     iter     time        total  log10-change:
                         energy  eigst   dens
iter:   1 22:29:30  -348.903078  -0.91
iter:   2 22:29:38  -348.887578  -1.24  -1.90
iter:   3 22:29:45  -348.874979c -1.81  -1.92
iter:   4 22:29:53  -348.872428c -1.96  -2.27
Writing to output.gpw (mode='')

iter:   5 22:30:01  -348.877223c -2.04  -2.31
iter:   6 22:30:09  -348.881842c -2.07  -2.15
iter:   7 22:30:17  -348.861294c -2.10  -2.13
iter:   8 22:30:25  -348.857601c -2.22  -2.52
iter:   9 22:30:33  -348.860171c -2.79  -2.67
Writing to output.gpw (mode='')

iter:  10 22:30:41  -348.857551c -2.79  -2.71
iter:  11 22:30:49  -348.858537c -3.28  -2.89
iter:  12 22:30:56  -348.857815c -3.11  -2.95
iter:  13 22:31:04  -348.858099c -3.39  -3.14
iter:  14 22:31:12  -348.858033c -3.54  -3.24
Writing to output.gpw (mode='')

iter:  15 22:31:20  -348.858192c -3.78  -3.42
iter:  16 22:31:28  -348.858247c -3.77  -3.62
iter:  17 22:31:36  -348.858132c -4.13  -3.53
iter:  18 22:31:44  -348.858195c -4.51  -3.74
iter:  19 22:31:52  -348.858186c -4.32  -3.82
Writing to output.gpw (mode='')

iter:  20 22:31:59  -348.858221c -4.48  -3.89
iter:  21 22:32:07  -348.858237c -4.78  -3.95
iter:  22 22:32:15  -348.858240c -4.91  -3.97
iter:  23 22:32:23  -348.858261c -4.67  -4.08c
iter:  24 22:32:31  -348.858236c -4.89  -4.10c
Writing to output.gpw (mode='')

iter:  25 22:32:39  -348.858248c -5.16  -4.37c
iter:  26 22:32:47  -348.858256c -5.19  -4.33c
iter:  27 22:32:54  -348.858258c -5.06  -4.45c
iter:  28 22:33:02  -348.858252c -5.07  -4.55c
iter:  29 22:33:10  -348.858254c -5.52  -4.52c
Writing to output.gpw (mode='')

iter:  30 22:33:18  -348.858259c -5.56  -4.53c
iter:  31 22:33:26  -348.858256c -5.63  -4.49c
iter:  32 22:33:34  -348.858254c -5.64  -4.58c
iter:  33 22:33:42  -348.858254c -5.77  -4.46c
iter:  34 22:33:50  -348.858258c -5.92  -4.44c
Writing to output.gpw (mode='')

iter:  35 22:33:58  -348.858263c -6.08  -4.50c
iter:  36 22:34:05  -348.858266c -6.08  -4.50c
iter:  37 22:34:19  -348.858272c -6.26  -4.50c
iter:  38 22:34:28  -348.858269c -6.16  -4.56c
iter:  39 22:34:36  -348.858272c -6.60  -4.51c
Writing to output.gpw (mode='')

iter:  40 22:34:44  -348.858272c -6.35  -4.53c
iter:  41 22:34:51  -348.858283c -6.57  -4.73c
iter:  42 22:34:59  -348.858273c -6.72  -4.70c
iter:  43 22:35:07  -348.858272c -6.91  -4.87c
iter:  44 22:35:17  -348.858274c -6.77  -4.90c
Writing to output.gpw (mode='')

iter:  45 22:35:25  -348.858272c -6.78  -4.96c
iter:  46 22:35:33  -348.858272c -7.18  -4.86c
iter:  47 22:35:41  -348.858276c -6.99  -4.88c
iter:  48 22:35:49  -348.858275c -7.18  -5.00c
iter:  49 22:35:56  -348.858274c -7.42c -5.07c

Converged after 49 iterations.

Dipole moment: (-1.541299, -7.456628, 0.125695) |e|*Ang

Energy contributions relative to reference atoms: (reference = -17528.314784)

Kinetic:       +198.043285
Potential:     -186.153862
External:        +0.000000
XC:            -361.827069
Entropy (-ST):   -0.164829
Local:           +1.161786
--------------------------
Free energy:   -348.940688
Extrapolated:  -348.858274

Dipole-layer corrected work functions: 3.399942, 3.158312 eV

Showing only first 2 kpts
 Kpt  Band  Eigenvalues  Occupancy
  0    37     -3.51318    1.98163
  0    38     -3.44418    1.92893
  0    39     -3.19061    0.29101
  0    40     -3.04909    0.01989

  1    37     -3.35231    1.62421
  1    38     -3.26332    0.84320
  1    39     -3.22537    0.50888
  1    40     -3.16802    0.19556


Fermi level: -3.27913

No gap
Writing to output.gpw (mode='')


Forces in eV/Ang:
  0 Li    0.02102    0.00257   -0.27581
  1 Li   -0.02259    0.00407   -0.27728
  2 Li   -0.00027   -0.00663   -0.28108
  3 Li    0.00898    0.00417   -0.28295
  4 Li   -0.01040   -0.00163   -0.27904
  5 Li    0.00593    0.02059   -0.27951
  6 Li   -0.00018   -0.00395   -0.28107
  7 Li   -0.00285    0.00189   -0.27349
  8 Li    0.00534   -0.01655   -0.26682
  9 Li   -0.00659   -0.00797    0.29607
 10 Li    0.00763    0.01702    0.23995
 11 Li    0.00360   -0.00444    0.29564
 12 Li   -0.01491    0.00032    0.32432
 13 Li    0.00338   -0.01297    0.23312
 14 Li    0.01127   -0.00033    0.32548
 15 Li    0.00017    0.01469    0.22866
 16 Li   -0.00789   -0.00857    0.27139
 17 Li    0.00118    0.00822    0.24661
 18 Li   -0.01604    0.00866    0.03590
 19 Li    0.01495    0.00582    0.04797
 20 Li    0.00589   -0.02735   -0.20138
 21 Li   -0.03195   -0.03185    0.04892
 22 Li    0.02548   -0.02658    0.05649
 23 Li    0.00651    0.05960   -0.07539
 24 Li   -0.00510    0.01498    0.03888
 25 Li    0.00500    0.01487    0.05522
 26 Li   -0.00076   -0.01285    0.05495
 27 Li    0.00753   -0.00027   -0.01934
 28 Li   -0.00046    0.01889   -0.02390
 29 Li   -0.06358   -0.08136   -0.22478
 30 Li   -0.05365   -0.02064    0.11503
 31 Li    0.02113   -0.00681   -0.02105
 32 Li    0.07704    0.10374    0.04670
 33 Li    0.14495    0.00522   -0.29403
 34 Li   -0.00977   -0.00624   -0.00658
 35 Li   -0.02566   -0.01375   -0.09639
 36 O    -0.45495   -1.86450    5.38208
 37 O    -0.13741   -0.00846    0.15842
 38 C    -0.06898   -0.14743    0.18128
 39 C    -0.46640   -0.74744    1.30563
 40 C     0.07454   -0.14388    0.13754
 41 H    -0.07194   -0.05756    0.07238
 42 H     0.06373   -0.02578    0.02549
 43 H    -0.05140    0.15610    0.44088
 44 H    -0.48286   -0.33657    0.30070
 45 H    -0.03946    0.05542    0.01558
 46 H    -0.06120    0.00502   -0.01772
 47 H     0.10900   -0.34256    0.92608
 48 H     0.01294   -0.04714   -0.06456
 49 N     1.94114   -0.24762   -4.70483
 50 N    -0.47518    3.75095   -3.66328

System changes: positions 

Initializing position-dependent things.

Density initialized from wave functions
       .-----------------------.  
      /|                       |  
     / |                       |  
    /  |                       |  
   /   |                       |  
  /    |                       |  
 *     |                       |  
 |     |                       |  
 |     |                       |  
 |     |                       |  
 |     |                       |  
 |     |                       |  
 |     |              H     H  |  
 |     |                   C   |  
 |     |                CO  H  |  
 |     |              H   H    |  
 |     |               Li      |  
 |     |          H  HO        |  
 |   Li|     Li    C LiN       |  
 |     |  Li      Hi  N   Li   |  
 |     |   Li      Li      Li  |  
 |     |Li      Li      Li     |  
 Li    | Li                    |  
 |   LLi     LLi     LLi       |  
 |     |  Li      Li      Li   |  
 | Li  |   Li      Li          |  
 |     |Li      Li      Li     |  
 Li    | Li      Li            |  
 |    Li      Li      Li       |  
 |     |                       |  
 |     |                       |  
 |     |                       |  
 |     |                       |  
 |     |                       |  
 |     |                       |  
 |     .-----------------------.  
 |    /                       /   
 |   /                       /    
 |  /                       /     
 | /                       /      
 |/                       /       
 *-----------------------*        

Positions:
   0 Li     1.617037    1.617037   10.000000    ( 0.0000,  0.0000,  0.0000)
   1 Li     4.851111    1.617037   10.000000    ( 0.0000,  0.0000,  0.0000)
   2 Li     8.085185    1.617037   10.000000    ( 0.0000,  0.0000,  0.0000)
   3 Li     1.617037    4.851111   10.000000    ( 0.0000,  0.0000,  0.0000)
   4 Li     4.851111    4.851111   10.000000    ( 0.0000,  0.0000,  0.0000)
   5 Li     8.085185    4.851111   10.000000    ( 0.0000,  0.0000,  0.0000)
   6 Li     1.617037    8.085185   10.000000    ( 0.0000,  0.0000,  0.0000)
   7 Li     4.851111    8.085185   10.000000    ( 0.0000,  0.0000,  0.0000)
   8 Li     8.085185    8.085185   10.000000    ( 0.0000,  0.0000,  0.0000)
   9 Li     0.000000    0.000000   11.617037    ( 0.0000,  0.0000,  0.0000)
  10 Li     3.234074    0.000000   11.617037    ( 0.0000,  0.0000,  0.0000)
  11 Li     6.468148    0.000000   11.617037    ( 0.0000,  0.0000,  0.0000)
  12 Li     0.000000    3.234074   11.617037    ( 0.0000,  0.0000,  0.0000)
  13 Li     3.234074    3.234074   11.617037    ( 0.0000,  0.0000,  0.0000)
  14 Li     6.468148    3.234074   11.617037    ( 0.0000,  0.0000,  0.0000)
  15 Li     0.000000    6.468148   11.617037    ( 0.0000,  0.0000,  0.0000)
  16 Li     3.234074    6.468148   11.617037    ( 0.0000,  0.0000,  0.0000)
  17 Li     6.468148    6.468148   11.617037    ( 0.0000,  0.0000,  0.0000)
  18 Li     1.616583    1.617308   13.470783    ( 0.0000,  0.0000,  0.0000)
  19 Li     4.851525    1.617208   13.471191    ( 0.0000,  0.0000,  0.0000)
  20 Li     8.085359    1.616201   13.463307    ( 0.0000,  0.0000,  0.0000)
  21 Li     1.616037    4.850116   13.471262    ( 0.0000,  0.0000,  0.0000)
  22 Li     4.851919    4.850278   13.471485    ( 0.0000,  0.0000,  0.0000)
  23 Li     8.085390    4.853037   13.467190    ( 0.0000,  0.0000,  0.0000)
  24 Li     1.616860    8.085675   13.470965    ( 0.0000,  0.0000,  0.0000)
  25 Li     4.851295    8.085684   13.471503    ( 0.0000,  0.0000,  0.0000)
  26 Li     8.085163    8.084721   13.471478    ( 0.0000,  0.0000,  0.0000)
  27 Li     0.000149    0.000097   15.445582    ( 0.0000,  0.0000,  0.0000)
  28 Li     3.234073    0.000551   15.445133    ( 0.0000,  0.0000,  0.0000)
  29 Li     6.466365   -0.002349   15.439017    ( 0.0000,  0.0000,  0.0000)
  30 Li    -0.002468    3.233150   15.450431    ( 0.0000,  0.0000,  0.0000)
  31 Li     3.234758    3.233888   15.445238    ( 0.0000,  0.0000,  0.0000)
  32 Li     6.471390    3.237067   15.448247    ( 0.0000,  0.0000,  0.0000)
  33 Li     0.004644    6.468369   15.436657    ( 0.0000,  0.0000,  0.0000)
  34 Li     3.233758    6.467948   15.445728    ( 0.0000,  0.0000,  0.0000)
  35 Li     6.467272    6.467774   15.442896    ( 0.0000,  0.0000,  0.0000)
  36 O      8.064781    1.572989   18.607842    ( 0.0000,  0.0000,  0.0000)
  37 O      8.061403   -3.245484   18.443843    ( 0.0000,  0.0000,  0.0000)
  38 C      8.081165   -0.786605   18.466644    ( 0.0000,  0.0000,  0.0000)
  39 C      7.202718    0.447891   18.486097    ( 0.0000,  0.0000,  0.0000)
  40 C      7.255975   -2.065905   18.440669    ( 0.0000,  0.0000,  0.0000)
  41 H      8.741702   -0.758389   17.588073    ( 0.0000,  0.0000,  0.0000)
  42 H      8.722781   -0.779407   19.349102    ( 0.0000,  0.0000,  0.0000)
  43 H      6.575603    0.481381   17.570845    ( 0.0000,  0.0000,  0.0000)
  44 H      6.551698    0.475301   19.348517    ( 0.0000,  0.0000,  0.0000)
  45 H      6.576603   -2.060346   17.569725    ( 0.0000,  0.0000,  0.0000)
  46 H      6.635309   -2.138041   19.335988    ( 0.0000,  0.0000,  0.0000)
  47 H      7.550519    2.393736   18.469445    ( 0.0000,  0.0000,  0.0000)
  48 H      8.639512   -3.214290   17.664303    ( 0.0000,  0.0000,  0.0000)
  49 N      8.147728    1.651207   16.795273    ( 0.0000,  0.0000,  0.0000)
  50 N      8.069104    2.786337   16.837583    ( 0.0000,  0.0000,  0.0000)

Unit cell:
           periodic     x           y           z      points  spacing
  1. axis:    yes    9.702222    0.000000    0.000000    60     0.1617
  2. axis:    yes    0.000000    9.702222    0.000000    60     0.1617
  3. axis:    no     0.000000    0.000000   28.351111   176     0.1611

  Lengths:   9.702222   9.702222  28.351111
  Angles:   90.000000  90.000000  90.000000

Effective grid spacing dv^(1/3) = 0.1615

     iter     time        total  log10-change:
                         energy  eigst   dens
iter:   1 22:36:06  -349.336820  -1.02
iter:   2 22:36:14  -349.329565  -1.45  -2.02
iter:   3 22:36:22  -349.322885c -2.01  -2.05
iter:   4 22:36:30  -349.313502c -1.85  -2.36
Writing to output.gpw (mode='')

iter:   5 22:36:38  -349.315553c -2.44  -2.49
iter:   6 22:36:46  -349.316762c -2.49  -2.43
iter:   7 22:36:54  -349.312535c -2.44  -2.49
iter:   8 22:37:02  -349.311650c -2.80  -2.83
iter:   9 22:37:10  -349.311877c -3.23  -2.95
Writing to output.gpw (mode='')

iter:  10 22:37:18  -349.312251c -3.44  -3.01
iter:  11 22:37:26  -349.311706c -3.39  -3.08
iter:  12 22:37:34  -349.312028c -3.55  -3.06
iter:  13 22:37:42  -349.311910c -3.81  -3.24
iter:  14 22:37:50  -349.311915c -4.16  -3.54
Writing to output.gpw (mode='')

iter:  15 22:37:58  -349.312058c -4.29  -3.57
iter:  16 22:38:06  -349.311997c -4.38  -3.68
iter:  17 22:38:14  -349.312013c -4.39  -3.88
iter:  18 22:38:22  -349.312024c -4.77  -3.90
iter:  19 22:38:30  -349.312033c -4.88  -3.93
Writing to output.gpw (mode='')

iter:  20 22:38:38  -349.312014c -4.94  -3.97
iter:  21 22:38:46  -349.312028c -5.02  -4.05c
iter:  22 22:38:54  -349.312035c -4.95  -4.08c
iter:  23 22:39:02  -349.312044c -5.41  -4.12c
iter:  24 22:39:10  -349.312061c -5.61  -4.14c
Writing to output.gpw (mode='')

iter:  25 22:39:24  -349.312059c -5.69  -4.18c
iter:  26 22:39:32  -349.312045c -5.54  -4.20c
iter:  27 22:39:40  -349.312045c -5.82  -4.27c
iter:  28 22:39:48  -349.312055c -5.84  -4.30c
iter:  29 22:39:56  -349.312053c -6.13  -4.29c
Writing to output.gpw (mode='')

iter:  30 22:40:04  -349.312061c -5.78  -4.33c
iter:  31 22:40:12  -349.312058c -6.35  -4.49c
iter:  32 22:40:20  -349.312056c -6.23  -4.65c
iter:  33 22:40:28  -349.312054c -6.31  -4.64c
iter:  34 22:40:36  -349.312056c -6.45  -4.71c
Writing to output.gpw (mode='')

iter:  35 22:40:44  -349.312056c -6.55  -4.77c
iter:  36 22:40:52  -349.312057c -6.59  -4.83c
iter:  37 22:41:00  -349.312056c -6.56  -4.99c
iter:  38 22:41:07  -349.312057c -6.56  -5.19c
iter:  39 22:41:15  -349.312057c -6.99  -5.27c
Writing to output.gpw (mode='')

iter:  40 22:41:23  -349.312057c -6.97  -5.34c
iter:  41 22:41:31  -349.312057c -7.07  -5.40c
iter:  42 22:41:39  -349.312057c -7.20  -5.48c
iter:  43 22:41:47  -349.312056c -7.17  -5.49c
iter:  44 22:41:55  -349.312057c -7.39  -5.53c
Writing to output.gpw (mode='')

iter:  45 22:42:03  -349.312057c -7.48c -5.56c

Converged after 45 iterations.

Dipole moment: (-1.621066, -7.416825, 0.083922) |e|*Ang

Energy contributions relative to reference atoms: (reference = -17528.314784)

Kinetic:       +196.302645
Potential:     -185.048459
External:        +0.000000
XC:            -361.648434
Entropy (-ST):   -0.163961
Local:           +1.164172
--------------------------
Free energy:   -349.394038
Extrapolated:  -349.312057

Dipole-layer corrected work functions: 3.402326, 3.240998 eV

Showing only first 2 kpts
 Kpt  Band  Eigenvalues  Occupancy
  0    37     -3.55131    1.97996
  0    38     -3.48914    1.93218
  0    39     -3.22877    0.26992
  0    40     -3.09138    0.01979

  1    37     -3.39369    1.61705
  1    38     -3.30559    0.84066
  1    39     -3.27296    0.54814
  1    40     -3.20499    0.17677


Fermi level: -3.32166

No gap

Forces in eV/Ang:
  0 Li    0.02152    0.00297   -0.27621
  1 Li   -0.02326    0.00417   -0.27790
  2 Li   -0.00014   -0.00637   -0.28058
  3 Li    0.00917    0.00501   -0.28340
  4 Li   -0.01011   -0.00098   -0.27937
  5 Li    0.00624    0.02047   -0.27982
  6 Li    0.00079   -0.00364   -0.28196
  7 Li   -0.00335    0.00218   -0.27469
  8 Li    0.00545   -0.01767   -0.26691
  9 Li   -0.00640   -0.00769    0.29551
 10 Li    0.00807    0.01709    0.24075
 11 Li    0.00353   -0.00401    0.29533
 12 Li   -0.01550    0.00001    0.32490
 13 Li    0.00336   -0.01348    0.23267
 14 Li    0.01228   -0.00010    0.32609
 15 Li    0.00015    0.01618    0.22848
 16 Li   -0.00835   -0.01049    0.26937
 17 Li    0.00069    0.00988    0.24671
 18 Li   -0.01628    0.00858    0.03599
 19 Li    0.01472    0.00631    0.04573
 20 Li    0.00714   -0.02737   -0.19023
 21 Li   -0.03141   -0.03268    0.04780
 22 Li    0.02440   -0.02715    0.05624
 23 Li    0.00664    0.05793   -0.07013
 24 Li   -0.00489    0.01395    0.03828
 25 Li    0.00390    0.01339    0.05325
 26 Li   -0.00081   -0.01151    0.04936
 27 Li   -0.00593    0.01523   -0.00553
 28 Li   -0.00194    0.01848   -0.02381
 29 Li   -0.06139   -0.07843   -0.20492
 30 Li   -0.03341   -0.02841    0.10435
 31 Li    0.01985   -0.00565   -0.02248
 32 Li    0.05227    0.10489    0.03517
 33 Li    0.14122    0.00053   -0.28926
 34 Li   -0.00951   -0.00554   -0.00757
 35 Li   -0.02296   -0.01605   -0.09117
 36 O    -0.36014   -1.60315    4.67752
 37 O    -0.12208   -0.03008    0.13323
 38 C    -0.07005   -0.09863    0.17781
 39 C    -0.35369   -0.57393    1.16820
 40 C     0.05847   -0.12170    0.12662
 41 H    -0.08057   -0.04527    0.07774
 42 H     0.06386   -0.03747    0.02894
 43 H    -0.01021    0.18470    0.41896
 44 H    -0.49892   -0.38763    0.26391
 45 H    -0.03301    0.04737    0.02179
 46 H    -0.06206   -0.00420   -0.01046
 47 H     0.07085   -0.29683    0.85628
 48 H     0.00871   -0.04632   -0.04752
 49 N     1.75488   -0.25197   -4.29620
 50 N    -0.50163    3.27401   -3.14062

System changes: positions 

Initializing position-dependent things.

Density initialized from wave functions
       .-----------------------.  
      /|                       |  
     / |                       |  
    /  |                       |  
[...]
 Kpt  Band  Eigenvalues  Occupancy
  0    37     -3.67923    1.96619
  0    38     -3.49030    1.14141
  0    39     -3.46158    0.85619
  0    40     -3.37168    0.22060

  1    37     -3.78966    1.99623
  1    38     -3.42598    0.53719
  1    39     -3.36658    0.20134
  1    40     -3.35883    0.17498


Fermi level: -3.47607

No gap
Writing to output.gpw (mode='')


Forces in eV/Ang:
  0 Li   -0.00776   -0.01089   -0.28652
  1 Li    0.00978    0.01063   -0.29777
  2 Li   -0.00006    0.00037   -0.25036
  3 Li    0.01559    0.01594   -0.29028
  4 Li   -0.00780    0.00662   -0.28827
  5 Li   -0.00981   -0.00872   -0.29339
  6 Li    0.00850   -0.00868   -0.29623
  7 Li   -0.01575   -0.01393   -0.28277
  8 Li    0.01241    0.00605   -0.29646
  9 Li   -0.02319    0.03205    0.31738
 10 Li    0.00779    0.03338    0.27117
 11 Li    0.02607    0.03784    0.27678
 12 Li   -0.02723   -0.02462    0.23733
 13 Li   -0.00550   -0.02782    0.25470
 14 Li    0.01639   -0.02116    0.31297
 15 Li   -0.00178   -0.01472    0.29299
 16 Li   -0.00744    0.00067    0.27072
 17 Li    0.01445    0.00587    0.28476
 18 Li    0.00431   -0.00249   -0.01145
 19 Li    0.00330    0.00572    0.00435
 20 Li   -0.00553    0.00111   -0.02102
 21 Li   -0.00125    0.00499    0.01038
 22 Li   -0.01495   -0.00231   -0.01189
 23 Li    0.00365   -0.00917   -0.00463
 24 Li   -0.00037   -0.00579   -0.00113
 25 Li    0.00692    0.00227    0.00745
 26 Li    0.00491    0.00796    0.00046
 27 Li    0.01849   -0.02155   -0.00094
 28 Li   -0.00105    0.00591   -0.00176
 29 Li    0.00411    0.00368    0.01312
 30 Li    0.02023   -0.00468    0.01910
 31 Li   -0.00299   -0.00923   -0.00130
 32 Li   -0.00828    0.01445    0.01208
 33 Li   -0.01128    0.00363   -0.00674
 34 Li    0.00221   -0.00713   -0.01243
 35 Li    0.00455    0.01300    0.00644
 36 O    -0.00996    0.02739    0.00713
 37 O    -0.01908   -0.00602    0.00763
 38 C     0.00127    0.00582   -0.00748
 39 C    -0.00712    0.00873   -0.00321
 40 C     0.00195    0.00761    0.00492
 41 H     0.00141   -0.01385   -0.00500
 42 H    -0.00026    0.00501   -0.01138
 43 H     0.01730    0.01027    0.02461
 44 H    -0.01335    0.00476   -0.00365
 45 H    -0.00083   -0.00418   -0.00079
 46 H     0.00290    0.00368    0.01110
 47 H     0.00778   -0.03506    0.00397
 48 H     0.00851    0.01226    0.02679
 49 N    -0.00836    0.05422    0.00230
 50 N    -0.00705   -0.02768    0.02445

System changes: positions 

Initializing position-dependent things.

Density initialized from wave functions
       .-----------------------.  
      /|                       |  
     / |                       |  
    /  |                       |  
   /   |                       |  
  /    |                       |  
 *     |                       |  
 |     |                       |  
 |     |                       |  
 |     |                       |  
 |     |                       |  
 |     |                    H  |  
 |     |              H   C    |  
 |     |               C    H  |  
 |     |              H O      |  
 |     |                  H    |  
 |     Li      Li H   HO       |  
 |     |           C           |  
 |   Li|     Li   H  Li        |  
 |     |  Li      Li      Li   |  
 |     |   Li      Li     Li   |  
 |     |Li      Li   N NLi     |  
 |     |          Li           |  
 |   LLi     LLi     LLi       |  
 |     |  Li      Li      Li   |  
 | Li  |   Li      Li          |  
 |     |Li      Li      Li     |  
 Li    | Li      Li            |  
 |    Li      Li      Li       |  
 |     |                       |  
 |     |                       |  
 |     |                       |  
 |     |                       |  
 |     |                       |  
 |     |                       |  
 |     .-----------------------.  
 |    /                       /   
 |   /                       /    
 |  /                       /     
 | /                       /      
 |/                       /       
 *-----------------------*        

Positions:
   0 Li     1.617037    1.617037   10.000000    ( 0.0000,  0.0000,  0.0000)
   1 Li     4.851111    1.617037   10.000000    ( 0.0000,  0.0000,  0.0000)
   2 Li     8.085185    1.617037   10.000000    ( 0.0000,  0.0000,  0.0000)
   3 Li     1.617037    4.851111   10.000000    ( 0.0000,  0.0000,  0.0000)
   4 Li     4.851111    4.851111   10.000000    ( 0.0000,  0.0000,  0.0000)
   5 Li     8.085185    4.851111   10.000000    ( 0.0000,  0.0000,  0.0000)
   6 Li     1.617037    8.085185   10.000000    ( 0.0000,  0.0000,  0.0000)
   7 Li     4.851111    8.085185   10.000000    ( 0.0000,  0.0000,  0.0000)
   8 Li     8.085185    8.085185   10.000000    ( 0.0000,  0.0000,  0.0000)
   9 Li     0.000000    0.000000   11.617037    ( 0.0000,  0.0000,  0.0000)
  10 Li     3.234074    0.000000   11.617037    ( 0.0000,  0.0000,  0.0000)
  11 Li     6.468148    0.000000   11.617037    ( 0.0000,  0.0000,  0.0000)
  12 Li     0.000000    3.234074   11.617037    ( 0.0000,  0.0000,  0.0000)
  13 Li     3.234074    3.234074   11.617037    ( 0.0000,  0.0000,  0.0000)
  14 Li     6.468148    3.234074   11.617037    ( 0.0000,  0.0000,  0.0000)
  15 Li     0.000000    6.468148   11.617037    ( 0.0000,  0.0000,  0.0000)
  16 Li     3.234074    6.468148   11.617037    ( 0.0000,  0.0000,  0.0000)
  17 Li     6.468148    6.468148   11.617037    ( 0.0000,  0.0000,  0.0000)
  18 Li     1.593047    1.591118   13.516446    ( 0.0000,  0.0000,  0.0000)
  19 Li     4.833772    1.669609   13.488957    ( 0.0000,  0.0000,  0.0000)
  20 Li     8.099478    1.642250   13.537182    ( 0.0000,  0.0000,  0.0000)
  21 Li     1.580361    4.760958   13.455443    ( 0.0000,  0.0000,  0.0000)
  22 Li     4.804800    4.892637   13.479586    ( 0.0000,  0.0000,  0.0000)
  23 Li     8.042753    4.832527   13.495575    ( 0.0000,  0.0000,  0.0000)
  24 Li     1.677163    8.069192   13.464931    ( 0.0000,  0.0000,  0.0000)
  25 Li     4.909542    8.144691   13.484771    ( 0.0000,  0.0000,  0.0000)
  26 Li     8.125355    8.098270   13.491487    ( 0.0000,  0.0000,  0.0000)
  27 Li     0.106638   -0.117016   15.467576    ( 0.0000,  0.0000,  0.0000)
  28 Li     3.373870   -0.036518   15.432991    ( 0.0000,  0.0000,  0.0000)
  29 Li     6.697179    0.259285   15.468424    ( 0.0000,  0.0000,  0.0000)
  30 Li    -0.275760    3.005297   15.643380    ( 0.0000,  0.0000,  0.0000)
  31 Li     3.082794    3.316003   15.454228    ( 0.0000,  0.0000,  0.0000)
  32 Li     6.321028    3.356635   15.462735    ( 0.0000,  0.0000,  0.0000)
  33 Li     0.120581    6.318288   15.307659    ( 0.0000,  0.0000,  0.0000)
  34 Li     3.250329    6.489528   15.445011    ( 0.0000,  0.0000,  0.0000)
  35 Li     6.437229    6.561211   15.401035    ( 0.0000,  0.0000,  0.0000)
  36 O      8.347283    1.458745   19.250175    ( 0.0000,  0.0000,  0.0000)
  37 O      7.796003   -3.358219   18.772075    ( 0.0000,  0.0000,  0.0000)
  38 C      8.092794   -0.922345   19.090513    ( 0.0000,  0.0000,  0.0000)
  39 C      7.365484    0.415857   19.162787    ( 0.0000,  0.0000,  0.0000)
  40 C      7.136602   -2.087412   18.837633    ( 0.0000,  0.0000,  0.0000)
  41 H      8.827804   -0.874638   18.278354    ( 0.0000,  0.0000,  0.0000)
  42 H      8.641761   -1.095906   20.019662    ( 0.0000,  0.0000,  0.0000)
  43 H      6.733808    0.558476   18.271964    ( 0.0000,  0.0000,  0.0000)
  44 H      6.705291    0.436959   20.039692    ( 0.0000,  0.0000,  0.0000)
  45 H      6.565706   -1.901993   17.913383    ( 0.0000,  0.0000,  0.0000)
  46 H      6.412454   -2.184074   19.650198    ( 0.0000,  0.0000,  0.0000)
  47 H      7.892598    2.305579   19.345436    ( 0.0000,  0.0000,  0.0000)
  48 H      8.373434   -3.357996   17.993050    ( 0.0000,  0.0000,  0.0000)
  49 N      8.513218    1.181963   15.547613    ( 0.0000,  0.0000,  0.0000)
  50 N      7.625386    2.070617   15.551080    ( 0.0000,  0.0000,  0.0000)

Unit cell:
           periodic     x           y           z      points  spacing
  1. axis:    yes    9.702222    0.000000    0.000000    60     0.1617
  2. axis:    yes    0.000000    9.702222    0.000000    60     0.1617
  3. axis:    no     0.000000    0.000000   28.351111   176     0.1611

  Lengths:   9.702222   9.702222  28.351111
  Angles:   90.000000  90.000000  90.000000

Effective grid spacing dv^(1/3) = 0.1615

     iter     time        total  log10-change:
                         energy  eigst   dens
iter:   1 06:13:09  -353.653721  -2.22
iter:   2 06:13:17  -353.653230  -3.01  -2.60
iter:   3 06:13:25  -353.653105c -3.52  -2.77
iter:   4 06:13:33  -353.652954c -3.83  -2.85
Writing to output.gpw (mode='')

iter:   5 06:13:41  -353.652778c -3.48  -2.97
iter:   6 06:13:49  -353.652843c -3.40  -3.22
iter:   7 06:13:57  -353.652767c -4.38  -3.19
iter:   8 06:14:05  -353.652782c -4.37  -3.47
iter:   9 06:14:20  -353.652763c -4.62  -3.48
Writing to output.gpw (mode='')

iter:  10 06:14:28  -353.652766c -5.10  -3.59
iter:  11 06:14:36  -353.652753c -4.97  -3.66
iter:  12 06:14:44  -353.652762c -5.46  -3.90
iter:  13 06:14:52  -353.652760c -5.66  -4.02c
iter:  14 06:15:00  -353.652760c -5.65  -4.08c
Writing to output.gpw (mode='')

iter:  15 06:15:08  -353.652759c -6.07  -4.34c
iter:  16 06:15:16  -353.652757c -6.15  -4.36c
iter:  17 06:15:24  -353.652756c -6.67  -4.42c
iter:  18 06:15:32  -353.652756c -6.77  -4.46c
iter:  19 06:15:39  -353.652756c -6.74  -4.58c
Writing to output.gpw (mode='')

iter:  20 06:15:47  -353.652757c -7.02  -4.71c
iter:  21 06:15:55  -353.652757c -7.07  -4.77c
iter:  22 06:16:03  -353.652757c -7.35  -4.85c
iter:  23 06:16:11  -353.652756c -7.52c -4.89c

Converged after 23 iterations.

Dipole moment: (-1.751686, -9.240706, -0.072486) |e|*Ang

Energy contributions relative to reference atoms: (reference = -17528.314784)

Kinetic:       +177.120919
Potential:     -170.176653
External:        +0.000000
XC:            -361.710642
Entropy (-ST):   -0.162999
Local:           +1.195120
--------------------------
Free energy:   -353.734256
Extrapolated:  -353.652756

Dipole-layer corrected work functions: 3.406549, 3.545893 eV

Showing only first 2 kpts
 Kpt  Band  Eigenvalues  Occupancy
  0    37     -3.67947    1.96626
  0    38     -3.49091    1.14589
  0    39     -3.46180    0.85680
  0    40     -3.37185    0.22066

  1    37     -3.79003    1.99625
  1    38     -3.42579    0.53453
  1    39     -3.36670    0.20122
  1    40     -3.35875    0.17423


Fermi level: -3.47622

No gap
Writing to output.gpw (mode='')


Forces in eV/Ang:
  0 Li   -0.00760   -0.01086   -0.28671
  1 Li    0.00962    0.01084   -0.29777
  2 Li   -0.00004    0.00001   -0.25015
  3 Li    0.01567    0.01591   -0.28973
  4 Li   -0.00767    0.00643   -0.28837
  5 Li   -0.00968   -0.00896   -0.29363
  6 Li    0.00849   -0.00865   -0.29640
  7 Li   -0.01585   -0.01405   -0.28249
  8 Li    0.01232    0.00624   -0.29658
  9 Li   -0.02315    0.03209    0.31669
 10 Li    0.00968    0.03402    0.27126
 11 Li    0.02463    0.03893    0.27591
 12 Li   -0.02968   -0.02529    0.23657
 13 Li   -0.00623   -0.02815    0.25327
 14 Li    0.01614   -0.02197    0.31192
 15 Li   -0.00464   -0.01335    0.29569
 16 Li   -0.00708    0.00008    0.26954
 17 Li    0.01599    0.00710    0.28696
 18 Li    0.00543   -0.00322   -0.00718
 19 Li    0.00467    0.00347    0.00349
 20 Li   -0.00214    0.00826   -0.01821
 21 Li    0.00047    0.00550    0.01117
 22 Li   -0.00981   -0.00105   -0.00737
 23 Li    0.00501   -0.00566   -0.00456
 24 Li   -0.00298   -0.00362    0.00156
 25 Li    0.00659    0.00386    0.00677
 26 Li    0.00541   -0.00250   -0.00508
 27 Li    0.01063   -0.01054    0.00261
 28 Li   -0.00191    0.00360   -0.00358
 29 Li   -0.00515   -0.00146    0.01456
 30 Li    0.00825   -0.01056    0.01321
 31 Li   -0.00264   -0.00770   -0.00143
 32 Li   -0.00654    0.00449    0.01223
 33 Li   -0.00803    0.00240   -0.00754
 34 Li   -0.00081   -0.00691   -0.01048
 35 Li    0.00345    0.01090    0.00396
 36 O    -0.00819   -0.00866   -0.01018
 37 O    -0.00712   -0.00441   -0.00721
 38 C    -0.00636    0.01436   -0.00100
 39 C     0.02077    0.01386    0.02003
 40 C    -0.00785    0.02541    0.00662
 41 H    -0.00065   -0.00947    0.00467
 42 H     0.01302    0.01008   -0.00893
 43 H     0.01032    0.01059    0.00191
 44 H    -0.01993    0.00145    0.00458
 45 H    -0.01179   -0.01628   -0.00195
 46 H    -0.00149    0.01759    0.00650
 47 H    -0.00424   -0.04528    0.00374
 48 H     0.00372    0.00265    0.02840
 49 N     0.01529    0.03165   -0.00061
 50 N     0.00712   -0.00636    0.01749

Timing:                                      incl.     excl.
-------------------------------------------------------------------
Density initialized from wave functions:     8.496     8.492   0.0% |
 Symmetrize density:                         0.004     0.004   0.0% |
Forces:                                     57.840    57.840   0.2% |
Hamiltonian:                               662.214     0.015   0.0% |
 Atomic:                                     0.025     0.025   0.0% |
  XC Correction:                             0.000     0.000   0.0% |
 Calculate atomic Hamiltonians:              0.047     0.047   0.0% |
 Communicate:                                9.866     9.866   0.0% |
 Hartree integrate/restrict:                 2.557     2.557   0.0% |
 Initialize Hamiltonian:                     0.000     0.000   0.0% |
 Poisson:                                   32.366    12.032   0.0% |
  Communicate from 1D:                       3.219     3.219   0.0% |
  Communicate from 2D:                       3.056     3.056   0.0% |
  Communicate to 1D:                         1.864     1.864   0.0% |
  Communicate to 2D:                         3.495     3.495   0.0% |
  FFT 1D:                                    4.232     4.232   0.0% |
  FFT 2D:                                    4.467     4.467   0.0% |
 XC 3D grid:                               616.710    94.285   0.3% |
  VdW-DF integral:                         522.425     4.299   0.0% |
   Convolution:                             46.876    46.876   0.2% |
   FFT:                                     20.063    20.063   0.1% |
   gather:                                 174.972   174.972   0.6% |
   hmm1:                                    17.637    17.637   0.1% |
   hmm2:                                    23.195    23.195   0.1% |
   iFFT:                                    20.628    20.628   0.1% |
   potential:                              211.161     5.465   0.0% |
    collect:                                32.578    32.578   0.1% |
    p1:                                     94.574    94.574   0.3% |
    p2:                                     35.803    35.803   0.1% |
    sum:                                    42.742    42.742   0.1% |
   splines:                                  3.594     3.594   0.0% |
 vbar:                                       0.627     0.627   0.0% |
LCAO initialization:                         1.279     0.183   0.0% |
 LCAO eigensolver:                           0.243     0.000   0.0% |
  Calculate projections:                     0.000     0.000   0.0% |
  DenseAtomicCorrection:                     0.000     0.000   0.0% |
  Distribute overlap matrix:                 0.191     0.191   0.0% |
  Orbital Layouts:                           0.050     0.050   0.0% |
  Potential matrix:                          0.002     0.002   0.0% |
  Sum over cells:                            0.001     0.001   0.0% |
 LCAO to grid:                               0.731     0.731   0.0% |
 Set positions (LCAO WFS):                   0.123     0.073   0.0% |
  Basic WFS set positions:                   0.001     0.001   0.0% |
  Basis functions set positions:             0.000     0.000   0.0% |
  P tci:                                     0.000     0.000   0.0% |
  ST tci:                                    0.013     0.013   0.0% |
  mktci:                                     0.035     0.035   0.0% |
Redistribute:                                0.056     0.056   0.0% |
SCF-cycle:                               29360.721   559.865   1.9% ||
 Davidson:                                8520.051  2534.582   8.4% |--|
  Apply hamiltonian:                       549.825   549.825   1.8% ||
  Subspace diag:                          1587.123     0.432   0.0% |
   calc_h_matrix:                          838.528   284.158   0.9% |
    Apply hamiltonian:                     554.370   554.370   1.8% ||
   diagonalize:                             48.283    48.283   0.2% |
   rotate_psi:                             699.880   699.880   2.3% ||
  calc. matrices:                         2725.290  1422.516   4.7% |-|
   Apply hamiltonian:                     1302.774  1302.774   4.3% |-|
  diagonalize:                              25.856    25.856   0.1% |
  rotate_psi:                             1097.376  1097.376   3.6% ||
 Density:                                  150.968     0.096   0.0% |
  Atomic density matrices:                  19.225    19.225   0.1% |
  Mix:                                      63.331    63.331   0.2% |
  Multipole moments:                         6.836     6.836   0.0% |
  Pseudo density:                           61.480    61.394   0.2% |
   Symmetrize density:                       0.086     0.086   0.0% |
 Hamiltonian:                            20106.966     0.454   0.0% |
  Atomic:                                    0.881     0.871   0.0% |
   XC Correction:                            0.009     0.009   0.0% |
  Calculate atomic Hamiltonians:             1.437     1.437   0.0% |
  Communicate:                             291.987   291.987   1.0% |
  Hartree integrate/restrict:               80.589    80.589   0.3% |
  Poisson:                                 991.943   369.399   1.2% |
   Communicate from 1D:                     98.120    98.120   0.3% |
   Communicate from 2D:                     96.634    96.634   0.3% |
   Communicate to 1D:                       57.167    57.167   0.2% |
   Communicate to 2D:                      112.564   112.564   0.4% |
   FFT 1D:                                 127.693   127.693   0.4% |
   FFT 2D:                                 130.367   130.367   0.4% |
  XC 3D grid:                            18721.627  2924.754   9.7% |---|
   VdW-DF integral:                      15796.873   129.470   0.4% |
    Convolution:                          1421.489  1421.489   4.7% |-|
    FFT:                                   606.768   606.768   2.0% ||
    gather:                               5376.906  5376.906  17.8% |------|
    hmm1:                                  530.161   530.161   1.8% ||
    hmm2:                                  697.255   697.255   2.3% ||
    iFFT:                                  623.936   623.936   2.1% ||
    potential:                            6410.857   165.140   0.5% |
     collect:                              993.474   993.474   3.3% ||
     p1:                                  2860.447  2860.447   9.5% |---|
     p2:                                  1078.929  1078.929   3.6% ||
     sum:                                 1312.867  1312.867   4.3% |-|
    splines:                                 0.032     0.032   0.0% |
  vbar:                                     18.049    18.049   0.1% |
 Orthonormalize:                            22.871     0.016   0.0% |
  calc_s_matrix:                             3.826     3.826   0.0% |
  inverse-cholesky:                          5.346     5.346   0.0% |
  projections:                               0.003     0.003   0.0% |
  rotate_psi_s:                             13.681    13.681   0.0% |
Set symmetry:                                0.004     0.004   0.0% |
Other:                                     134.741   134.741   0.4% |
-------------------------------------------------------------------
Total:                                             30225.351 100.0%

Memory usage: 1.20 GiB
Date: Sat Mar 11 06:16:12 2023
