
  ___ ___ ___ _ _ _  
 |   |   |_  | | | | 
 | | | | | . | | | | 
 |__ |  _|___|_____|  22.8.0
 |___|_|             

User:   vazumah@r289.ib.bridges2.psc.edu
Date:   Fri Mar 10 10:03:24 2023
Arch:   x86_64
Pid:    19322
CWD:    /jet/home/vazumah/Calcs/LiMEAS/proton_donors/butanol_z/bridge/8.085_1.617/N2_z
Python: 3.11.0
gpaw:   /jet/home/vazumah/.conda/envs/GPAW_mpich/lib/python3.11/site-packages/gpaw
_gpaw:  /jet/home/vazumah/.conda/envs/GPAW_mpich/lib/python3.11/site-packages/
        _gpaw.cpython-311-x86_64-linux-gnu.so
ase:    /jet/home/vazumah/.conda/envs/GPAW_mpich/lib/python3.11/site-packages/ase (version 3.22.1)
numpy:  /jet/home/vazumah/.conda/envs/GPAW_mpich/lib/python3.11/site-packages/numpy (version 1.24.2)
scipy:  /jet/home/vazumah/.conda/envs/GPAW_mpich/lib/python3.11/site-packages/scipy (version 1.10.1)
libxc:  5.2.3
units:  Angstrom and eV
cores: 128
OpenMP: True
OMP_NUM_THREADS: 1

Input parameters:
  h: 0.16
  kpts: {size: [4, 4, 1]}
  occupations: {name: fermi-dirac,
                width: 0.05}
  poissonsolver: {dipolelayer: xy}
  xc: BEEF-vdW

System changes: positions, numbers, cell, pbc, initial_charges, initial_magmoms 

Initialize ...

species:
  Li:
    name: Lithium
    id: 830b4218f175192f93f959cfc0aad614
    Z: 3.0
    valence: 1
    core: 2
    charge: 0.0
    file: /jet/home/vazumah/datasets/gpaw-setups-0.9.20000/Li.PBE.gz
    compensation charges: {type: gauss,
                           rc: 0.33,
                           lmax: 2}
    cutoffs: {filter: 1.91,
              core: 2.55}
    valence states:
      #              energy  rcut
      - 2s(1.00)    -2.874   1.058
      - 2p(0.00)    -1.090   1.058
      -  s          24.337   1.058
  
    # Using partial waves for Li as LCAO basis

  O:
    name: Oxygen
    id: 32ecd46bf208036f09c70b0ec9a88b78
    Z: 8.0
    valence: 6
    core: 2
    charge: 0.0
    file: /jet/home/vazumah/datasets/gpaw-setups-0.9.20000/O.PBE.gz
    compensation charges: {type: gauss,
                           rc: 0.21,
                           lmax: 2}
    cutoffs: {filter: 1.17,
              core: 0.83}
    valence states:
      #              energy  rcut
      - 2s(2.00)   -23.961   0.688
      - 2p(4.00)    -9.029   0.598
      -  s           3.251   0.688
      -  p          18.182   0.598
      -  d           0.000   0.619
  
    # Using partial waves for O as LCAO basis

  C:
    name: Carbon
    id: 4aa54d4b901d75f77cc0ea3eec22967b
    Z: 6.0
    valence: 4
    core: 2
    charge: 0.0
    file: /jet/home/vazumah/datasets/gpaw-setups-0.9.20000/C.PBE.gz
    compensation charges: {type: gauss,
                           rc: 0.20,
                           lmax: 2}
    cutoffs: {filter: 1.14,
              core: 1.14}
    valence states:
      #              energy  rcut
      - 2s(2.00)   -13.751   0.635
      - 2p(2.00)    -5.284   0.635
      -  s          13.461   0.635
      -  p          21.927   0.635
      -  d           0.000   0.635
  
    # Using partial waves for C as LCAO basis

  H:
    name: Hydrogen
    id: d65de229564ff8ea4db303e23b6d1ecf
    Z: 1.0
    valence: 1
    core: 0
    charge: 0.0
    file: /jet/home/vazumah/datasets/gpaw-setups-0.9.20000/H.PBE.gz
    compensation charges: {type: gauss,
                           rc: 0.15,
                           lmax: 2}
    cutoffs: {filter: 0.85,
              core: 0.53}
    valence states:
      #              energy  rcut
      - 1s(1.00)    -6.494   0.476
      -  s          20.717   0.476
      -  p           0.000   0.476
  
    # Using partial waves for H as LCAO basis

  N:
    name: Nitrogen
    id: f7500608b86eaa90eef8b1d9a670dc53
    Z: 7.0
    valence: 5
    core: 2
    charge: 0.0
    file: /jet/home/vazumah/datasets/gpaw-setups-0.9.20000/N.PBE.gz
    compensation charges: {type: gauss,
                           rc: 0.18,
                           lmax: 2}
    cutoffs: {filter: 1.11,
              core: 0.96}
    valence states:
      #              energy  rcut
      - 2s(2.00)   -18.583   0.603
      - 2p(3.00)    -7.089   0.529
      -  s           8.629   0.603
      -  p          20.123   0.529
      -  d           0.000   0.577
  
    # Using partial waves for N as LCAO basis

Reference energy: -16540.070923  # eV

Spin-paired calculation

Convergence criteria:
 Maximum [total energy] change in last 3 cyles: 0.0005 eV / electron
 Maximum integral of absolute [dens]ity change: 0.0001 electrons / valence electron
 Maximum integral of absolute [eigenst]ate change: 4e-08 eV^2 / valence electron
 Maximum number of scf [iter]ations: 333
 (Square brackets indicate name in SCF output, whereas a 'c' in
 the SCF output indicates the quantity has converged.)

Symmetries present (total): 1

  ( 1  0  0)
  ( 0  1  0)
  ( 0  0  1)

16 k-points: 4 x 4 x 1 Monkhorst-Pack grid
8 k-points in the irreducible part of the Brillouin zone
       k-points in crystal coordinates                weights
   0:     0.12500000   -0.37500000    0.00000000          2/16
   1:     0.12500000   -0.12500000    0.00000000          2/16
   2:     0.12500000    0.12500000    0.00000000          2/16
   3:     0.12500000    0.37500000    0.00000000          2/16
   4:     0.37500000   -0.37500000    0.00000000          2/16
   5:     0.37500000   -0.12500000    0.00000000          2/16
   6:     0.37500000    0.12500000    0.00000000          2/16
   7:     0.37500000    0.37500000    0.00000000          2/16

Wave functions: Uniform real-space grid
  Kinetic energy operator: 6*3+1=19 point O(h^6) finite-difference Laplacian
  ScaLapack parameters: grid=1x1, blocksize=None
  Wavefunction extrapolation:
    Improved wavefunction reuse through dual PAW basis 

Occupation numbers: Fermi-Dirac:
  width: 0.0500  # eV
 

Eigensolver
   Davidson(niter=2) 

Densities:
  Coarse grid: 60*60*168 grid
  Fine grid: 120*120*336 grid
  Total Charge: 0.000000 

Density mixing:
  Method: separate
  Backend: pulay
  Linear mixing parameter: 0.05
  old densities: 5
  Damping of long wavelength oscillations: 50 

Hamiltonian:
  XC and Coulomb potentials evaluated on a 120*120*336 grid
  Using the BEEF-vdW Exchange-Correlation functional
  Interpolation: tri-quintic (5. degree polynomial)
  Poisson solver: FastPoissonSolver using
    Stencil: 6*3+1=19 point O(h^6) finite-difference Laplacian
    FFT axes: [0, 1]
    FST axes: [2]

Dipole correction along z-axis 

XC parameters: BEEF-vdW with 2 nearest neighbor stencil

Memory estimate:
  Process memory now: 129.33 MiB
  Calculator: 90.37 MiB
    Density: 23.17 MiB
      Arrays: 7.40 MiB
      Localized functions: 12.95 MiB
      Mixer: 2.82 MiB
    Hamiltonian: 5.86 MiB
      Arrays: 4.84 MiB
      XC: 0.00 MiB
      Poisson: 0.00 MiB
      vbar: 1.02 MiB
    Wavefunctions: 61.34 MiB
      Arrays psit_nG: 28.72 MiB
      Eigensolver: 31.93 MiB
      Projections: 0.02 MiB
      Projectors: 0.68 MiB

Total number of cores used: 128
Parallelization over k-points: 8
Domain decomposition: 2 x 2 x 4

Number of atoms: 53
Number of atomic orbitals: 182
Number of bands in calculation: 51
Number of valence electrons: 78
Bands to converge: occupied

... initialized

Initializing position-dependent things.

Density initialized from atomic densities
Creating initial wave functions:
  51 bands from LCAO basis set

       .-----------------------.  
      /|                       |  
     / |                       |  
    /  |                       |  
   /   |                       |  
  /    |                       |  
 *     |                       |  
 |     |            H H  H     |  
 |     |                       |  
 |     |                       |  
 |     |           HHC HH      |  
 |     |              C        |  
 |     |                       |  
 |     |           H C HH      |  
 |     |              O        |  
 |     |              N        |  
 |   Li|     Li      Li        |  
 |     |  Li      Li  N   Li   |  
 | Li  |   Li      Li          |  
 |     |Li      Li      Li     |  
 Li    | Li      Li            |  
 |   LLi     LLi     LLi       |  
 |     |  Li      Li      Li   |  
 | Li  |   Li      Li          |  
 |     |Li      Li      Li     |  
 Li    | Li      Li            |  
 |    Li      Li      Li       |  
 |     |                       |  
 |     |                       |  
 |     |                       |  
 |     |                       |  
 |     |                       |  
 |     |                       |  
 |     .-----------------------.  
 |    /                       /   
 |   /                       /    
 |  /                       /     
 | /                       /      
 |/                       /       
 *-----------------------*        

Positions:
   0 Li     1.617037    1.617037   10.000000    ( 0.0000,  0.0000,  0.0000)
   1 Li     4.851111    1.617037   10.000000    ( 0.0000,  0.0000,  0.0000)
   2 Li     8.085185    1.617037   10.000000    ( 0.0000,  0.0000,  0.0000)
   3 Li     1.617037    4.851111   10.000000    ( 0.0000,  0.0000,  0.0000)
   4 Li     4.851111    4.851111   10.000000    ( 0.0000,  0.0000,  0.0000)
   5 Li     8.085185    4.851111   10.000000    ( 0.0000,  0.0000,  0.0000)
   6 Li     1.617037    8.085185   10.000000    ( 0.0000,  0.0000,  0.0000)
   7 Li     4.851111    8.085185   10.000000    ( 0.0000,  0.0000,  0.0000)
   8 Li     8.085185    8.085185   10.000000    ( 0.0000,  0.0000,  0.0000)
   9 Li     0.000000    0.000000   11.617037    ( 0.0000,  0.0000,  0.0000)
  10 Li     3.234074    0.000000   11.617037    ( 0.0000,  0.0000,  0.0000)
  11 Li     6.468148    0.000000   11.617037    ( 0.0000,  0.0000,  0.0000)
  12 Li     0.000000    3.234074   11.617037    ( 0.0000,  0.0000,  0.0000)
  13 Li     3.234074    3.234074   11.617037    ( 0.0000,  0.0000,  0.0000)
  14 Li     6.468148    3.234074   11.617037    ( 0.0000,  0.0000,  0.0000)
  15 Li     0.000000    6.468148   11.617037    ( 0.0000,  0.0000,  0.0000)
  16 Li     3.234074    6.468148   11.617037    ( 0.0000,  0.0000,  0.0000)
  17 Li     6.468148    6.468148   11.617037    ( 0.0000,  0.0000,  0.0000)
  18 Li     1.617038    1.617038   13.469728    ( 0.0000,  0.0000,  0.0000)
  19 Li     4.851111    1.617038   13.469729    ( 0.0000,  0.0000,  0.0000)
  20 Li     8.085184    1.617038   13.469728    ( 0.0000,  0.0000,  0.0000)
  21 Li     1.617038    4.851111   13.469729    ( 0.0000,  0.0000,  0.0000)
  22 Li     4.851111    4.851111   13.469730    ( 0.0000,  0.0000,  0.0000)
  23 Li     8.085184    4.851111   13.469729    ( 0.0000,  0.0000,  0.0000)
  24 Li     1.617038    8.085184   13.469728    ( 0.0000,  0.0000,  0.0000)
  25 Li     4.851111    8.085184   13.469729    ( 0.0000,  0.0000,  0.0000)
  26 Li     8.085184    8.085184   13.469728    ( 0.0000,  0.0000,  0.0000)
  27 Li    -0.000000   -0.000000   15.445939    ( 0.0000,  0.0000,  0.0000)
  28 Li     3.234074    0.000000   15.445939    ( 0.0000,  0.0000,  0.0000)
  29 Li     6.468148    0.000000   15.445939    ( 0.0000,  0.0000,  0.0000)
  30 Li     0.000000    3.234074   15.445939    ( 0.0000,  0.0000,  0.0000)
  31 Li     3.234076    3.234076   15.445938    ( 0.0000,  0.0000,  0.0000)
  32 Li     6.468146    3.234076   15.445938    ( 0.0000,  0.0000,  0.0000)
  33 Li     0.000000    6.468148   15.445939    ( 0.0000,  0.0000,  0.0000)
  34 Li     3.234076    6.468146   15.445938    ( 0.0000,  0.0000,  0.0000)
  35 Li     6.468146    6.468146   15.445938    ( 0.0000,  0.0000,  0.0000)
  36 O      8.085185    1.617037   19.645939    ( 0.0000,  0.0000,  0.0000)
  37 C      8.049359    1.629378   22.112999    ( 0.0000,  0.0000,  0.0000)
  38 C      8.062770    0.774326   23.382560    ( 0.0000,  0.0000,  0.0000)
  39 C      8.084978    0.806558   20.830422    ( 0.0000,  0.0000,  0.0000)
  40 C      8.078399    1.625311   24.655270    ( 0.0000,  0.0000,  0.0000)
  41 H      7.155866    2.262547   22.098200    ( 0.0000,  0.0000,  0.0000)
  42 H      8.920716    2.299566   22.126315    ( 0.0000,  0.0000,  0.0000)
  43 H      8.938980    0.115250   23.369599    ( 0.0000,  0.0000,  0.0000)
  44 H      7.184800    0.118162   23.387463    ( 0.0000,  0.0000,  0.0000)
  45 H      8.959117    0.140991   20.836976    ( 0.0000,  0.0000,  0.0000)
  46 H      7.190360    0.183243   20.745907    ( 0.0000,  0.0000,  0.0000)
  47 H      8.962442    2.267792   24.682857    ( 0.0000,  0.0000,  0.0000)
  48 H      7.200947    2.275325   24.700588    ( 0.0000,  0.0000,  0.0000)
  49 H      8.084544    1.011586   25.558445    ( 0.0000,  0.0000,  0.0000)
  50 H      8.847365    2.206136   19.695250    ( 0.0000,  0.0000,  0.0000)
  51 N      8.085000    1.617000   17.195939    ( 0.0000,  0.0000,  0.0000)
  52 N      8.085000    1.617000   18.292561    ( 0.0000,  0.0000,  0.0000)

Unit cell:
           periodic     x           y           z      points  spacing
  1. axis:    yes    9.702222    0.000000    0.000000    60     0.1617
  2. axis:    yes    0.000000    9.702222    0.000000    60     0.1617
  3. axis:    no     0.000000    0.000000   26.601111   168     0.1583

  Lengths:   9.702222   9.702222  26.601111
  Angles:   90.000000  90.000000  90.000000

Effective grid spacing dv^(1/3) = 0.1606

     iter     time        total  log10-change:
                         energy  eigst   dens
iter:   1 10:03:39  -941.103167
iter:   2 10:03:47   365.389488  +2.75  +0.08
iter:   3 10:03:55   849.569836  +3.49  -0.03
iter:   4 10:04:02   218.749115  +3.72  -0.06
Writing to output.gpw (mode='')

iter:   5 10:04:10  -247.965389  +3.29  -0.09
iter:   6 10:04:17  -250.172282  +2.94  -0.16
iter:   7 10:04:25  -347.866461  +2.64  -0.39
iter:   8 10:04:33  -522.512162  +2.54  -0.39
iter:   9 10:04:46  -761.080364  +2.96  -0.22
Writing to output.gpw (mode='')

iter:  10 10:04:54 -1172.201729  +3.22  -0.13
iter:  11 10:05:01  -409.392889  +2.24  -0.01
iter:  12 10:05:09  -245.443535  +2.75  -0.24
iter:  13 10:05:17  -336.570359  +3.04  -0.53
iter:  14 10:05:24  -354.536288  +2.11  -0.69
Writing to output.gpw (mode='')

iter:  15 10:05:32  -360.313639  +1.64  -0.70
iter:  16 10:05:40  -363.029130  +1.34  -0.69
iter:  17 10:05:47  -387.398747  +1.64  -0.69
iter:  18 10:05:55  -377.225940  +1.21  -0.48
iter:  19 10:06:03  -362.142710  +0.94  -0.51
Writing to output.gpw (mode='')

iter:  20 10:06:10  -356.963356  +0.69  -0.63
iter:  21 10:06:18  -357.119577  +0.47  -0.75
iter:  22 10:06:25  -355.723323  +0.42  -0.75
iter:  23 10:06:33  -355.661175  +0.65  -0.78
iter:  24 10:06:41  -355.548938  +0.02  -0.75
Writing to output.gpw (mode='')

iter:  25 10:06:48  -365.032765  +0.48  -0.75
iter:  26 10:06:56  -354.346365  +0.46  -0.63
iter:  27 10:07:04  -354.838843  -0.26  -0.80
iter:  28 10:07:11  -354.269521  -0.14  -0.82
iter:  29 10:07:19  -355.597904  +0.86  -0.83
Writing to output.gpw (mode='')

iter:  30 10:07:27  -359.282803  +1.07  -0.85
iter:  31 10:07:34  -354.065679  +0.39  -0.92
iter:  32 10:07:42  -350.241106  +0.33  -1.03
iter:  33 10:07:49  -349.807324  +0.16  -1.14
iter:  34 10:07:57  -349.803809  +0.14  -1.09
Writing to output.gpw (mode='')

iter:  35 10:08:05  -349.972696  +0.31  -1.12
iter:  36 10:08:12  -349.099128  -0.61  -1.14
iter:  37 10:08:20  -348.877271  -0.39  -1.31
iter:  38 10:08:28  -348.843501  -0.41  -1.43
iter:  39 10:08:35  -348.789648  -1.08  -1.49
Writing to output.gpw (mode='')

iter:  40 10:08:43  -348.837006  -0.83  -1.58
iter:  41 10:08:50  -348.771832  -0.91  -1.66
iter:  42 10:08:58  -348.745573  -1.21  -1.63
iter:  43 10:09:06  -348.717300  -1.33  -1.72
iter:  44 10:09:13  -348.714699c -1.65  -1.90
Writing to output.gpw (mode='')

iter:  45 10:09:22  -348.711218c -1.20  -1.96
iter:  46 10:09:32  -348.714146c -1.52  -2.16
iter:  47 10:09:47  -348.712698c -1.91  -2.17
iter:  48 10:09:56  -348.720579c -1.85  -2.37
iter:  49 10:10:04  -348.722425c -1.97  -2.38
Writing to output.gpw (mode='')

iter:  50 10:10:12  -348.721283c -2.09  -2.53
iter:  51 10:10:19  -348.719684c -2.25  -2.53
iter:  52 10:10:27  -348.720289c -2.68  -2.73
iter:  53 10:10:35  -348.721029c -2.47  -2.75
iter:  54 10:10:42  -348.721066c -2.69  -2.83
Writing to output.gpw (mode='')

iter:  55 10:10:50  -348.721843c -2.65  -2.85
iter:  56 10:10:57  -348.722385c -2.75  -2.86
iter:  57 10:11:05  -348.723017c -2.80  -2.89
iter:  58 10:11:13  -348.723147c -3.29  -3.05
iter:  59 10:11:20  -348.723455c -3.05  -3.08
Writing to output.gpw (mode='')

iter:  60 10:11:28  -348.723772c -3.14  -3.18
iter:  61 10:11:35  -348.724051c -3.29  -3.23
iter:  62 10:11:43  -348.724233c -3.36  -3.36
iter:  63 10:11:50  -348.724341c -3.41  -3.45
iter:  64 10:11:58  -348.724417c -3.55  -3.48
Writing to output.gpw (mode='')

iter:  65 10:12:05  -348.724491c -3.62  -3.60
iter:  66 10:12:13  -348.724597c -3.67  -3.66
iter:  67 10:12:21  -348.724622c -3.95  -3.69
iter:  68 10:12:28  -348.724655c -3.83  -3.75
iter:  69 10:12:36  -348.724679c -3.88  -3.91
Writing to output.gpw (mode='')

iter:  70 10:12:43  -348.724711c -4.13  -3.91
iter:  71 10:12:51  -348.724729c -4.11  -4.07c
iter:  72 10:12:59  -348.724742c -4.08  -4.14c
iter:  73 10:13:06  -348.724752c -4.41  -4.19c
iter:  74 10:13:14  -348.724763c -4.39  -4.25c
Writing to output.gpw (mode='')

iter:  75 10:13:21  -348.724769c -4.59  -4.30c
iter:  76 10:13:29  -348.724774c -4.54  -4.33c
iter:  77 10:13:37  -348.724781c -4.60  -4.36c
iter:  78 10:13:44  -348.724785c -4.73  -4.54c
iter:  79 10:13:52  -348.724789c -4.75  -4.49c
Writing to output.gpw (mode='')

iter:  80 10:13:59  -348.724791c -4.72  -4.57c
iter:  81 10:14:07  -348.724793c -4.85  -4.65c
iter:  82 10:14:14  -348.724795c -4.90  -4.77c
iter:  83 10:14:22  -348.724796c -4.97  -4.83c
iter:  84 10:14:30  -348.724797c -5.00  -4.79c
Writing to output.gpw (mode='')

iter:  85 10:14:44  -348.724798c -5.21  -4.76c
iter:  86 10:14:53  -348.724798c -5.19  -4.64c
iter:  87 10:15:01  -348.724799c -5.21  -4.68c
iter:  88 10:15:08  -348.724798c -5.22  -4.63c
iter:  89 10:15:16  -348.724799c -5.41  -4.60c
Writing to output.gpw (mode='')

iter:  90 10:15:23  -348.724799c -5.39  -4.56c
iter:  91 10:15:31  -348.724799c -5.50  -4.54c
iter:  92 10:15:39  -348.724799c -5.53  -4.80c
iter:  93 10:15:46  -348.724799c -5.44  -4.86c
iter:  94 10:15:54  -348.724798c -5.43  -4.99c
Writing to output.gpw (mode='')

iter:  95 10:16:01  -348.724797c -5.58  -5.04c
iter:  96 10:16:09  -348.724797c -5.71  -5.17c
iter:  97 10:16:16  -348.724797c -5.71  -5.24c
iter:  98 10:16:24  -348.724797c -5.82  -5.28c
iter:  99 10:16:32  -348.724797c -5.85  -5.43c
Writing to output.gpw (mode='')

iter: 100 10:16:39  -348.724797c -5.91  -5.53c
iter: 101 10:16:47  -348.724797c -5.99  -5.56c
iter: 102 10:16:54  -348.724797c -5.98  -5.52c
iter: 103 10:17:02  -348.724797c -6.03  -5.41c
iter: 104 10:17:12  -348.724797c -6.15  -5.35c
Writing to output.gpw (mode='')

iter: 105 10:17:20  -348.724796c -6.21  -5.34c
iter: 106 10:17:28  -348.724796c -6.26  -5.23c
iter: 107 10:17:35  -348.724796c -6.30  -5.18c
iter: 108 10:17:43  -348.724796c -6.35  -5.24c
iter: 109 10:17:50  -348.724796c -6.33  -5.12c
Writing to output.gpw (mode='')

iter: 110 10:17:58  -348.724796c -6.36  -5.30c
iter: 111 10:18:05  -348.724795c -6.35  -5.38c
iter: 112 10:18:13  -348.724795c -6.47  -5.53c
iter: 113 10:18:20  -348.724795c -6.48  -5.63c
iter: 114 10:18:28  -348.724795c -6.57  -5.90c
Writing to output.gpw (mode='')

iter: 115 10:18:36  -348.724795c -6.62  -5.87c
iter: 116 10:18:43  -348.724795c -6.63  -5.83c
iter: 117 10:18:51  -348.724795c -6.65  -5.73c
iter: 118 10:18:58  -348.724795c -6.76  -5.72c
iter: 119 10:19:06  -348.724795c -6.80  -5.67c
Writing to output.gpw (mode='')

iter: 120 10:19:13  -348.724795c -6.81  -5.64c
iter: 121 10:19:21  -348.724795c -6.79  -5.66c
iter: 122 10:19:29  -348.724794c -6.88  -5.66c
iter: 123 10:19:36  -348.724794c -6.87  -5.75c
iter: 124 10:19:49  -348.724794c -6.97  -5.80c
Writing to output.gpw (mode='')

iter: 125 10:19:57  -348.724794c -7.02  -5.92c
iter: 126 10:20:04  -348.724794c -7.06  -5.91c
iter: 127 10:20:12  -348.724794c -7.09  -5.94c
iter: 128 10:20:19  -348.724794c -7.02  -6.00c
iter: 129 10:20:27  -348.724794c -7.21  -6.25c
Writing to output.gpw (mode='')

iter: 130 10:20:35  -348.724794c -7.25  -6.31c
iter: 131 10:20:42  -348.724794c -7.25  -6.35c
iter: 132 10:20:50  -348.724794c -7.26  -6.36c
iter: 133 10:20:57  -348.724794c -7.19  -6.43c
iter: 134 10:21:05  -348.724794c -7.33  -6.46c
Writing to output.gpw (mode='')

iter: 135 10:21:12  -348.724794c -7.35  -6.47c
iter: 136 10:21:20  -348.724794c -7.45c -6.47c

Converged after 136 iterations.

Dipole moment: (1.301123, -17.403360, 0.818924) |e|*Ang

Energy contributions relative to reference atoms: (reference = -16540.070923)

Kinetic:       +222.575202
Potential:     -205.986278
External:        +0.000000
XC:            -366.003140
Entropy (-ST):   -0.158873
Local:           +0.768858
--------------------------
Free energy:   -348.804230
Extrapolated:  -348.724794

Dipole-layer corrected work functions: 3.383048, 1.808796 eV

Showing only first 2 kpts
 Kpt  Band  Eigenvalues  Occupancy
  0    37     -2.81057    1.97304
  0    38     -2.71618    1.83443
  0    39     -2.45592    0.11465
  0    40     -2.35848    0.01717

  1    37     -2.69347    1.75111
  1    38     -2.60197    1.06043
  1    39     -2.57183    0.76364
  1    40     -2.48468    0.19507


Fermi level: -2.59592

No gap
Writing to output.gpw (mode='')


Forces in eV/Ang:
  0 Li    0.02759   -0.00111   -0.27216
  1 Li   -0.02727   -0.00176   -0.27059
  2 Li    0.00029    0.00256   -0.27954
  3 Li   -0.00200   -0.00013   -0.27919
  4 Li    0.00307    0.00091   -0.27507
  5 Li   -0.00065    0.02663   -0.27044
  6 Li    0.00250    0.00253   -0.27441
  7 Li   -0.00147    0.00142   -0.27902
  8 Li   -0.00123   -0.02757   -0.27144
  9 Li   -0.00251    0.00103    0.29662
 10 Li    0.00094    0.00326    0.24525
 11 Li    0.00249    0.00242    0.29641
 12 Li    0.00435    0.00505    0.28859
 13 Li   -0.00323   -0.01124    0.25483
 14 Li   -0.00275    0.00269    0.28838
 15 Li   -0.00811   -0.00821    0.25313
 16 Li    0.00221    0.00543    0.26093
 17 Li    0.00530   -0.00438    0.24931
 18 Li   -0.00372   -0.00542    0.04253
 19 Li    0.00109   -0.00244    0.03968
 20 Li   -0.00011    0.00357   -0.14846
 21 Li    0.00031   -0.00361    0.03228
 22 Li    0.00321   -0.01192    0.04445
 23 Li   -0.00219   -0.00705    0.04985
 24 Li   -0.01589    0.00875    0.04928
 25 Li    0.01342    0.01077    0.04496
 26 Li    0.00047   -0.00618    0.02749
 27 Li    0.00465   -0.02528    0.01902
 28 Li   -0.00344    0.01792   -0.01804
 29 Li   -0.00322   -0.02474    0.02860
 30 Li    0.05674    0.06173   -0.00847
 31 Li   -0.00118   -0.02291   -0.01298
 32 Li   -0.04022    0.04561   -0.00462
 33 Li   -0.01758   -0.00593   -0.01562
 34 Li    0.00129    0.00644   -0.02060
 35 Li    0.01663   -0.00807   -0.01806
 36 O    -0.24208   -0.73230   13.64067
 37 C     0.01970   -0.24507   -0.02666
 38 C    -0.04268    0.25893    0.16348
 39 C    -0.29937   -3.05264    5.02621
 40 C     0.00397   -0.72682   -0.16881
 41 H     0.02553    0.05140    0.05181
 42 H    -0.06290   -0.00521    0.02985
 43 H     0.00385    0.01858   -0.02121
 44 H    -0.01521   -0.00149   -0.02968
 45 H    -0.06646    0.13787   -0.17019
 46 H     0.01907    0.04374   -0.03255
 47 H    -0.01488   -0.00820   -0.13204
 48 H     0.01304   -0.01134   -0.13802
 49 H    -0.00494    0.57829   -2.78142
 50 H     0.63553    0.86352    0.40038
 51 N    -0.86108   -3.43057   -7.95203
 52 N     0.88865    6.22957  -11.42092

System changes: positions 

Initializing position-dependent things.

Density initialized from wave functions
       .-----------------------.  
      /|                       |  
     / |                       |  
    /  |                       |  
   /   |                       |  
  /    |                       |  
 *     |                       |  
 |     |            H H  H     |  
 |     |                       |  
 |     |                       |  
 |     |           HHC HH      |  
 |     |              C        |  
 |     |                       |  
 |     |           H C HH      |  
 |     Li             OLi      |  
 |     |              N        |  
 |     |     Li      Li      Li|  
 |     |  Li      Li  N   Li   |  
 | Li  |   Li      Li          |  
 |     |Li      Li      Li     |  
 |     | Li                    |  
 |   LLi     LLi     LLi       |  
 |     |  Li      Li      Li   |  
 | Li  |   Li      Li          |  
 |     |Li      Li      Li     |  
 Li    | Li      Li            |  
 |    Li      Li      Li       |  
 |     |                       |  
 |     |                       |  
 |     |                       |  
 |     |                       |  
 |     |                       |  
 |     |                       |  
 |     .-----------------------.  
 |    /                       /   
 |   /                       /    
 |  /                       /     
 | /                       /      
 |/                       /       
 *-----------------------*        

Positions:
   0 Li     1.617037    1.617037   10.000000    ( 0.0000,  0.0000,  0.0000)
   1 Li     4.851111    1.617037   10.000000    ( 0.0000,  0.0000,  0.0000)
   2 Li     8.085185    1.617037   10.000000    ( 0.0000,  0.0000,  0.0000)
   3 Li     1.617037    4.851111   10.000000    ( 0.0000,  0.0000,  0.0000)
   4 Li     4.851111    4.851111   10.000000    ( 0.0000,  0.0000,  0.0000)
   5 Li     8.085185    4.851111   10.000000    ( 0.0000,  0.0000,  0.0000)
   6 Li     1.617037    8.085185   10.000000    ( 0.0000,  0.0000,  0.0000)
   7 Li     4.851111    8.085185   10.000000    ( 0.0000,  0.0000,  0.0000)
   8 Li     8.085185    8.085185   10.000000    ( 0.0000,  0.0000,  0.0000)
   9 Li     0.000000    0.000000   11.617037    ( 0.0000,  0.0000,  0.0000)
  10 Li     3.234074    0.000000   11.617037    ( 0.0000,  0.0000,  0.0000)
  11 Li     6.468148    0.000000   11.617037    ( 0.0000,  0.0000,  0.0000)
  12 Li     0.000000    3.234074   11.617037    ( 0.0000,  0.0000,  0.0000)
  13 Li     3.234074    3.234074   11.617037    ( 0.0000,  0.0000,  0.0000)
  14 Li     6.468148    3.234074   11.617037    ( 0.0000,  0.0000,  0.0000)
  15 Li     0.000000    6.468148   11.617037    ( 0.0000,  0.0000,  0.0000)
  16 Li     3.234074    6.468148   11.617037    ( 0.0000,  0.0000,  0.0000)
  17 Li     6.468148    6.468148   11.617037    ( 0.0000,  0.0000,  0.0000)
  18 Li     1.617027    1.617022   13.469852    ( 0.0000,  0.0000,  0.0000)
  19 Li     4.851114    1.617031   13.469846    ( 0.0000,  0.0000,  0.0000)
  20 Li     8.085184    1.617049   13.469293    ( 0.0000,  0.0000,  0.0000)
  21 Li     1.617039    4.851100   13.469824    ( 0.0000,  0.0000,  0.0000)
  22 Li     4.851120    4.851076   13.469860    ( 0.0000,  0.0000,  0.0000)
  23 Li     8.085177    4.851090   13.469875    ( 0.0000,  0.0000,  0.0000)
  24 Li     1.616992    8.085210   13.469872    ( 0.0000,  0.0000,  0.0000)
  25 Li     4.851150    8.085215   13.469861    ( 0.0000,  0.0000,  0.0000)
  26 Li     8.085185    8.085166   13.469808    ( 0.0000,  0.0000,  0.0000)
  27 Li     0.000014   -0.000074   15.445995    ( 0.0000,  0.0000,  0.0000)
  28 Li     3.234064    0.000052   15.445886    ( 0.0000,  0.0000,  0.0000)
  29 Li     6.468139   -0.000072   15.446023    ( 0.0000,  0.0000,  0.0000)
  30 Li     0.000166    3.234254   15.445914    ( 0.0000,  0.0000,  0.0000)
  31 Li     3.234073    3.234009   15.445900    ( 0.0000,  0.0000,  0.0000)
  32 Li     6.468028    3.234210   15.445925    ( 0.0000,  0.0000,  0.0000)
  33 Li    -0.000051    6.468131   15.445893    ( 0.0000,  0.0000,  0.0000)
  34 Li     3.234080    6.468164   15.445878    ( 0.0000,  0.0000,  0.0000)
  35 Li     6.468194    6.468122   15.445885    ( 0.0000,  0.0000,  0.0000)
  36 O      8.084476    1.614893   19.685876    ( 0.0000,  0.0000,  0.0000)
  37 C      8.049417    1.628660   22.112921    ( 0.0000,  0.0000,  0.0000)
  38 C      8.062645    0.775084   23.383039    ( 0.0000,  0.0000,  0.0000)
  39 C      8.084101    0.797620   20.845138    ( 0.0000,  0.0000,  0.0000)
  40 C      8.078410    1.623184   24.654776    ( 0.0000,  0.0000,  0.0000)
  41 H      7.155941    2.262697   22.098352    ( 0.0000,  0.0000,  0.0000)
  42 H      8.920531    2.299550   22.126403    ( 0.0000,  0.0000,  0.0000)
  43 H      8.938991    0.115305   23.369537    ( 0.0000,  0.0000,  0.0000)
  44 H      7.184755    0.118158   23.387376    ( 0.0000,  0.0000,  0.0000)
  45 H      8.958922    0.141395   20.836478    ( 0.0000,  0.0000,  0.0000)
  46 H      7.190415    0.183371   20.745811    ( 0.0000,  0.0000,  0.0000)
  47 H      8.962398    2.267768   24.682470    ( 0.0000,  0.0000,  0.0000)
  48 H      7.200985    2.275292   24.700183    ( 0.0000,  0.0000,  0.0000)
  49 H      8.084529    1.013279   25.550301    ( 0.0000,  0.0000,  0.0000)
  50 H      8.849225    2.208664   19.696422    ( 0.0000,  0.0000,  0.0000)
  51 N      8.082479    1.606956   17.172658    ( 0.0000,  0.0000,  0.0000)
  52 N      8.087602    1.635238   18.259124    ( 0.0000,  0.0000,  0.0000)

Unit cell:
           periodic     x           y           z      points  spacing
  1. axis:    yes    9.702222    0.000000    0.000000    60     0.1617
  2. axis:    yes    0.000000    9.702222    0.000000    60     0.1617
  3. axis:    no     0.000000    0.000000   26.601111   168     0.1583

  Lengths:   9.702222   9.702222  26.601111
  Angles:   90.000000  90.000000  90.000000

Effective grid spacing dv^(1/3) = 0.1606

     iter     time        total  log10-change:
                         energy  eigst   dens
iter:   1 10:21:29  -350.292129  -0.45
iter:   2 10:21:37  -350.257121  -0.74  -1.66
iter:   3 10:21:45  -350.240497  -1.15  -1.79
iter:   4 10:21:52  -350.201271  -1.08  -1.99
Writing to output.gpw (mode='')

iter:   5 10:22:00  -350.203674  -1.78  -2.10
iter:   6 10:22:08  -350.187595c -1.71  -2.15
iter:   7 10:22:16  -350.181976c -1.45  -2.26
iter:   8 10:22:23  -350.182404c -2.05  -2.54
iter:   9 10:22:31  -350.181258c -2.38  -2.44
Writing to output.gpw (mode='')

iter:  10 10:22:39  -350.181237c -2.70  -2.64
iter:  11 10:22:46  -350.181044c -3.11  -2.72
iter:  12 10:22:54  -350.180917c -2.91  -2.83
iter:  13 10:23:02  -350.180891c -3.56  -3.05
iter:  14 10:23:10  -350.180879c -3.60  -3.10
Writing to output.gpw (mode='')

iter:  15 10:23:17  -350.180928c -3.65  -3.21
iter:  16 10:23:25  -350.180936c -3.97  -3.41
iter:  17 10:23:33  -350.180970c -4.03  -3.50
iter:  18 10:23:40  -350.180977c -4.25  -3.70
iter:  19 10:23:48  -350.180980c -4.49  -3.74
Writing to output.gpw (mode='')

iter:  20 10:23:56  -350.180983c -4.49  -3.76
iter:  21 10:24:03  -350.180986c -4.77  -3.91
iter:  22 10:24:11  -350.180987c -4.83  -4.04c
iter:  23 10:24:19  -350.180987c -4.93  -4.14c
iter:  24 10:24:27  -350.180989c -5.07  -4.18c
Writing to output.gpw (mode='')

iter:  25 10:24:34  -350.180989c -5.24  -4.25c
iter:  26 10:24:47  -350.180991c -5.39  -4.34c
iter:  27 10:24:55  -350.180992c -5.33  -4.40c
iter:  28 10:25:03  -350.180993c -5.61  -4.49c
iter:  29 10:25:10  -350.180994c -5.80  -4.51c
Writing to output.gpw (mode='')

iter:  30 10:25:18  -350.180996c -5.80  -4.53c
iter:  31 10:25:26  -350.180996c -5.97  -4.71c
iter:  32 10:25:33  -350.180997c -6.04  -4.73c
iter:  33 10:25:41  -350.180997c -6.12  -4.76c
iter:  34 10:25:49  -350.180997c -6.10  -4.73c
Writing to output.gpw (mode='')

iter:  35 10:25:57  -350.180997c -6.33  -4.73c
iter:  36 10:26:04  -350.180997c -6.40  -4.77c
iter:  37 10:26:12  -350.180997c -6.46  -4.75c
iter:  38 10:26:20  -350.180998c -6.48  -4.73c
iter:  39 10:26:27  -350.180998c -6.49  -4.75c
Writing to output.gpw (mode='')

iter:  40 10:26:35  -350.180998c -6.72  -4.71c
iter:  41 10:26:43  -350.180998c -6.74  -4.68c
iter:  42 10:26:50  -350.180998c -6.86  -4.66c
iter:  43 10:26:58  -350.180998c -6.88  -4.85c
iter:  44 10:27:06  -350.180998c -6.89  -4.86c
Writing to output.gpw (mode='')

iter:  45 10:27:14  -350.180998c -6.98  -4.73c
iter:  46 10:27:22  -350.180998c -7.13  -4.90c
iter:  47 10:27:29  -350.180998c -7.03  -4.90c
iter:  48 10:27:37  -350.180998c -7.14  -5.02c
iter:  49 10:27:45  -350.180998c -7.42c -5.30c

Converged after 49 iterations.

Dipole moment: (1.168628, -17.419242, 0.801090) |e|*Ang

Energy contributions relative to reference atoms: (reference = -16540.070923)

Kinetic:       +225.655728
Potential:     -209.491236
External:        +0.000000
XC:            -367.038888
Entropy (-ST):   -0.148291
Local:           +0.767543
--------------------------
Free energy:   -350.255144
Extrapolated:  -350.180998

Dipole-layer corrected work functions: 3.381140, 1.841171 eV

Showing only first 2 kpts
 Kpt  Band  Eigenvalues  Occupancy
  0    37     -2.85797    1.98574
  0    38     -2.74993    1.88268
  0    39     -2.44935    0.07566
  0    40     -2.36801    0.01534

  1    37     -2.67596    1.57032
  1    38     -2.61788    1.06712
  1    39     -2.59420    0.83205
  1    40     -2.50461    0.21225


Fermi level: -2.61116

No gap
Writing to output.gpw (mode='')


Forces in eV/Ang:
  0 Li    0.02793   -0.00023   -0.27099
  1 Li   -0.02792   -0.00099   -0.27079
  2 Li    0.00049    0.00215   -0.27696
  3 Li   -0.00292   -0.00232   -0.27737
  4 Li    0.00340   -0.00134   -0.27548
  5 Li   -0.00030    0.02789   -0.27047
  6 Li   -0.00067    0.00271   -0.27469
  7 Li    0.00140    0.00195   -0.27665
  8 Li   -0.00102   -0.02847   -0.27181
  9 Li   -0.00273    0.00112    0.29458
 10 Li   -0.00030    0.00496    0.24449
 11 Li    0.00316    0.00209    0.29509
 12 Li    0.00347    0.00313    0.28590
 13 Li   -0.00237   -0.01112    0.25126
 14 Li   -0.00217    0.00167    0.28750
 15 Li   -0.00815   -0.00633    0.24910
 16 Li    0.00158    0.00565    0.26964
 17 Li    0.00647   -0.00448    0.24601
 18 Li   -0.00665   -0.00392    0.04904
 19 Li    0.00336   -0.00209    0.04343
 20 Li    0.00097    0.00618   -0.16356
 21 Li   -0.00414   -0.00709    0.03881
 22 Li    0.00629   -0.01197    0.04443
 23 Li   -0.00164   -0.00956    0.05229
 24 Li   -0.01657    0.01139    0.04929
 25 Li    0.01607    0.01342    0.04868
 26 Li   -0.00005   -0.00449    0.03480
 27 Li    0.03179   -0.04348   -0.01577
 28 Li   -0.00283    0.02308   -0.01874
 29 Li   -0.02595   -0.03911   -0.00667
 30 Li    0.07831    0.07944   -0.04761
 31 Li   -0.00268   -0.02629   -0.01586
 32 Li   -0.06317    0.06510   -0.03428
 33 Li   -0.02237   -0.00307   -0.01815
 34 Li    0.00020    0.00334   -0.01837
 35 Li    0.02223   -0.00305   -0.01996
 36 O    -0.34353   -1.63494   15.04804
 37 C    -0.01333   -0.41745    0.38277
 38 C    -0.02954    0.30159    0.16097
 39 C    -0.08405   -1.56124    3.87122
 40 C    -0.00114   -0.52154   -0.33783
 41 H     0.02926    0.02332    0.01446
 42 H    -0.04109   -0.02474   -0.01287
 43 H    -0.00285    0.02215   -0.01623
 44 H    -0.01340    0.00252   -0.02558
 45 H     0.06675   -0.03635   -0.04856
 46 H    -0.11193   -0.08084    0.03163
 47 H    -0.03669   -0.03326   -0.13287
 48 H     0.03613   -0.03690   -0.13849
 49 H    -0.00299    0.43103   -2.47187
 50 H     0.24839    0.38178    0.32233
 51 N    -0.94710   -3.42698   -7.49805
 52 N     1.23996    6.57639  -12.42565

System changes: positions 

Initializing position-dependent things.

Density initialized from wave functions
       .-----------------------.  
      /|                       |  
     / |                       |  
    /  |                       |  
   /   |                       |  
  /    |                       |  
 *     |                       |  
 |     |            H H  H     |  
 |     |                       |  
 |     |                       |  
 |     |           HHC HH      |  
 |     |              C        |  
 |     |                       |  
 |     |           H C HH      |  
 |     |              OLi      |  
 |     |              N        |  
 |     |     Li      Li      Li|  
 |     |  Li      Li  N   Li   |  
 | Li  |   Li      Li          |  
 |     |Li      Li      Li     |  
 |     | Li              Li    |  
 |   LLi     LLi     LLi       |  
 |     |  Li      Li      Li   |  
 | Li  |   Li      Li          |  
 |     |Li      Li      Li     |  
 Li    | Li      Li            |  
 |    Li      Li      Li       |  
 |     |                       |  
 |     |                       |  
 |     |                       |  
 |     |                       |  
 |     |                       |  
 |     |                       |  
 |     .-----------------------.  
 |    /                       /   
 |   /                       /    
 |  /                       /     
 | /                       /      
 |/                       /       
 *-----------------------*        

Positions:
   0 Li     1.617037    1.617037   10.000000    ( 0.0000,  0.0000,  0.0000)
   1 Li     4.851111    1.617037   10.000000    ( 0.0000,  0.0000,  0.0000)
   2 Li     8.085185    1.617037   10.000000    ( 0.0000,  0.0000,  0.0000)
   3 Li     1.617037    4.851111   10.000000    ( 0.0000,  0.0000,  0.0000)
   4 Li     4.851111    4.851111   10.000000    ( 0.0000,  0.0000,  0.0000)
   5 Li     8.085185    4.851111   10.000000    ( 0.0000,  0.0000,  0.0000)
   6 Li     1.617037    8.085185   10.000000    ( 0.0000,  0.0000,  0.0000)
   7 Li     4.851111    8.085185   10.000000    ( 0.0000,  0.0000,  0.0000)
   8 Li     8.085185    8.085185   10.000000    ( 0.0000,  0.0000,  0.0000)
   9 Li     0.000000    0.000000   11.617037    ( 0.0000,  0.0000,  0.0000)
  10 Li     3.234074    0.000000   11.617037    ( 0.0000,  0.0000,  0.0000)
  11 Li     6.468148    0.000000   11.617037    ( 0.0000,  0.0000,  0.0000)
  12 Li     0.000000    3.234074   11.617037    ( 0.0000,  0.0000,  0.0000)
  13 Li     3.234074    3.234074   11.617037    ( 0.0000,  0.0000,  0.0000)
  14 Li     6.468148    3.234074   11.617037    ( 0.0000,  0.0000,  0.0000)
  15 Li     0.000000    6.468148   11.617037    ( 0.0000,  0.0000,  0.0000)
  16 Li     3.234074    6.468148   11.617037    ( 0.0000,  0.0000,  0.0000)
  17 Li     6.468148    6.468148   11.617037    ( 0.0000,  0.0000,  0.0000)
  18 Li     1.617044    1.616987   13.469938    ( 0.0000,  0.0000,  0.0000)
  19 Li     4.851095    1.617019   13.469949    ( 0.0000,  0.0000,  0.0000)
  20 Li     8.085172    1.617034   13.468917    ( 0.0000,  0.0000,  0.0000)
  21 Li     1.617086    4.851123   13.469872    ( 0.0000,  0.0000,  0.0000)
  22 Li     4.851100    4.851034   13.470020    ( 0.0000,  0.0000,  0.0000)
  23 Li     8.085164    4.851091   13.470029    ( 0.0000,  0.0000,  0.0000)
  24 Li     1.616942    8.085214   13.470049    ( 0.0000,  0.0000,  0.0000)
  25 Li     4.851171    8.085226   13.469984    ( 0.0000,  0.0000,  0.0000)
  26 Li     8.085192    8.085126   13.469831    ( 0.0000,  0.0000,  0.0000)
  27 Li    -0.000250    0.000023   15.446422    ( 0.0000,  0.0000,  0.0000)
  28 Li     3.234045    0.000063   15.445829    ( 0.0000,  0.0000,  0.0000)
  29 Li     6.468362   -0.000013   15.446489    ( 0.0000,  0.0000,  0.0000)
  30 Li     0.000147    3.234293   15.446288    ( 0.0000,  0.0000,  0.0000)
  31 Li     3.234084    3.233962   15.445883    ( 0.0000,  0.0000,  0.0000)
  32 Li     6.468121    3.234172   15.446214    ( 0.0000,  0.0000,  0.0000)
  33 Li    -0.000065    6.468080   15.445863    ( 0.0000,  0.0000,  0.0000)
  34 Li     3.234096    6.468219   15.445781    ( 0.0000,  0.0000,  0.0000)
  35 Li     6.468196    6.468041   15.445840    ( 0.0000,  0.0000,  0.0000)
  36 O      8.084657    1.621588   19.720212    ( 0.0000,  0.0000,  0.0000)
  37 C      8.049829    1.629562   22.108598    ( 0.0000,  0.0000,  0.0000)
  38 C      8.062356    0.775571   23.383650    ( 0.0000,  0.0000,  0.0000)
  39 C      8.080806    0.771288   20.875067    ( 0.0000,  0.0000,  0.0000)
  40 C      8.078478    1.618461   24.655916    ( 0.0000,  0.0000,  0.0000)
  41 H      7.155994    2.263172   22.098923    ( 0.0000,  0.0000,  0.0000)
  42 H      8.920081    2.299733   22.126951    ( 0.0000,  0.0000,  0.0000)
  43 H      8.939074    0.115334   23.369409    ( 0.0000,  0.0000,  0.0000)
  44 H      7.184682    0.118111   23.387228    ( 0.0000,  0.0000,  0.0000)
  45 H      8.957309    0.143687   20.834613    ( 0.0000,  0.0000,  0.0000)
  46 H      7.191836    0.184814   20.745032    ( 0.0000,  0.0000,  0.0000)
  47 H      8.962570    2.267997   24.682006    ( 0.0000,  0.0000,  0.0000)
  48 H      7.200794    2.275515   24.699694    ( 0.0000,  0.0000,  0.0000)
  49 H      8.084491    1.016871   25.537142    ( 0.0000,  0.0000,  0.0000)
  50 H      8.855499    2.216731   19.698662    ( 0.0000,  0.0000,  0.0000)
  51 N      8.080282    1.594630   17.139485    ( 0.0000,  0.0000,  0.0000)
  52 N      8.087158    1.653974   18.228583    ( 0.0000,  0.0000,  0.0000)

Unit cell:
           periodic     x           y           z      points  spacing
  1. axis:    yes    9.702222    0.000000    0.000000    60     0.1617
  2. axis:    yes    0.000000    9.702222    0.000000    60     0.1617
  3. axis:    no     0.000000    0.000000   26.601111   168     0.1583

  Lengths:   9.702222   9.702222  26.601111
  Angles:   90.000000  90.000000  90.000000

Effective grid spacing dv^(1/3) = 0.1606

     iter     time        total  log10-change:
                         energy  eigst   dens
iter:   1 10:27:54  -351.643588  -0.66
iter:   2 10:28:02  -351.595281  -0.96  -1.67
iter:   3 10:28:10  -351.579883  -1.54  -1.84
iter:   4 10:28:18  -351.570100c -1.49  -2.06
Writing to output.gpw (mode='')

iter:   5 10:28:25  -351.558551c -1.45  -2.22
iter:   6 10:28:33  -351.557524c -2.25  -2.32
iter:   7 10:28:40  -351.558451c -1.94  -2.47
iter:   8 10:28:48  -351.557701c -1.93  -2.42
iter:   9 10:28:56  -351.556716c -2.61  -2.63
Writing to output.gpw (mode='')

iter:  10 10:29:04  -351.556512c -2.95  -2.78
iter:  11 10:29:12  -351.556481c -3.24  -2.97
iter:  12 10:29:19  -351.556523c -3.40  -3.05
iter:  13 10:29:27  -351.556545c -3.39  -3.16
iter:  14 10:29:35  -351.556561c -3.81  -3.24
Writing to output.gpw (mode='')

iter:  15 10:29:48  -351.556556c -4.06  -3.25
iter:  16 10:29:56  -351.556579c -4.19  -3.39
iter:  17 10:30:04  -351.556590c -4.19  -3.49
iter:  18 10:30:12  -351.556600c -4.25  -3.60
iter:  19 10:30:19  -351.556604c -4.31  -3.68
Writing to output.gpw (mode='')

iter:  20 10:30:27  -351.556604c -4.66  -3.68
iter:  21 10:30:35  -351.556606c -4.77  -3.82
iter:  22 10:30:43  -351.556609c -4.86  -3.90
iter:  23 10:30:50  -351.556609c -4.88  -4.07c
iter:  24 10:30:58  -351.556609c -5.27  -4.07c
Writing to output.gpw (mode='')

iter:  25 10:31:06  -351.556608c -5.37  -4.26c
iter:  26 10:31:13  -351.556609c -5.54  -4.36c
iter:  27 10:31:21  -351.556610c -5.59  -4.42c
iter:  28 10:31:29  -351.556611c -5.72  -4.45c
iter:  29 10:31:37  -351.556612c -5.77  -4.51c
Writing to output.gpw (mode='')

iter:  30 10:31:44  -351.556613c -5.85  -4.59c
iter:  31 10:31:52  -351.556613c -6.27  -4.72c
iter:  32 10:32:00  -351.556613c -6.23  -4.70c
iter:  33 10:32:08  -351.556614c -6.14  -4.74c
iter:  34 10:32:15  -351.556614c -6.56  -4.72c
Writing to output.gpw (mode='')

iter:  35 10:32:23  -351.556614c -6.56  -4.70c
iter:  36 10:32:30  -351.556614c -6.37  -4.72c
iter:  37 10:32:38  -351.556614c -6.64  -4.59c
iter:  38 10:32:46  -351.556615c -6.49  -4.54c
iter:  39 10:32:54  -351.556614c -6.66  -4.47c
Writing to output.gpw (mode='')

iter:  40 10:33:02  -351.556614c -7.05  -4.71c
iter:  41 10:33:11  -351.556614c -6.94  -4.66c
iter:  42 10:33:19  -351.556614c -7.11  -4.71c
iter:  43 10:33:27  -351.556615c -6.95  -4.71c
iter:  44 10:33:35  -351.556614c -6.95  -4.73c
Writing to output.gpw (mode='')

iter:  45 10:33:42  -351.556614c -6.93  -4.88c
iter:  46 10:33:50  -351.556614c -7.27  -4.97c
iter:  47 10:33:58  -351.556614c -7.25  -5.01c
iter:  48 10:34:05  -351.556613c -7.18  -5.15c
iter:  49 10:34:13  -351.556614c -7.57c -5.27c

Converged after 49 iterations.

Dipole moment: (1.076561, -17.529406, 0.779727) |e|*Ang

Energy contributions relative to reference atoms: (reference = -16540.070923)

Kinetic:       +223.418968
Potential:     -208.502743
External:        +0.000000
XC:            -367.174964
Entropy (-ST):   -0.147296
Local:           +0.775774
--------------------------
Free energy:   -351.630262
Extrapolated:  -351.556614

Dipole-layer corrected work functions: 3.378452, 1.879548 eV

Showing only first 2 kpts
 Kpt  Band  Eigenvalues  Occupancy
  0    37     -2.87797    1.98634
  0    38     -2.77056    1.88868
  0    39     -2.46292    0.06968
  0    40     -2.38555    0.01524

  1    37     -2.68458    1.50489
  1    38     -2.63605    1.07041
  1    39     -2.61476    0.85855
  1    40     -2.52211    0.21096


Fermi level: -2.62900

No gap
Writing to output.gpw (mode='')


Forces in eV/Ang:
  0 Li    0.02755    0.00011   -0.27063
  1 Li   -0.02754   -0.00062   -0.27076
  2 Li    0.00046    0.00182   -0.27649
  3 Li   -0.00291   -0.00305   -0.27655
  4 Li    0.00315   -0.00220   -0.27527
  5 Li   -0.00023    0.02794   -0.27021
  6 Li   -0.00179    0.00246   -0.27437
  7 Li    0.00237    0.00192   -0.27552
  8 Li   -0.00092   -0.02808   -0.27220
  9 Li   -0.00339    0.00137    0.29467
 10 Li   -0.00057    0.00546    0.24474
 11 Li    0.00381    0.00209    0.29522
 12 Li    0.00293    0.00227    0.28557
 13 Li   -0.00198   -0.01101    0.25040
 14 Li   -0.00188    0.00117    0.28735
 15 Li   -0.00778   -0.00605    0.24816
 16 Li    0.00141    0.00603    0.27195
 17 Li    0.00651   -0.00477    0.24532
 18 Li   -0.00812   -0.00337    0.05082
 19 Li    0.00489   -0.00218    0.04483
 20 Li    0.00124    0.00811   -0.17032
 21 Li   -0.00590   -0.00825    0.04136
 22 Li    0.00767   -0.01167    0.04445
 23 Li   -0.00128   -0.01093    0.05228
 24 Li   -0.01649    0.01279    0.04921
 25 Li    0.01665    0.01448    0.04990
 26 Li   -0.00024   -0.00457    0.03647
 27 Li    0.03752   -0.04563   -0.02352
 28 Li   -0.00249    0.02487   -0.01831
 29 Li   -0.03027   -0.04083   -0.01513
 30 Li    0.08327    0.08322   -0.05776
 31 Li   -0.00311   -0.02718   -0.01641
 32 Li   -0.06968    0.07151   -0.04204
 33 Li   -0.02364   -0.00098   -0.01877
 34 Li   -0.00036    0.00172   -0.01781
 35 Li    0.02389   -0.00025   -0.02039
 36 O    -0.27918   -2.00294   13.63953
 37 C    -0.07557   -0.65034    0.98144
 38 C    -0.00782    0.35876    0.16795
 39 C     0.27066    0.27860    2.26194
 40 C    -0.01076   -0.03407   -0.78505
 41 H     0.03157   -0.00866   -0.05024
 42 H    -0.00786   -0.04705   -0.08516
 43 H    -0.01538    0.02857   -0.01857
 44 H    -0.01290    0.00483   -0.03020
 45 H     0.36543   -0.41229    0.10449
 46 H    -0.50069   -0.43221    0.09424
 47 H    -0.09432   -0.09618   -0.12667
 48 H     0.09704   -0.10164   -0.13190
 49 H    -0.00004    0.11621   -1.88493
 50 H    -0.00093    0.00882    0.44003
 51 N    -0.76618   -3.22921   -6.13705
 52 N     1.02128    6.14779  -11.66251

System changes: positions 

Initializing position-dependent things.

Density initialized from wave functions
       .-----------------------.  
      /|                       |  
     / |                       |  
    /  |                       |  
   /   |                       |  
  /    |                       |  
 *     |                       |  
 |     |            H H  H     |  
 |     |                       |  
 |     |                       |  
 |     |           HHC HH      |  
 |     |              C        |  
 |     |                       |  
 |     |           H COHH      |  
 |     |                       |  
 |     |              N        |  
 |     |     Li      Li      Li|  
 |     |  Li      Li  N   Li   |  
 | Li  |   Li      Li          |  
 |     |Li      Li      Li     |  
 |     | Li      Li      Li    |  
 |   LLi     LLi     LLi       |  
 |     |  Li      Li      Li   |  
 | Li  |   Li      Li          |  
 |     |Li      Li      Li     |  
 Li    | Li      Li            |  
 |    Li      Li      Li       |  
 |     |                       |  
 |     |                       |  
 |     |                       |  
 |     |                       |  
 |     |                       |  
 |     |                       |  
 |     .-----------------------.  
 |    /                       /   
 |   /                       /    
 |  /                       /     
 | /                       /      
 |/                       /       
 *-----------------------*        

Positions:
   0 Li     1.617037    1.617037   10.000000    ( 0.0000,  0.0000,  0.0000)
   1 Li     4.851111    1.617037   10.000000    ( 0.0000,  0.0000,  0.0000)
   2 Li     8.085185    1.617037   10.000000    ( 0.0000,  0.0000,  0.0000)
   3 Li     1.617037    4.851111   10.000000    ( 0.0000,  0.0000,  0.0000)
   4 Li     4.851111    4.851111   10.000000    ( 0.0000,  0.0000,  0.0000)
   5 Li     8.085185    4.851111   10.000000    ( 0.0000,  0.0000,  0.0000)
   6 Li     1.617037    8.085185   10.000000    ( 0.0000,  0.0000,  0.0000)
   7 Li     4.851111    8.085185   10.000000    ( 0.0000,  0.0000,  0.0000)
   8 Li     8.085185    8.085185   10.000000    ( 0.0000,  0.0000,  0.0000)
   9 Li     0.000000    0.000000   11.617037    ( 0.0000,  0.0000,  0.0000)
  10 Li     3.234074    0.000000   11.617037    ( 0.0000,  0.0000,  0.0000)
  11 Li     6.468148    0.000000   11.617037    ( 0.0000,  0.0000,  0.0000)
  12 Li     0.000000    3.234074   11.617037    ( 0.0000,  0.0000,  0.0000)
  13 Li     3.234074    3.234074   11.617037    ( 0.0000,  0.0000,  0.0000)
  14 Li     6.468148    3.234074   11.617037    ( 0.0000,  0.0000,  0.0000)
  15 Li     0.000000    6.468148   11.617037    ( 0.0000,  0.0000,  0.0000)
  16 Li     3.234074    6.468148   11.617037    ( 0.0000,  0.0000,  0.0000)
  17 Li     6.468148    6.468148   11.617037    ( 0.0000,  0.0000,  0.0000)
  18 Li     1.617045    1.616948   13.470088    ( 0.0000,  0.0000,  0.0000)
  19 Li     4.851090    1.617001   13.470116    ( 0.0000,  0.0000,  0.0000)
  20 Li     8.085161    1.617043   13.468285    ( 0.0000,  0.0000,  0.0000)
  21 Li     1.617123    4.851136   13.469981    ( 0.0000,  0.0000,  0.0000)
  22 Li     4.851094    4.850979   13.470242    ( 0.0000,  0.0000,  0.0000)
  23 Li     8.085150    4.851071   13.470246    ( 0.0000,  0.0000,  0.0000)
  24 Li     1.616872    8.085241   13.470294    ( 0.0000,  0.0000,  0.0000)
  25 Li     4.851211    8.085259   13.470175    ( 0.0000,  0.0000,  0.0000)
  26 Li     8.085199    8.085072   13.469895    ( 0.0000,  0.0000,  0.0000)
  27 Li    -0.000508    0.000108   15.446873    ( 0.0000,  0.0000,  0.0000)
  28 Li     3.234024    0.000109   15.445753    ( 0.0000,  0.0000,  0.0000)
  29 Li     6.468588    0.000030   15.446985    ( 0.0000,  0.0000,  0.0000)
  30 Li     0.000212    3.234418   15.446627    ( 0.0000,  0.0000,  0.0000)
  31 Li     3.234093    3.233880   15.445849    ( 0.0000,  0.0000,  0.0000)
  32 Li     6.468136    3.234228   15.446479    ( 0.0000,  0.0000,  0.0000)
  33 Li    -0.000106    6.468040   15.445810    ( 0.0000,  0.0000,  0.0000)
  34 Li     3.234109    6.468271   15.445656    ( 0.0000,  0.0000,  0.0000)
  35 Li     6.468227    6.467971   15.445769    ( 0.0000,  0.0000,  0.0000)
  36 O      8.085620    1.624972   19.751505    ( 0.0000,  0.0000,  0.0000)
  37 C      8.049547    1.627557   22.110913    ( 0.0000,  0.0000,  0.0000)
  38 C      8.062255    0.777052   23.384592    ( 0.0000,  0.0000,  0.0000)
  39 C      8.081118    0.760490   20.894326    ( 0.0000,  0.0000,  0.0000)
  40 C      8.078439    1.618503   24.651447    ( 0.0000,  0.0000,  0.0000)
  41 H      7.156102    2.263379   22.098827    ( 0.0000,  0.0000,  0.0000)
  42 H      8.919914    2.299672   22.126716    ( 0.0000,  0.0000,  0.0000)
  43 H      8.939017    0.115464   23.369207    ( 0.0000,  0.0000,  0.0000)
  44 H      7.184589    0.118081   23.386965    ( 0.0000,  0.0000,  0.0000)
  45 H      8.959131    0.141751   20.834165    ( 0.0000,  0.0000,  0.0000)
  46 H      7.188571    0.182077   20.744845    ( 0.0000,  0.0000,  0.0000)
  47 H      8.962029    2.267463   24.681438    ( 0.0000,  0.0000,  0.0000)
  48 H      7.201352    2.274948   24.699096    ( 0.0000,  0.0000,  0.0000)
  49 H      8.084480    1.017581   25.526845    ( 0.0000,  0.0000,  0.0000)
  50 H      8.860501    2.222500   19.703226    ( 0.0000,  0.0000,  0.0000)
  51 N      8.079472    1.580019   17.111562    ( 0.0000,  0.0000,  0.0000)
  52 N      8.084129    1.674957   18.194663    ( 0.0000,  0.0000,  0.0000)

Unit cell:
           periodic     x           y           z      points  spacing
  1. axis:    yes    9.702222    0.000000    0.000000    60     0.1617
  2. axis:    yes    0.000000    9.702222    0.000000    60     0.1617
  3. axis:    no     0.000000    0.000000   26.601111   168     0.1583

  Lengths:   9.702222   9.702222  26.601111
  Angles:   90.000000  90.000000  90.000000

Effective grid spacing dv^(1/3) = 0.1606

     iter     time        total  log10-change:
                         energy  eigst   dens
iter:   1 10:34:23  -352.793833  -0.77
iter:   2 10:34:30  -352.726938  -0.99  -1.67
iter:   3 10:34:44  -352.707630  -1.66  -1.85
iter:   4 10:34:52  -352.699477c -1.24  -2.19
Writing to output.gpw (mode='')

iter:   5 10:35:00  -352.699177c -1.85  -2.27
iter:   6 10:35:08  -352.700965c -1.87  -2.41
iter:   7 10:35:16  -352.699302c -1.91  -2.36
iter:   8 10:35:24  -352.698873c -2.38  -2.68
iter:   9 10:35:32  -352.699098c -2.70  -2.73
Writing to output.gpw (mode='')

iter:  10 10:35:39  -352.698855c -3.02  -2.82
iter:  11 10:35:47  -352.698891c -3.41  -3.03
iter:  12 10:35:55  -352.698915c -3.37  -3.11
iter:  13 10:36:03  -352.698920c -3.70  -3.16
iter:  14 10:36:10  -352.698893c -3.73  -3.22
Writing to output.gpw (mode='')

iter:  15 10:36:18  -352.698914c -3.83  -3.44
iter:  16 10:36:26  -352.698921c -4.22  -3.55
iter:  17 10:36:34  -352.698916c -4.40  -3.55
iter:  18 10:36:42  -352.698922c -4.58  -3.73
iter:  19 10:36:49  -352.698929c -4.55  -3.82
Writing to output.gpw (mode='')

iter:  20 10:36:57  -352.698932c -4.96  -3.98
iter:  21 10:37:05  -352.698936c -5.02  -4.08c
iter:  22 10:37:13  -352.698939c -5.09  -4.12c
iter:  23 10:37:20  -352.698939c -5.02  -4.24c
iter:  24 10:37:28  -352.698941c -5.49  -4.18c
Writing to output.gpw (mode='')

iter:  25 10:37:36  -352.698943c -5.36  -4.33c
iter:  26 10:37:44  -352.698943c -5.49  -4.61c
iter:  27 10:37:52  -352.698944c -5.75  -4.77c
iter:  28 10:37:59  -352.698945c -5.98  -4.78c
iter:  29 10:38:07  -352.698945c -6.00  -4.81c
Writing to output.gpw (mode='')

iter:  30 10:38:15  -352.698946c -6.18  -4.95c
iter:  31 10:38:23  -352.698946c -6.16  -5.03c
iter:  32 10:38:30  -352.698946c -6.12  -5.13c
iter:  33 10:38:38  -352.698946c -6.23  -5.24c
iter:  34 10:38:46  -352.698947c -6.32  -5.24c
Writing to output.gpw (mode='')

iter:  35 10:38:54  -352.698947c -6.48  -5.33c
iter:  36 10:39:02  -352.698947c -6.58  -5.38c
iter:  37 10:39:09  -352.698947c -6.54  -5.36c
iter:  38 10:39:17  -352.698947c -6.79  -5.33c
iter:  39 10:39:26  -352.698947c -6.69  -5.31c
Writing to output.gpw (mode='')

iter:  40 10:39:44  -352.698947c -6.89  -5.23c
iter:  41 10:39:54  -352.698947c -7.12  -5.22c
iter:  42 10:40:02  -352.698947c -7.19  -5.12c
iter:  43 10:40:09  -352.698947c -7.20  -5.25c
iter:  44 10:40:17  -352.698947c -7.29  -5.33c
Writing to output.gpw (mode='')

iter:  45 10:40:25  -352.698947c -7.45c -5.46c

Converged after 45 iterations.

Dipole moment: (1.042138, -17.586948, 0.763983) |e|*Ang

Energy contributions relative to reference atoms: (reference = -16540.070923)

Kinetic:       +221.488789
Potential:     -207.598170
External:        +0.000000
XC:            -367.299148
Entropy (-ST):   -0.146854
Local:           +0.783008
--------------------------
Free energy:   -352.772374
Extrapolated:  -352.698947

Dipole-layer corrected work functions: 3.376945, 1.908306 eV

Showing only first 2 kpts
 Kpt  Band  Eigenvalues  Occupancy
  0    37     -2.89244    1.98656
  0    38     -2.78590    1.89222
  0    39     -2.47413    0.06650
  0    40     -2.39894    0.01517

  1    37     -2.69326    1.46708
  1    38     -2.64982    1.07183
  1    39     -2.62998    0.87417
  1    40     -2.53536    0.20954


Fermi level: -2.64263

No gap

Forces in eV/Ang:
  0 Li    0.02728    0.00033   -0.27052
  1 Li   -0.02726   -0.00038   -0.27076
  2 Li    0.00037    0.00156   -0.27628
  3 Li   -0.00274   -0.00354   -0.27620
  4 Li    0.00289   -0.00276   -0.27527
  5 Li   -0.00020    0.02801   -0.26992
  6 Li   -0.00243    0.00221   -0.27419
  7 Li    0.00297    0.00180   -0.27496
  8 Li   -0.00089   -0.02770   -0.27265
  9 Li   -0.00386    0.00155    0.29514
 10 Li   -0.00052    0.00582    0.24498
 11 Li    0.00418    0.00190    0.29535
 12 Li    0.00264    0.00173    0.28556
 13 Li   -0.00156   -0.01100    0.25001
 14 Li   -0.00186    0.00109    0.28707
 15 Li   -0.00740   -0.00609    0.24764
 16 Li    0.00110    0.00644    0.27337
 17 Li    0.00653   -0.00513    0.24509
 18 Li   -0.00920   -0.00313    0.05198
 19 Li    0.00662   -0.00230    0.04626
 20 Li    0.00105    0.00992   -0.17484
 21 Li   -0.00709   -0.00889    0.04279
 22 Li    0.00852   -0.01117    0.04421
 23 Li   -0.00100   -0.01227    0.05247
 24 Li   -0.01629    0.01391    0.04888
 25 Li    0.01665    0.01504    0.05015
 26 Li   -0.00026   -0.00471    0.03731
 27 Li    0.04301   -0.04882   -0.03162
 28 Li   -0.00239    0.02630   -0.01725
 29 Li   -0.03675   -0.04573   -0.02540
 30 Li    0.08983    0.08881   -0.06955
 31 Li   -0.00356   -0.02790   -0.01591
 32 Li   -0.07807    0.07973   -0.05285
 33 Li   -0.02468    0.00060   -0.01830
 34 Li   -0.00066    0.00044   -0.01733
 35 Li    0.02520    0.00185   -0.01988
 36 O    -0.09598   -1.87193   11.60735
 37 C    -0.06993   -0.61755    1.23676
 38 C    -0.00626    0.29433    0.13898
 39 C     0.33252    0.95656    1.22392
 40 C    -0.01401    0.07843   -0.77382
 41 H     0.05037   -0.05175   -0.06896
 42 H    -0.02606   -0.08992   -0.09941
 43 H    -0.03058    0.04295   -0.00726
 44 H     0.00225    0.01953   -0.01799
 45 H     0.41968   -0.53620    0.22030
 46 H    -0.45254   -0.45177    0.17106
 47 H    -0.07630   -0.08284   -0.14070
 48 H     0.07824   -0.08698   -0.14376
 49 H     0.00109    0.00852   -1.64085
 50 H    -0.22740   -0.28990    0.54931
 51 N    -0.54571   -3.04434   -5.91841
 52 N     0.69807    5.69621   -9.46276

System changes: positions 

Initializing position-dependent things.

Density initialized from wave functions
       .-----------------------.  
      /|                       |  
     / |                       |  
    /  |                       |  
   /   |                       |  
  /    |                       |  
 *     |                       |  
 |     |            H H  H     |  
 |     |                       |  
 |     |                       |  
 |     |           HHC HH      |  
 |     |              C        |  
 |     |                       |  
 |     |           H COHH      |  
 |     |               Li      |  
 |     |              N        |  
 |     |     Li      Li      Li|  
 |     |  Li      Li  N   Li   |  
 | Li  |   Li      Li          |  
 |     |Li      Li      Li     |  
 |     | Li              Li    |  
 |   LLi     LLi     LLi       |  
 |     |  Li      Li      Li   |  
 | Li  |   Li      Li          |  
 |     |Li      Li      Li     |  
 Li    | Li      Li            |  
 |    Li      Li      Li       |  
 |     |                       |  
 |     |                       |  
 |     |                       |  
 |     |                       |  
 |     |                       |  
 |     |                       |  
 |     .-----------------------.  
 |    /                       /   
 |   /                       /    
 |  /                       /     
 | /                       /      
 |/                       /       
 *-----------------------*        

Positions:
   0 Li     1.617037    1.617037   10.000000    ( 0.0000,  0.0000,  0.0000)
   1 Li     4.851111    1.617037   10.000000    ( 0.0000,  0.0000,  0.0000)
   2 Li     8.085185    1.617037   10.000000    ( 0.0000,  0.0000,  0.0000)
   3 Li     1.617037    4.851111   10.000000    ( 0.0000,  0.0000,  0.0000)
   4 Li     4.851111    4.851111   10.000000    ( 0.0000,  0.0000,  0.0000)
   5 Li     8.085185    4.851111   10.000000    ( 0.0000,  0.0000,  0.0000)
   6 Li     1.617037    8.085185   10.000000    ( 0.0000,  0.0000,  0.0000)
   7 Li     4.851111    8.085185   10.000000    ( 0.0000,  0.0000,  0.0000)
   8 Li     8.085185    8.085185   10.000000    ( 0.0000,  0.0000,  0.0000)
   9 Li     0.000000    0.000000   11.617037    ( 0.0000,  0.0000,  0.0000)
  10 Li     3.234074    0.000000   11.617037    ( 0.0000,  0.0000,  0.0000)
  11 Li     6.468148    0.000000   11.617037    ( 0.0000,  0.0000,  0.0000)
  12 Li     0.000000    3.234074   11.617037    ( 0.0000,  0.0000,  0.0000)
  13 Li     3.234074    3.234074   11.617037    ( 0.0000,  0.0000,  0.0000)
  14 Li     6.468148    3.234074   11.617037    ( 0.0000,  0.0000,  0.0000)
  15 Li     0.000000    6.468148   11.617037    ( 0.0000,  0.0000,  0.0000)
  16 Li     3.234074    6.468148   11.617037    ( 0.0000,  0.0000,  0.0000)
  17 Li     6.468148    6.468148   11.617037    ( 0.0000,  0.0000,  0.0000)
  18 Li     1.617016    1.616908   13.470344    ( 0.0000,  0.0000,  0.0000)
  19 Li     4.851118    1.616979   13.470379    ( 0.0000,  0.0000,  0.0000)
  20 Li     8.085151    1.617091   13.467303    ( 0.0000,  0.0000,  0.0000)
  21 Li     1.617130    4.851122   13.470182    ( 0.0000,  0.0000,  0.0000)
  22 Li     4.851114    4.850911   13.470534    ( 0.0000,  0.0000,  0.0000)
  23 Li     8.085139    4.851013   13.470553    ( 0.0000,  0.0000,  0.0000)
  24 Li     1.616777    8.085306   13.470614    ( 0.0000,  0.0000,  0.0000)
  25 Li     4.851281    8.085326   13.470455    ( 0.0000,  0.0000,  0.0000)
  26 Li     8.085205    8.085011   13.470037    ( 0.0000,  0.0000,  0.0000)
  27 Li    -0.000598    0.000051   15.447135    ( 0.0000,  0.0000,  0.0000)
  28 Li     3.234001    0.000219   15.445661    ( 0.0000,  0.0000,  0.0000)
  29 Li     6.468649   -0.000078   15.447276    ( 0.0000,  0.0000,  0.0000)
  30 Li     0.000526    3.234775   15.446669    ( 0.0000,  0.0000,  0.0000)
  31 Li     3.234088    3.233741   15.445791    ( 0.0000,  0.0000,  0.0000)
  32 Li     6.467900    3.234530   15.446497    ( 0.0000,  0.0000,  0.0000)
  33 Li    -0.000206    6.468022   15.445730    ( 0.0000,  0.0000,  0.0000)
  34 Li     3.234117    6.468306   15.445511    ( 0.0000,  0.0000,  0.0000)
  35 Li     6.468321    6.467933   15.445669    ( 0.0000,  0.0000,  0.0000)
  36 O      8.088319    1.625904   19.781872    ( 0.0000,  0.0000,  0.0000)
  37 C      8.049243    1.624950   22.118094    ( 0.0000,  0.0000,  0.0000)
  38 C      8.062155    0.778259   23.385410    ( 0.0000,  0.0000,  0.0000)
  39 C      8.082588    0.759171   20.903695    ( 0.0000,  0.0000,  0.0000)
  40 C      8.078344    1.619703   24.646137    ( 0.0000,  0.0000,  0.0000)
  41 H      7.156514    2.262999   22.098423    ( 0.0000,  0.0000,  0.0000)
  42 H      8.919488    2.298965   22.126177    ( 0.0000,  0.0000,  0.0000)
  43 H      8.938740    0.115828   23.369135    ( 0.0000,  0.0000,  0.0000)
  44 H      7.184677    0.118257   23.386827    ( 0.0000,  0.0000,  0.0000)
  45 H      8.962105    0.137697   20.835419    ( 0.0000,  0.0000,  0.0000)
  46 H      7.185400    0.178615   20.745848    ( 0.0000,  0.0000,  0.0000)
  47 H      8.961609    2.266987   24.680471    ( 0.0000,  0.0000,  0.0000)
  48 H      7.201780    2.274449   24.698120    ( 0.0000,  0.0000,  0.0000)
  49 H      8.084482    1.017210   25.516491    ( 0.0000,  0.0000,  0.0000)
  50 H      8.862215    2.224045   19.709684    ( 0.0000,  0.0000,  0.0000)
  51 N      8.079985    1.562396   17.075657    ( 0.0000,  0.0000,  0.0000)
  52 N      8.079285    1.700966   18.168480    ( 0.0000,  0.0000,  0.0000)

Unit cell:
           periodic     x           y           z      points  spacing
  1. axis:    yes    9.702222    0.000000    0.000000    60     0.1617
  2. axis:    yes    0.000000    9.702222    0.000000    60     0.1617
  3. axis:    no     0.000000    0.000000   26.601111   168     0.1583

  Lengths:   9.702222   9.702222  26.601111
  Angles:   90.000000  90.000000  90.000000

Effective grid spacing dv^(1/3) = 0.1606

     iter     time        total  log10-change:
                         energy  eigst   dens
iter:   1 10:40:34  -353.691930  -0.77
iter:   2 10:40:42  -353.689094  -1.39  -2.01
iter:   3 10:40:49  -353.685494c -1.81  -2.16
iter:   4 10:40:57  -353.677763c -1.24  -2.32
Writing to output.gpw (mode='')

iter:   5 10:41:05  -353.674852c -2.16  -2.38
iter:   6 10:41:12  -353.673952c -2.15  -2.50
iter:   7 10:41:20  -353.675710c -2.17  -2.67
iter:   8 10:41:28  -353.673541c -2.72  -2.68
iter:   9 10:41:35  -353.673524c -3.13  -2.79
Writing to output.gpw (mode='')

iter:  10 10:41:43  -353.673195c -2.65  -2.84
iter:  11 10:41:50  -353.673088c -3.02  -2.90
iter:  12 10:41:58  -353.673049c -3.55  -2.98
iter:  13 10:42:05  -353.672925c -3.29  -3.07
iter:  14 10:42:13  -353.672890c -3.81  -3.37
Writing to output.gpw (mode='')

iter:  15 10:42:21  -353.672899c -4.13  -3.44
iter:  16 10:42:28  -353.672928c -4.18  -3.48
iter:  17 10:42:36  -353.672913c -4.27  -3.62
iter:  18 10:42:44  -353.672911c -4.81  -3.74
iter:  19 10:42:51  -353.672908c -4.81  -3.86
Writing to output.gpw (mode='')

iter:  20 10:42:59  -353.672908c -5.02  -3.94
iter:  21 10:43:06  -353.672908c -5.03  -4.02c
iter:  22 10:43:14  -353.672907c -5.45  -4.20c
iter:  23 10:43:22  -353.672906c -5.40  -4.25c
iter:  24 10:43:29  -353.672905c -5.62  -4.49c
Writing to output.gpw (mode='')

iter:  25 10:43:37  -353.672905c -5.76  -4.55c
iter:  26 10:43:44  -353.672905c -5.69  -4.63c
iter:  27 10:43:52  -353.672906c -5.87  -4.72c
iter:  28 10:44:00  -353.672907c -6.00  -4.79c
iter:  29 10:44:07  -353.672907c -6.02  -4.88c
Writing to output.gpw (mode='')

iter:  30 10:44:15  -353.672907c -6.28  -4.93c
iter:  31 10:44:22  -353.672907c -6.31  -4.94c
iter:  32 10:44:30  -353.672907c -6.31  -5.05c
iter:  33 10:44:45  -353.672907c -6.56  -5.20c
iter:  34 10:44:54  -353.672907c -6.40  -5.24c
Writing to output.gpw (mode='')

iter:  35 10:45:02  -353.672907c -6.63  -5.32c
iter:  36 10:45:09  -353.672908c -6.59  -5.31c
iter:  37 10:45:17  -353.672908c -6.61  -5.56c
iter:  38 10:45:24  -353.672908c -6.72  -5.54c
iter:  39 10:45:32  -353.672908c -7.01  -5.49c
Writing to output.gpw (mode='')

iter:  40 10:45:40  -353.672908c -7.04  -5.47c
iter:  41 10:45:47  -353.672908c -7.28  -5.40c
iter:  42 10:45:55  -353.672908c -7.20  -5.41c
iter:  43 10:46:03  -353.672908c -7.30  -5.40c
iter:  44 10:46:10  -353.672908c -7.15  -5.39c
Writing to output.gpw (mode='')

iter:  45 10:46:18  -353.672908c -6.82  -5.35c
iter:  46 10:46:25  -353.672908c -7.12  -5.30c
iter:  47 10:46:33  -353.672908c -7.42c -5.33c

Converged after 47 iterations.

Dipole moment: (0.997806, -17.560757, 0.753560) |e|*Ang

Energy contributions relative to reference atoms: (reference = -16540.070923)

Kinetic:       +216.940346
Potential:     -204.412728
External:        +0.000000
XC:            -366.917983
Entropy (-ST):   -0.146832
Local:           +0.790873
--------------------------
Free energy:   -353.746324
Extrapolated:  -353.672908

Dipole-layer corrected work functions: 3.376680, 1.928080 eV

Showing only first 2 kpts
 Kpt  Band  Eigenvalues  Occupancy
  0    37     -2.90226    1.98658
  0    38     -2.79535    1.89161
  0    39     -2.48270    0.06499
  0    40     -2.41019    0.01563

  1    37     -2.70156    1.45567
  1    38     -2.66202    1.09610
  1    39     -2.63972    0.87404
  1    40     -2.54225    0.19905


Fermi level: -2.65238

No gap
Writing to output.gpw (mode='')


Forces in eV/Ang:
  0 Li    0.02726    0.00049   -0.27042
  1 Li   -0.02726   -0.00026   -0.27073
  2 Li    0.00034    0.00152   -0.27638
  3 Li   -0.00231   -0.00380   -0.27635
  4 Li    0.00242   -0.00307   -0.27554
  5 Li   -0.00016    0.02846   -0.26954
  6 Li   -0.00268    0.00165   -0.27417
  7 Li    0.00316    0.00129   -0.27484
  8 Li   -0.00087   -0.02766   -0.27345
  9 Li   -0.00474    0.00173    0.29669
 10 Li   -0.00043    0.00613    0.24484
 11 Li    0.00503    0.00193    0.29677
 12 Li    0.00281    0.00160    0.28557
 13 Li   -0.00139   -0.01157    0.25024
 14 Li   -0.00220    0.00123    0.28692
 15 Li   -0.00698   -0.00704    0.24715
 16 Li    0.00094    0.00770    0.27316
 17 Li    0.00633   -0.00614    0.24475
 18 Li   -0.00955   -0.00341    0.05162
 19 Li    0.00740   -0.00268    0.04596
 20 Li    0.00092    0.01259   -0.17338
 21 Li   -0.00746   -0.00886    0.04330
 22 Li    0.00880   -0.01054    0.04391
 23 Li   -0.00089   -0.01296    0.05154
 24 Li   -0.01652    0.01519    0.04897
 25 Li    0.01688    0.01585    0.05034
 26 Li   -0.00021   -0.00767    0.03416
 27 Li    0.03386   -0.03892   -0.02162
 28 Li   -0.00249    0.02611   -0.01761
 29 Li   -0.02929   -0.03806   -0.01698
 30 Li    0.08816    0.08562   -0.06684
 31 Li   -0.00382   -0.02722   -0.01639
 32 Li   -0.07757    0.07830   -0.04988
 33 Li   -0.02406    0.00188   -0.01919
 34 Li   -0.00089   -0.00078   -0.01730
 35 Li    0.02478    0.00330   -0.02071
 36 O    -0.05137   -1.58497    9.33418
 37 C    -0.05483   -0.52117    1.17962
 38 C    -0.00685    0.20082    0.13068
 39 C     0.36401    0.88821    0.80390
 40 C    -0.01972    0.12114   -0.68687
 41 H     0.06296   -0.07972   -0.05177
 42 H    -0.04049   -0.11347   -0.07405
 43 H    -0.03548    0.04794    0.00610
 44 H     0.00841    0.02535   -0.00342
 45 H     0.33674   -0.52317    0.30591
 46 H    -0.28420   -0.36292    0.23545
 47 H    -0.05088   -0.05995   -0.15584
 48 H     0.05007   -0.06142   -0.15610
 49 H     0.00204   -0.06234   -1.44355
 50 H    -0.29006   -0.42025    0.63255
 51 N    -0.38841   -2.71660   -3.57785
 52 N     0.44089    5.11665   -9.44961

System changes: positions 

Initializing position-dependent things.

Density initialized from wave functions
       .-----------------------.  
      /|                       |  
     / |                       |  
    /  |                       |  
   /   |                       |  
  /    |                       |  
 *     |                       |  
 |     |            H H  H     |  
 |     |                       |  
 |     |                       |  
 |     |           HHC HH      |  
 |     |              C        |  
 |     |                       |  
 |     |           H COHH      |  
 |     |               Li      |  
 |     |              N        |  
 |     |     Li      Li      Li|  
 |     |  Li      Li  N   Li   |  
 | Li  |   Li      Li          |  
 |     |Li      Li      Li     |  
 |     | Li              Li    |  
 |   LLi     LLi     LLi       |  
 |     |  Li      Li      Li   |  
 | Li  |   Li      Li          |  
 |     |Li      Li      Li     |  
 Li    | Li      Li            |  
 |    Li      Li      Li       |  
 |     |                       |  
 |     |                       |  
 |     |                       |  
 |     |                       |  
 |     |                       |  
 |     |                       |  
 |     .-----------------------.  
 |    /                       /   
 |   /                       /    
 |  /                       /     
 | /                       /      
 |/                       /       
 *-----------------------*        

Positions:
   0 Li     1.617037    1.617037   10.000000    ( 0.0000,  0.0000,  0.0000)
   1 Li     4.851111    1.617037   10.000000    ( 0.0000,  0.0000,  0.0000)
   2 Li     8.085185    1.617037   10.000000    ( 0.0000,  0.0000,  0.0000)
   3 Li     1.617037    4.851111   10.000000    ( 0.0000,  0.0000,  0.0000)
   4 Li     4.851111    4.851111   10.000000    ( 0.0000,  0.0000,  0.0000)
   5 Li     8.085185    4.851111   10.000000    ( 0.0000,  0.0000,  0.0000)
   6 Li     1.617037    8.085185   10.000000    ( 0.0000,  0.0000,  0.0000)
   7 Li     4.851111    8.085185   10.000000    ( 0.0000,  0.0000,  0.0000)
   8 Li     8.085185    8.085185   10.000000    ( 0.0000,  0.0000,  0.0000)
   9 Li     0.000000    0.000000   11.617037    ( 0.0000,  0.0000,  0.0000)
  10 Li     3.234074    0.000000   11.617037    ( 0.0000,  0.0000,  0.0000)
  11 Li     6.468148    0.000000   11.617037    ( 0.0000,  0.0000,  0.0000)
  12 Li     0.000000    3.234074   11.617037    ( 0.0000,  0.0000,  0.0000)
  13 Li     3.234074    3.234074   11.617037    ( 0.0000,  0.0000,  0.0000)
  14 Li     6.468148    3.234074   11.617037    ( 0.0000,  0.0000,  0.0000)
  15 Li     0.000000    6.468148   11.617037    ( 0.0000,  0.0000,  0.0000)
  16 Li     3.234074    6.468148   11.617037    ( 0.0000,  0.0000,  0.0000)
  17 Li     6.468148    6.468148   11.617037    ( 0.0000,  0.0000,  0.0000)
  18 Li     1.616978    1.616868   13.470613    ( 0.0000,  0.0000,  0.0000)
  19 Li     4.851156    1.616954   13.470648    ( 0.0000,  0.0000,  0.0000)
  20 Li     8.085142    1.617166   13.466300    ( 0.0000,  0.0000,  0.0000)
  21 Li     1.617125    4.851102   13.470403    ( 0.0000,  0.0000,  0.0000)
  22 Li     4.851143    4.850848   13.470824    ( 0.0000,  0.0000,  0.0000)
  23 Li     8.085129    4.850945   13.470861    ( 0.0000,  0.0000,  0.0000)
  24 Li     1.616678    8.085388   13.470938    ( 0.0000,  0.0000,  0.0000)
  25 Li     4.851360    8.085406   13.470747    ( 0.0000,  0.0000,  0.0000)
  26 Li     8.085210    8.084928   13.470169    ( 0.0000,  0.0000,  0.0000)
  27 Li    -0.000709    0.000039   15.447409    ( 0.0000,  0.0000,  0.0000)
  28 Li     3.233978    0.000339   15.445561    ( 0.0000,  0.0000,  0.0000)
  29 Li     6.468727   -0.000151   15.447568    ( 0.0000,  0.0000,  0.0000)
  30 Li     0.000874    3.235144   15.446649    ( 0.0000,  0.0000,  0.0000)
  31 Li     3.234078    3.233599   15.445721    ( 0.0000,  0.0000,  0.0000)
  32 Li     6.467619    3.234860   15.446479    ( 0.0000,  0.0000,  0.0000)
  33 Li    -0.000311    6.468018   15.445634    ( 0.0000,  0.0000,  0.0000)
  34 Li     3.234121    6.468324   15.445371    ( 0.0000,  0.0000,  0.0000)
  35 Li     6.468424    6.467916   15.445556    ( 0.0000,  0.0000,  0.0000)
  36 O      8.090886    1.627465   19.799593    ( 0.0000,  0.0000,  0.0000)
  37 C      8.049096    1.623144   22.124641    ( 0.0000,  0.0000,  0.0000)
  38 C      8.062044    0.778664   23.386156    ( 0.0000,  0.0000,  0.0000)
  39 C      8.084264    0.757549   20.909674    ( 0.0000,  0.0000,  0.0000)
  40 C      8.078200    1.620890   24.641965    ( 0.0000,  0.0000,  0.0000)
  41 H      7.157037    2.262368   22.098206    ( 0.0000,  0.0000,  0.0000)
  42 H      8.918939    2.298053   22.125896    ( 0.0000,  0.0000,  0.0000)
  43 H      8.938431    0.116227   23.369198    ( 0.0000,  0.0000,  0.0000)
  44 H      7.184816    0.118484   23.386836    ( 0.0000,  0.0000,  0.0000)
  45 H      8.964097    0.134048   20.837454    ( 0.0000,  0.0000,  0.0000)
  46 H      7.184109    0.176287   20.747468    ( 0.0000,  0.0000,  0.0000)
  47 H      8.961458    2.266759   24.679353    ( 0.0000,  0.0000,  0.0000)
  48 H      7.201913    2.274224   24.697019    ( 0.0000,  0.0000,  0.0000)
  49 H      8.084493    1.016429   25.507522    ( 0.0000,  0.0000,  0.0000)
  50 H      8.862864    2.223906   19.716413    ( 0.0000,  0.0000,  0.0000)
  51 N      8.081200    1.547227   17.059955    ( 0.0000,  0.0000,  0.0000)
  52 N      8.073718    1.723896   18.136181    ( 0.0000,  0.0000,  0.0000)

Unit cell:
           periodic     x           y           z      points  spacing
  1. axis:    yes    9.702222    0.000000    0.000000    60     0.1617
  2. axis:    yes    0.000000    9.702222    0.000000    60     0.1617
  3. axis:    no     0.000000    0.000000   26.601111   168     0.1583

  Lengths:   9.702222   9.702222  26.601111
  Angles:   90.000000  90.000000  90.000000

Effective grid spacing dv^(1/3) = 0.1606

     iter     time        total  log10-change:
                         energy  eigst   dens
iter:   1 10:46:42  -354.489882  -0.95
iter:   2 10:46:50  -354.388331  -0.99  -1.62
iter:   3 10:46:58  -354.357748  -1.80  -1.82
iter:   4 10:47:05  -354.344075  -1.04  -2.21
Writing to output.gpw (mode='')

iter:   5 10:47:13  -354.337089c -2.03  -2.12
iter:   6 10:47:21  -354.338617c -1.80  -2.40
iter:   7 10:47:28  -354.335950c -1.97  -2.48
iter:   8 10:47:36  -354.335241c -2.62  -2.66
iter:   9 10:47:44  -354.335464c -2.68  -2.84
Writing to output.gpw (mode='')

iter:  10 10:47:51  -354.335369c -3.17  -2.89
iter:  11 10:47:59  -354.335427c -3.13  -3.02
iter:  12 10:48:07  -354.335417c -3.62  -3.07
iter:  13 10:48:15  -354.335433c -3.59  -3.17
iter:  14 10:48:23  -354.335494c -3.68  -3.32
Writing to output.gpw (mode='')

iter:  15 10:48:30  -354.335476c -3.96  -3.40
iter:  16 10:48:38  -354.335478c -4.31  -3.37
iter:  17 10:48:46  -354.335487c -4.27  -3.70
iter:  18 10:48:54  -354.335498c -4.20  -3.84
iter:  19 10:49:02  -354.335494c -4.59  -3.88
Writing to output.gpw (mode='')

iter:  20 10:49:12  -354.335496c -4.67  -3.92
iter:  21 10:49:20  -354.335502c -4.86  -4.01c
iter:  22 10:49:28  -354.335504c -4.87  -4.16c
iter:  23 10:49:36  -354.335507c -5.03  -4.24c
iter:  24 10:49:49  -354.335509c -5.17  -4.31c
Writing to output.gpw (mode='')

iter:  25 10:49:57  -354.335511c -5.47  -4.44c
iter:  26 10:50:04  -354.335512c -5.51  -4.52c
iter:  27 10:50:12  -354.335512c -5.54  -4.65c
iter:  28 10:50:20  -354.335513c -5.84  -4.87c
iter:  29 10:50:28  -354.335513c -6.03  -4.95c
Writing to output.gpw (mode='')

iter:  30 10:50:36  -354.335514c -5.88  -4.96c
iter:  31 10:50:43  -354.335514c -6.14  -4.95c
iter:  32 10:50:51  -354.335514c -6.28  -4.93c
iter:  33 10:50:59  -354.335514c -6.12  -4.89c
iter:  34 10:51:07  -354.335514c -6.03  -4.86c
Writing to output.gpw (mode='')

iter:  35 10:51:15  -354.335515c -6.36  -4.76c
iter:  36 10:51:22  -354.335515c -6.63  -4.81c
iter:  37 10:51:30  -354.335515c -6.72  -4.80c
iter:  38 10:51:38  -354.335515c -6.57  -4.82c
iter:  39 10:51:46  -354.335515c -6.75  -4.79c
Writing to output.gpw (mode='')

iter:  40 10:51:54  -354.335515c -6.81  -4.84c
iter:  41 10:52:01  -354.335515c -6.83  -4.83c
iter:  42 10:52:09  -354.335515c -7.07  -4.84c
iter:  43 10:52:17  -354.335515c -7.03  -4.81c
iter:  44 10:52:25  -354.335515c -6.84  -4.85c
Writing to output.gpw (mode='')

iter:  45 10:52:32  -354.335515c -6.67  -4.88c
iter:  46 10:52:40  -354.335516c -6.97  -4.65c
iter:  47 10:52:48  -354.335516c -6.94  -4.95c
iter:  48 10:52:56  -354.335516c -7.01  -5.12c
iter:  49 10:53:04  -354.335516c -7.18  -5.26c
Writing to output.gpw (mode='')

iter:  50 10:53:11  -354.335516c -7.27  -5.39c
iter:  51 10:53:19  -354.335516c -7.54c -5.43c

Converged after 51 iterations.

Dipole moment: (0.996531, -17.580651, 0.735913) |e|*Ang

Energy contributions relative to reference atoms: (reference = -16540.070923)

Kinetic:       +216.870424
Potential:     -204.691679
External:        +0.000000
XC:            -367.238054
Entropy (-ST):   -0.146545
Local:           +0.797065
--------------------------
Free energy:   -354.408788
Extrapolated:  -354.335516

Dipole-layer corrected work functions: 3.376266, 1.961590 eV

Showing only first 2 kpts
 Kpt  Band  Eigenvalues  Occupancy
  0    37     -2.91905    1.98665
  0    38     -2.81369    1.89523
  0    39     -2.49799    0.06343
  0    40     -2.42611    0.01544

  1    37     -2.71609    1.43948
  1    38     -2.67845    1.09494
  1    39     -2.65675    0.87886
  1    40     -2.55903    0.19986


Fermi level: -2.66893

No gap
Writing to output.gpw (mode='')


Forces in eV/Ang:
  0 Li    0.02709    0.00062   -0.27033
  1 Li   -0.02713   -0.00014   -0.27055
  2 Li    0.00026    0.00143   -0.27611
  3 Li   -0.00204   -0.00410   -0.27626
  4 Li    0.00224   -0.00335   -0.27561
  5 Li   -0.00014    0.02852   -0.26907
  6 Li   -0.00288    0.00145   -0.27400
  7 Li    0.00347    0.00108   -0.27462
  8 Li   -0.00088   -0.02738   -0.27367
  9 Li   -0.00494    0.00164    0.29721
 10 Li   -0.00017    0.00631    0.24484
 11 Li    0.00514    0.00149    0.29678
 12 Li    0.00303    0.00162    0.28536
 13 Li   -0.00104   -0.01176    0.25023
[...]
  0 Li   -0.01113    0.01206   -0.28942
  1 Li    0.01357   -0.00962   -0.28893
  2 Li   -0.00013    0.00112   -0.24298
  3 Li    0.00830    0.00930   -0.29103
  4 Li   -0.01282    0.01780   -0.28474
  5 Li    0.01146   -0.01027   -0.28824
  6 Li    0.01694   -0.01208   -0.28507
  7 Li   -0.00693   -0.00795   -0.29367
  8 Li   -0.01037    0.01484   -0.29001
  9 Li   -0.01093   -0.00046    0.24885
 10 Li   -0.01628    0.01245    0.30583
 11 Li    0.00035   -0.00434    0.31318
 12 Li   -0.00921   -0.01974    0.29989
 13 Li    0.00305   -0.01360    0.29008
 14 Li    0.00584   -0.01511    0.23896
 15 Li   -0.01554   -0.00351    0.29306
 16 Li   -0.01865   -0.02205    0.28476
 17 Li    0.01657   -0.02623    0.29994
 18 Li   -0.00309   -0.01504    0.00323
 19 Li    0.01206   -0.01240   -0.00263
 20 Li    0.01723    0.02195   -0.03124
 21 Li    0.02525    0.01454   -0.01765
 22 Li   -0.01012   -0.00293    0.00236
 23 Li   -0.00876    0.01365   -0.00461
 24 Li   -0.01066    0.00292    0.00260
 25 Li   -0.00284    0.00412   -0.00719
 26 Li   -0.00255    0.00754   -0.01551
 27 Li    0.01396    0.00068    0.02514
 28 Li   -0.01143    0.00720    0.00124
 29 Li   -0.00449    0.01230    0.02323
 30 Li    0.00677    0.02041   -0.02351
 31 Li    0.00170    0.00172   -0.01759
 32 Li   -0.00116    0.00412   -0.00547
 33 Li    0.00039    0.01448   -0.01149
 34 Li    0.00158    0.00110   -0.01264
 35 Li    0.00125    0.01241    0.00241
 36 O     0.03643    0.02076   -0.04658
 37 C    -0.00136    0.03653   -0.00861
 38 C     0.00454   -0.04255   -0.01068
 39 C    -0.00820   -0.01629    0.04950
 40 C    -0.00379    0.01297   -0.03631
 41 H    -0.01986   -0.00978   -0.01354
 42 H     0.02452   -0.01903   -0.01110
 43 H     0.01868   -0.01019    0.01390
 44 H    -0.01475    0.00005    0.00975
 45 H     0.01580   -0.01440    0.01214
 46 H     0.01403    0.01679   -0.03609
 47 H     0.00613    0.02916    0.00589
 48 H    -0.01692    0.02056   -0.00005
 49 H     0.00001    0.00273   -0.00945
 50 H    -0.03398   -0.00733   -0.01341
 51 N     0.00119   -0.00185    0.01509
 52 N    -0.02567   -0.00539    0.01395

System changes: positions 

Initializing position-dependent things.

Density initialized from wave functions
       .-----------------------.  
      /|                       |  
     / |                       |  
    /  |                       |  
   /   |                       |  
  /    |                       |  
 *     |                       |  
 |     |                       |  
 |     |            H H  H   H |  
 |     |              C  H     |  
 |     |                       |  
 |     |           H C H       |  
 |     |            H C H      |  
 |     |                       |  
 |     |       Li    C Li      |  
 |     |             O  H      |  
 |   Li|     Li      Li        |  
 |     |  Li      Li      Li   |  
 | Li  |   Li      Li          |  
 |     |Li      Li  N  NLi     |  
 |     |                Li     |  
 |   LLi     LLi     LLi       |  
 |     |  Li      Li      Li   |  
 | Li  |   Li      Li          |  
 |     |Li      Li      Li     |  
 Li    | Li      Li            |  
 |    Li      Li      Li       |  
 |     |                       |  
 |     |                       |  
 |     |                       |  
 |     |                       |  
 |     |                       |  
 |     |                       |  
 |     .-----------------------.  
 |    /                       /   
 |   /                       /    
 |  /                       /     
 | /                       /      
 |/                       /       
 *-----------------------*        

Positions:
   0 Li     1.617037    1.617037   10.000000    ( 0.0000,  0.0000,  0.0000)
   1 Li     4.851111    1.617037   10.000000    ( 0.0000,  0.0000,  0.0000)
   2 Li     8.085185    1.617037   10.000000    ( 0.0000,  0.0000,  0.0000)
   3 Li     1.617037    4.851111   10.000000    ( 0.0000,  0.0000,  0.0000)
   4 Li     4.851111    4.851111   10.000000    ( 0.0000,  0.0000,  0.0000)
   5 Li     8.085185    4.851111   10.000000    ( 0.0000,  0.0000,  0.0000)
   6 Li     1.617037    8.085185   10.000000    ( 0.0000,  0.0000,  0.0000)
   7 Li     4.851111    8.085185   10.000000    ( 0.0000,  0.0000,  0.0000)
   8 Li     8.085185    8.085185   10.000000    ( 0.0000,  0.0000,  0.0000)
   9 Li     0.000000    0.000000   11.617037    ( 0.0000,  0.0000,  0.0000)
  10 Li     3.234074    0.000000   11.617037    ( 0.0000,  0.0000,  0.0000)
  11 Li     6.468148    0.000000   11.617037    ( 0.0000,  0.0000,  0.0000)
  12 Li     0.000000    3.234074   11.617037    ( 0.0000,  0.0000,  0.0000)
  13 Li     3.234074    3.234074   11.617037    ( 0.0000,  0.0000,  0.0000)
  14 Li     6.468148    3.234074   11.617037    ( 0.0000,  0.0000,  0.0000)
  15 Li     0.000000    6.468148   11.617037    ( 0.0000,  0.0000,  0.0000)
  16 Li     3.234074    6.468148   11.617037    ( 0.0000,  0.0000,  0.0000)
  17 Li     6.468148    6.468148   11.617037    ( 0.0000,  0.0000,  0.0000)
  18 Li     1.595805    1.658668   13.515554    ( 0.0000,  0.0000,  0.0000)
  19 Li     4.844591    1.584014   13.524876    ( 0.0000,  0.0000,  0.0000)
  20 Li     8.074142    1.597538   13.478292    ( 0.0000,  0.0000,  0.0000)
  21 Li     1.643372    4.874449   13.513389    ( 0.0000,  0.0000,  0.0000)
  22 Li     4.902529    4.780961   13.504098    ( 0.0000,  0.0000,  0.0000)
  23 Li     8.133834    4.801973   13.518934    ( 0.0000,  0.0000,  0.0000)
  24 Li     1.551646    8.123413   13.511311    ( 0.0000,  0.0000,  0.0000)
  25 Li     4.789365    8.016901   13.493806    ( 0.0000,  0.0000,  0.0000)
  26 Li     8.042714    8.060502   13.526824    ( 0.0000,  0.0000,  0.0000)
  27 Li    -0.323442    0.197174   15.605669    ( 0.0000,  0.0000,  0.0000)
  28 Li     3.060221   -0.056046   15.453647    ( 0.0000,  0.0000,  0.0000)
  29 Li     6.307932   -0.165839   15.466138    ( 0.0000,  0.0000,  0.0000)
  30 Li     0.101865    3.297036   15.469295    ( 0.0000,  0.0000,  0.0000)
  31 Li     3.343352    3.288492   15.488566    ( 0.0000,  0.0000,  0.0000)
  32 Li     6.688143    2.950963   15.603640    ( 0.0000,  0.0000,  0.0000)
  33 Li     0.054342    6.540081   15.480838    ( 0.0000,  0.0000,  0.0000)
  34 Li     3.240703    6.464411   15.484268    ( 0.0000,  0.0000,  0.0000)
  35 Li     6.418041    6.268637   15.449368    ( 0.0000,  0.0000,  0.0000)
  36 O      8.002560    1.038814   18.513781    ( 0.0000,  0.0000,  0.0000)
  37 C      8.027465    1.438492   20.959255    ( 0.0000,  0.0000,  0.0000)
  38 C      8.060532    0.750657   22.326236    ( 0.0000,  0.0000,  0.0000)
  39 C      8.126249    0.439335   19.810182    ( 0.0000,  0.0000,  0.0000)
  40 C      8.032388    1.727137   23.501190    ( 0.0000,  0.0000,  0.0000)
  41 H      7.102465    2.014926   20.850535    ( 0.0000,  0.0000,  0.0000)
  42 H      8.853002    2.159112   20.888764    ( 0.0000,  0.0000,  0.0000)
  43 H      8.960729    0.129303   22.395677    ( 0.0000,  0.0000,  0.0000)
  44 H      7.208558    0.065584   22.400086    ( 0.0000,  0.0000,  0.0000)
  45 H      9.066286   -0.125395   19.879588    ( 0.0000,  0.0000,  0.0000)
  46 H      7.305673   -0.282224   19.871275    ( 0.0000,  0.0000,  0.0000)
  47 H      8.911792    2.375438   23.491628    ( 0.0000,  0.0000,  0.0000)
  48 H      7.147636    2.367291   23.462258    ( 0.0000,  0.0000,  0.0000)
  49 H      8.019173    1.196850   24.452850    ( 0.0000,  0.0000,  0.0000)
  50 H      8.730255    1.664019   18.390420    ( 0.0000,  0.0000,  0.0000)
  51 N      7.587609    1.142825   15.434081    ( 0.0000,  0.0000,  0.0000)
  52 N      8.488726    2.020077   15.478068    ( 0.0000,  0.0000,  0.0000)

Unit cell:
           periodic     x           y           z      points  spacing
  1. axis:    yes    9.702222    0.000000    0.000000    60     0.1617
  2. axis:    yes    0.000000    9.702222    0.000000    60     0.1617
  3. axis:    no     0.000000    0.000000   26.601111   168     0.1583

  Lengths:   9.702222   9.702222  26.601111
  Angles:   90.000000  90.000000  90.000000

Effective grid spacing dv^(1/3) = 0.1606

     iter     time        total  log10-change:
                         energy  eigst   dens
iter:   1 20:47:12  -360.737104  -1.90
iter:   2 20:47:19  -360.735769  -2.72  -2.43
iter:   3 20:47:27  -360.735477c -3.36  -2.58
iter:   4 20:47:34  -360.735406c -3.87  -2.71
Writing to output.gpw (mode='')

iter:   5 20:47:42  -360.734972c -3.21  -2.75
iter:   6 20:47:50  -360.734996c -3.67  -3.07
iter:   7 20:47:57  -360.735166c -3.21  -3.06
iter:   8 20:48:05  -360.735153c -3.49  -2.98
iter:   9 20:48:13  -360.735076c -4.26  -3.04
Writing to output.gpw (mode='')

iter:  10 20:48:20  -360.735036c -4.40  -3.07
iter:  11 20:48:28  -360.734721c -3.99  -3.11
iter:  12 20:48:36  -360.734722c -4.45  -3.40
iter:  13 20:48:43  -360.734745c -4.28  -3.46
iter:  14 20:48:51  -360.734731c -4.70  -3.61
Writing to output.gpw (mode='')

iter:  15 20:48:59  -360.734761c -5.16  -3.78
iter:  16 20:49:06  -360.734753c -5.62  -3.94
iter:  17 20:49:14  -360.734739c -5.42  -3.99
iter:  18 20:49:21  -360.734741c -5.57  -3.99
iter:  19 20:49:29  -360.734742c -6.05  -4.03c
Writing to output.gpw (mode='')

iter:  20 20:49:37  -360.734760c -6.05  -4.08c
iter:  21 20:49:50  -360.734757c -6.87  -4.32c
iter:  22 20:49:57  -360.734747c -6.26  -4.36c
iter:  23 20:50:05  -360.734750c -6.75  -4.39c
iter:  24 20:50:12  -360.734754c -6.95  -4.55c
Writing to output.gpw (mode='')

iter:  25 20:50:20  -360.734753c -6.95  -4.86c
iter:  26 20:50:28  -360.734754c -7.45c -4.99c

Converged after 26 iterations.

Dipole moment: (1.628761, -10.750319, 0.278901) |e|*Ang

Energy contributions relative to reference atoms: (reference = -16540.070923)

Kinetic:       +182.231893
Potential:     -177.218004
External:        +0.000000
XC:            -366.523715
Entropy (-ST):   -0.164123
Local:           +0.857133
--------------------------
Free energy:   -360.816816
Extrapolated:  -360.734754

Dipole-layer corrected work functions: 3.396325, 2.860182 eV

Showing only first 2 kpts
 Kpt  Band  Eigenvalues  Occupancy
  0    37     -3.36159    1.98137
  0    38     -3.15455    1.25703
  0    39     -3.09241    0.65621
  0    40     -2.93092    0.03791

  1    37     -3.35164    1.97731
  1    38     -3.29340    1.92905
  1    39     -3.07446    0.50857
  1    40     -2.88207    0.01444


Fermi level: -3.12825

No gap
Writing to output.gpw (mode='')


Forces in eV/Ang:
  0 Li   -0.01097    0.01206   -0.28965
  1 Li    0.01378   -0.00969   -0.28883
  2 Li   -0.00011    0.00121   -0.24263
  3 Li    0.00825    0.00931   -0.29101
  4 Li   -0.01280    0.01789   -0.28483
  5 Li    0.01152   -0.01015   -0.28833
  6 Li    0.01696   -0.01209   -0.28507
  7 Li   -0.00700   -0.00803   -0.29386
  8 Li   -0.01050    0.01508   -0.28997
  9 Li   -0.01047   -0.00159    0.24845
 10 Li   -0.01570    0.01251    0.30593
 11 Li   -0.00178   -0.00593    0.31124
 12 Li   -0.00975   -0.02089    0.29987
 13 Li    0.00257   -0.01348    0.29019
 14 Li    0.00424   -0.01514    0.23710
 15 Li   -0.01556   -0.00367    0.29405
 16 Li   -0.01838   -0.02178    0.28516
 17 Li    0.01681   -0.02648    0.30002
 18 Li   -0.00264   -0.01522    0.00314
 19 Li    0.01373   -0.01338   -0.00280
 20 Li    0.02216    0.02491   -0.02059
 21 Li    0.02713    0.01514   -0.01908
 22 Li   -0.01042   -0.00332    0.00226
 23 Li   -0.00849    0.01607   -0.00536
 24 Li   -0.01231    0.00239    0.00197
 25 Li   -0.00292    0.00416   -0.00790
 26 Li   -0.00293    0.00853   -0.01422
 27 Li    0.00516   -0.00027    0.02318
 28 Li   -0.01344    0.00712    0.00206
 29 Li   -0.00896    0.00701    0.02047
 30 Li    0.00400    0.01677   -0.02071
 31 Li    0.00253    0.00188   -0.01632
 32 Li   -0.00538    0.00743   -0.00680
 33 Li    0.00058    0.01697   -0.01052
 34 Li    0.00150    0.00184   -0.01324
 35 Li    0.00120    0.01277    0.00349
 36 O     0.01350   -0.00423   -0.01152
 37 C    -0.00299    0.01241    0.00224
 38 C    -0.00191   -0.01241    0.00062
 39 C     0.00499    0.00503    0.01193
 40 C    -0.00401    0.01240   -0.02046
 41 H    -0.01347   -0.01283   -0.00988
 42 H     0.02361   -0.02039   -0.01173
 43 H     0.00708   -0.00646    0.01045
 44 H    -0.00886   -0.00460    0.00430
 45 H     0.00990   -0.00522    0.01062
 46 H     0.00778    0.01952   -0.03714
 47 H     0.00689    0.02196   -0.00028
 48 H    -0.01444    0.00998   -0.00649
 49 H     0.00166    0.00227   -0.01137
 50 H    -0.01779   -0.00248   -0.00799
 51 N     0.02224   -0.00922    0.02450
 52 N    -0.01447    0.01880    0.00373

Timing:                                      incl.     excl.
-------------------------------------------------------------------
Density initialized from wave functions:     6.056     6.051   0.0% |
 Symmetrize density:                         0.004     0.004   0.0% |
Forces:                                     61.598    61.598   0.2% |
Hamiltonian:                               805.985     0.017   0.0% |
 Atomic:                                     0.030     0.030   0.0% |
  XC Correction:                             0.000     0.000   0.0% |
 Calculate atomic Hamiltonians:              0.048     0.048   0.0% |
 Communicate:                                8.625     8.625   0.0% |
 Hartree integrate/restrict:                 2.965     2.965   0.0% |
 Initialize Hamiltonian:                     0.000     0.000   0.0% |
 Poisson:                                   38.244    14.163   0.0% |
  Communicate from 1D:                       3.784     3.784   0.0% |
  Communicate from 2D:                       3.784     3.784   0.0% |
  Communicate to 1D:                         2.028     2.028   0.0% |
  Communicate to 2D:                         4.629     4.629   0.0% |
  FFT 1D:                                    4.981     4.981   0.0% |
  FFT 2D:                                    4.875     4.875   0.0% |
 XC 3D grid:                               755.307   117.579   0.3% |
  VdW-DF integral:                         637.728     5.207   0.0% |
   Convolution:                             56.985    56.985   0.1% |
   FFT:                                     24.786    24.786   0.1% |
   gather:                                 221.155   221.155   0.6% |
   hmm1:                                    20.726    20.726   0.1% |
   hmm2:                                    27.307    27.307   0.1% |
   iFFT:                                    25.610    25.610   0.1% |
   potential:                              252.328     6.558   0.0% |
    collect:                                40.956    40.956   0.1% |
    p1:                                    112.230   112.230   0.3% |
    p2:                                     42.109    42.109   0.1% |
    sum:                                    50.476    50.476   0.1% |
   splines:                                  3.624     3.624   0.0% |
 vbar:                                       0.750     0.750   0.0% |
LCAO initialization:                         1.173     0.184   0.0% |
 LCAO eigensolver:                           0.185     0.000   0.0% |
  Calculate projections:                     0.000     0.000   0.0% |
  DenseAtomicCorrection:                     0.000     0.000   0.0% |
  Distribute overlap matrix:                 0.160     0.160   0.0% |
  Orbital Layouts:                           0.023     0.023   0.0% |
  Potential matrix:                          0.001     0.001   0.0% |
  Sum over cells:                            0.001     0.001   0.0% |
 LCAO to grid:                               0.714     0.714   0.0% |
 Set positions (LCAO WFS):                   0.090     0.047   0.0% |
  Basic WFS set positions:                   0.001     0.001   0.0% |
  Basis functions set positions:             0.000     0.000   0.0% |
  P tci:                                     0.000     0.000   0.0% |
  ST tci:                                    0.012     0.012   0.0% |
  mktci:                                     0.030     0.030   0.0% |
Redistribute:                                0.085     0.085   0.0% |
SCF-cycle:                               37781.922   475.292   1.2% |
 Davidson:                               10909.790  3261.310   8.4% |--|
  Apply hamiltonian:                       693.668   693.668   1.8% ||
  Subspace diag:                          2038.607     0.572   0.0% |
   calc_h_matrix:                         1081.064   379.427   1.0% |
    Apply hamiltonian:                     701.638   701.638   1.8% ||
   diagonalize:                             56.577    56.577   0.1% |
   rotate_psi:                             900.393   900.393   2.3% ||
  calc. matrices:                         3484.374  1864.413   4.8% |-|
   Apply hamiltonian:                     1619.961  1619.961   4.2% |-|
  diagonalize:                              34.881    34.881   0.1% |
  rotate_psi:                             1396.949  1396.949   3.6% ||
 Density:                                  189.478     0.128   0.0% |
  Atomic density matrices:                  20.651    20.651   0.1% |
  Mix:                                      80.324    80.324   0.2% |
  Multipole moments:                         9.338     9.338   0.0% |
  Pseudo density:                           79.036    78.916   0.2% |
   Symmetrize density:                       0.120     0.120   0.0% |
 Hamiltonian:                            26179.930     0.578   0.0% |
  Atomic:                                    1.203     1.190   0.0% |
   XC Correction:                            0.012     0.012   0.0% |
  Calculate atomic Hamiltonians:             1.637     1.637   0.0% |
  Communicate:                             357.745   357.745   0.9% |
  Hartree integrate/restrict:               99.168    99.168   0.3% |
  Poisson:                                1264.859   472.989   1.2% |
   Communicate from 1D:                    123.218   123.218   0.3% |
   Communicate from 2D:                    128.506   128.506   0.3% |
   Communicate to 1D:                       68.829    68.829   0.2% |
   Communicate to 2D:                      154.371   154.371   0.4% |
   FFT 1D:                                 160.754   160.754   0.4% |
   FFT 2D:                                 156.192   156.192   0.4% |
  XC 3D grid:                            24431.428  3869.004  10.0% |---|
   VdW-DF integral:                      20562.424   170.630   0.4% |
    Convolution:                          1865.705  1865.705   4.8% |-|
    FFT:                                   807.202   807.202   2.1% ||
    gather:                               7162.601  7162.601  18.4% |------|
    hmm1:                                  672.925   672.925   1.7% ||
    hmm2:                                  890.948   890.948   2.3% ||
    iFFT:                                  839.345   839.345   2.2% ||
    potential:                            8153.025   215.887   0.6% |
     collect:                             1301.929  1301.929   3.4% ||
     p1:                                  3677.264  3677.264   9.5% |---|
     p2:                                  1379.932  1379.932   3.6% ||
     sum:                                 1578.012  1578.012   4.1% |-|
    splines:                                 0.043     0.043   0.0% |
  vbar:                                     23.313    23.313   0.1% |
 Orthonormalize:                            27.433     0.020   0.0% |
  calc_s_matrix:                             4.475     4.475   0.0% |
  inverse-cholesky:                          6.547     6.547   0.0% |
  projections:                               0.003     0.003   0.0% |
  rotate_psi_s:                             16.388    16.388   0.0% |
Set symmetry:                                0.015     0.015   0.0% |
Other:                                     167.588   167.588   0.4% |
-------------------------------------------------------------------
Total:                                             38824.421 100.0%

Memory usage: 1.16 GiB
Date: Fri Mar 10 20:50:29 2023
