
  ___ ___ ___ _ _ _  
 |   |   |_  | | | | 
 | | | | | . | | | | 
 |__ |  _|___|_____|  22.8.0
 |___|_|             

User:   vazumah@r074.ib.bridges2.psc.edu
Date:   Wed Mar  8 21:47:59 2023
Arch:   x86_64
Pid:    104679
CWD:    /jet/home/vazumah/Calcs/N2_with_proton_donor/CH3CH2OH_y/bridge/0.0_1.617/N2_x
Python: 3.11.0
gpaw:   /jet/home/vazumah/.conda/envs/GPAW_mpich/lib/python3.11/site-packages/gpaw
_gpaw:  /jet/home/vazumah/.conda/envs/GPAW_mpich/lib/python3.11/site-packages/
        _gpaw.cpython-311-x86_64-linux-gnu.so
ase:    /jet/home/vazumah/.conda/envs/GPAW_mpich/lib/python3.11/site-packages/ase (version 3.22.1)
numpy:  /jet/home/vazumah/.conda/envs/GPAW_mpich/lib/python3.11/site-packages/numpy (version 1.24.2)
scipy:  /jet/home/vazumah/.conda/envs/GPAW_mpich/lib/python3.11/site-packages/scipy (version 1.10.1)
libxc:  5.2.3
units:  Angstrom and eV
cores: 128
OpenMP: True
OMP_NUM_THREADS: 1

Input parameters:
  h: 0.16
  kpts: {size: [4, 4, 1]}
  occupations: {name: fermi-dirac,
                width: 0.05}
  poissonsolver: {dipolelayer: xy}
  xc: BEEF-vdW

System changes: positions, numbers, cell, pbc, initial_charges, initial_magmoms 

Initialize ...

species:
  Li:
    name: Lithium
    id: 830b4218f175192f93f959cfc0aad614
    Z: 3.0
    valence: 1
    core: 2
    charge: 0.0
    file: /jet/home/vazumah/datasets/gpaw-setups-0.9.20000/Li.PBE.gz
    compensation charges: {type: gauss,
                           rc: 0.33,
                           lmax: 2}
    cutoffs: {filter: 1.91,
              core: 2.55}
    valence states:
      #              energy  rcut
      - 2s(1.00)    -2.874   1.058
      - 2p(0.00)    -1.090   1.058
      -  s          24.337   1.058
  
    # Using partial waves for Li as LCAO basis

  O:
    name: Oxygen
    id: 32ecd46bf208036f09c70b0ec9a88b78
    Z: 8.0
    valence: 6
    core: 2
    charge: 0.0
    file: /jet/home/vazumah/datasets/gpaw-setups-0.9.20000/O.PBE.gz
    compensation charges: {type: gauss,
                           rc: 0.21,
                           lmax: 2}
    cutoffs: {filter: 1.17,
              core: 0.83}
    valence states:
      #              energy  rcut
      - 2s(2.00)   -23.961   0.688
      - 2p(4.00)    -9.029   0.598
      -  s           3.251   0.688
      -  p          18.182   0.598
      -  d           0.000   0.619
  
    # Using partial waves for O as LCAO basis

  C:
    name: Carbon
    id: 4aa54d4b901d75f77cc0ea3eec22967b
    Z: 6.0
    valence: 4
    core: 2
    charge: 0.0
    file: /jet/home/vazumah/datasets/gpaw-setups-0.9.20000/C.PBE.gz
    compensation charges: {type: gauss,
                           rc: 0.20,
                           lmax: 2}
    cutoffs: {filter: 1.14,
              core: 1.14}
    valence states:
      #              energy  rcut
      - 2s(2.00)   -13.751   0.635
      - 2p(2.00)    -5.284   0.635
      -  s          13.461   0.635
      -  p          21.927   0.635
      -  d           0.000   0.635
  
    # Using partial waves for C as LCAO basis

  H:
    name: Hydrogen
    id: d65de229564ff8ea4db303e23b6d1ecf
    Z: 1.0
    valence: 1
    core: 0
    charge: 0.0
    file: /jet/home/vazumah/datasets/gpaw-setups-0.9.20000/H.PBE.gz
    compensation charges: {type: gauss,
                           rc: 0.15,
                           lmax: 2}
    cutoffs: {filter: 0.85,
              core: 0.53}
    valence states:
      #              energy  rcut
      - 1s(1.00)    -6.494   0.476
      -  s          20.717   0.476
      -  p           0.000   0.476
  
    # Using partial waves for H as LCAO basis

  N:
    name: Nitrogen
    id: f7500608b86eaa90eef8b1d9a670dc53
    Z: 7.0
    valence: 5
    core: 2
    charge: 0.0
    file: /jet/home/vazumah/datasets/gpaw-setups-0.9.20000/N.PBE.gz
    compensation charges: {type: gauss,
                           rc: 0.18,
                           lmax: 2}
    cutoffs: {filter: 1.11,
              core: 0.96}
    valence states:
      #              energy  rcut
      - 2s(2.00)   -18.583   0.603
      - 2p(3.00)    -7.089   0.529
      -  s           8.629   0.603
      -  p          20.123   0.529
      -  d           0.000   0.577
  
    # Using partial waves for N as LCAO basis

Reference energy: -14434.854043  # eV

Spin-paired calculation

Convergence criteria:
 Maximum [total energy] change in last 3 cyles: 0.0005 eV / electron
 Maximum integral of absolute [dens]ity change: 0.0001 electrons / valence electron
 Maximum integral of absolute [eigenst]ate change: 4e-08 eV^2 / valence electron
 Maximum number of scf [iter]ations: 333
 (Square brackets indicate name in SCF output, whereas a 'c' in
 the SCF output indicates the quantity has converged.)

Symmetries present (total): 1

  ( 1  0  0)
  ( 0  1  0)
  ( 0  0  1)

16 k-points: 4 x 4 x 1 Monkhorst-Pack grid
8 k-points in the irreducible part of the Brillouin zone
       k-points in crystal coordinates                weights
   0:     0.12500000   -0.37500000    0.00000000          2/16
   1:     0.12500000   -0.12500000    0.00000000          2/16
   2:     0.12500000    0.12500000    0.00000000          2/16
   3:     0.12500000    0.37500000    0.00000000          2/16
   4:     0.37500000   -0.37500000    0.00000000          2/16
   5:     0.37500000   -0.12500000    0.00000000          2/16
   6:     0.37500000    0.12500000    0.00000000          2/16
   7:     0.37500000    0.37500000    0.00000000          2/16

Wave functions: Uniform real-space grid
  Kinetic energy operator: 6*3+1=19 point O(h^6) finite-difference Laplacian
  ScaLapack parameters: grid=1x1, blocksize=None
  Wavefunction extrapolation:
    Improved wavefunction reuse through dual PAW basis 

Occupation numbers: Fermi-Dirac:
  width: 0.0500  # eV
 

Eigensolver
   Davidson(niter=2) 

Densities:
  Coarse grid: 60*60*164 grid
  Fine grid: 120*120*328 grid
  Total Charge: 0.000000 

Density mixing:
  Method: separate
  Backend: pulay
  Linear mixing parameter: 0.05
  old densities: 5
  Damping of long wavelength oscillations: 50 

Hamiltonian:
  XC and Coulomb potentials evaluated on a 120*120*328 grid
  Using the BEEF-vdW Exchange-Correlation functional
  Interpolation: tri-quintic (5. degree polynomial)
  Poisson solver: FastPoissonSolver using
    Stencil: 6*3+1=19 point O(h^6) finite-difference Laplacian
    FFT axes: [0, 1]
    FST axes: [2]

Dipole correction along z-axis 

XC parameters: BEEF-vdW with 2 nearest neighbor stencil

Memory estimate:
  Process memory now: 126.14 MiB
  Calculator: 80.22 MiB
    Density: 22.47 MiB
      Arrays: 7.22 MiB
      Localized functions: 12.50 MiB
      Mixer: 2.75 MiB
    Hamiltonian: 5.71 MiB
      Arrays: 4.72 MiB
      XC: 0.00 MiB
      Poisson: 0.00 MiB
      vbar: 0.99 MiB
    Wavefunctions: 52.04 MiB
      Arrays psit_nG: 24.17 MiB
      Eigensolver: 27.21 MiB
      Projections: 0.01 MiB
      Projectors: 0.65 MiB

Total number of cores used: 128
Parallelization over k-points: 8
Domain decomposition: 2 x 2 x 4

Number of atoms: 47
Number of atomic orbitals: 170
Number of bands in calculation: 44
Number of valence electrons: 66
Bands to converge: occupied

... initialized

Initializing position-dependent things.

Density initialized from atomic densities
Creating initial wave functions:
  44 bands from LCAO basis set

       .-----------------------.  
      /|                       |  
     / |                       |  
    /  |                       |  
   /   |                       |  
  /    |                       |  
 *     |                       |  
 |     |                       |  
 |     |                       |  
 |     |                       |  
 |     |                       |  
 |     |                       |  
 |     |                  H    |  
 |    H|                    C  |  
 |   C |                 HH    |  
 |O  LH|     Li      Li        |  
 |N    |               N       |  
 | Li  |  LLi     LLi     Li   |  
 |     |                       |  
 Li    |LLi     LLi     Li     |  
 |   Li|     Li      Li        |  
 |    Li  Li  Li  Li  Li  Li   |  
 | Li  |   Li      Li          |  
 |     |Li      Li      Li     |  
 Li    | Li      Li            |  
 |    Li      Li      Li       |  
 |     |                       |  
 |     |                       |  
 |     |                       |  
 |     |                       |  
 |     |                       |  
 |     |                       |  
 |     .-----------------------.  
 |    /                       /   
 |   /                       /    
 |  /                       /     
 | /                       /      
 |/                       /       
 *-----------------------*        

Positions:
   0 Li     1.617037    1.617037   10.000000    ( 0.0000,  0.0000,  0.0000)
   1 Li     4.851111    1.617037   10.000000    ( 0.0000,  0.0000,  0.0000)
   2 Li     8.085185    1.617037   10.000000    ( 0.0000,  0.0000,  0.0000)
   3 Li     1.617037    4.851111   10.000000    ( 0.0000,  0.0000,  0.0000)
   4 Li     4.851111    4.851111   10.000000    ( 0.0000,  0.0000,  0.0000)
   5 Li     8.085185    4.851111   10.000000    ( 0.0000,  0.0000,  0.0000)
   6 Li     1.617037    8.085185   10.000000    ( 0.0000,  0.0000,  0.0000)
   7 Li     4.851111    8.085185   10.000000    ( 0.0000,  0.0000,  0.0000)
   8 Li     8.085185    8.085185   10.000000    ( 0.0000,  0.0000,  0.0000)
   9 Li     0.000000    0.000000   11.617037    ( 0.0000,  0.0000,  0.0000)
  10 Li     3.234074    0.000000   11.617037    ( 0.0000,  0.0000,  0.0000)
  11 Li     6.468148    0.000000   11.617037    ( 0.0000,  0.0000,  0.0000)
  12 Li     0.000000    3.234074   11.617037    ( 0.0000,  0.0000,  0.0000)
  13 Li     3.234074    3.234074   11.617037    ( 0.0000,  0.0000,  0.0000)
  14 Li     6.468148    3.234074   11.617037    ( 0.0000,  0.0000,  0.0000)
  15 Li     0.000000    6.468148   11.617037    ( 0.0000,  0.0000,  0.0000)
  16 Li     3.234074    6.468148   11.617037    ( 0.0000,  0.0000,  0.0000)
  17 Li     6.468148    6.468148   11.617037    ( 0.0000,  0.0000,  0.0000)
  18 Li     1.617038    1.617038   13.469728    ( 0.0000,  0.0000,  0.0000)
  19 Li     4.851111    1.617038   13.469729    ( 0.0000,  0.0000,  0.0000)
  20 Li     8.085184    1.617038   13.469728    ( 0.0000,  0.0000,  0.0000)
  21 Li     1.617038    4.851111   13.469729    ( 0.0000,  0.0000,  0.0000)
  22 Li     4.851111    4.851111   13.469730    ( 0.0000,  0.0000,  0.0000)
  23 Li     8.085184    4.851111   13.469729    ( 0.0000,  0.0000,  0.0000)
  24 Li     1.617038    8.085184   13.469728    ( 0.0000,  0.0000,  0.0000)
  25 Li     4.851111    8.085184   13.469729    ( 0.0000,  0.0000,  0.0000)
  26 Li     8.085184    8.085184   13.469728    ( 0.0000,  0.0000,  0.0000)
  27 Li    -0.000000   -0.000000   15.445939    ( 0.0000,  0.0000,  0.0000)
  28 Li     3.234074    0.000000   15.445939    ( 0.0000,  0.0000,  0.0000)
  29 Li     6.468148    0.000000   15.445939    ( 0.0000,  0.0000,  0.0000)
  30 Li     0.000000    3.234074   15.445939    ( 0.0000,  0.0000,  0.0000)
  31 Li     3.234076    3.234076   15.445938    ( 0.0000,  0.0000,  0.0000)
  32 Li     6.468146    3.234076   15.445938    ( 0.0000,  0.0000,  0.0000)
  33 Li     0.000000    6.468148   15.445939    ( 0.0000,  0.0000,  0.0000)
  34 Li     3.234076    6.468146   15.445938    ( 0.0000,  0.0000,  0.0000)
  35 Li     6.468146    6.468146   15.445938    ( 0.0000,  0.0000,  0.0000)
  36 O      0.000000    1.617037   18.445939    ( 0.0000,  0.0000,  0.0000)
  37 C      0.816757    2.799444   18.450238    ( 0.0000,  0.0000,  0.0000)
  38 C     -0.002861    4.083659   18.435704    ( 0.0000,  0.0000,  0.0000)
  39 H      1.500293    2.790821   19.310398    ( 0.0000,  0.0000,  0.0000)
  40 H      1.426483    2.724056   17.547442    ( 0.0000,  0.0000,  0.0000)
  41 H      0.651085    4.960586   18.420269    ( 0.0000,  0.0000,  0.0000)
  42 H     -0.651884    4.118370   17.558886    ( 0.0000,  0.0000,  0.0000)
  43 H     -0.631349    4.153847   19.328265    ( 0.0000,  0.0000,  0.0000)
  44 H     -0.582977    1.656204   19.214164    ( 0.0000,  0.0000,  0.0000)
  45 N      0.000000    1.617000   16.945939    ( 0.0000,  0.0000,  0.0000)
  46 N     -1.096622    1.617000   16.945939    ( 0.0000,  0.0000,  0.0000)

Unit cell:
           periodic     x           y           z      points  spacing
  1. axis:    yes    9.702222    0.000000    0.000000    60     0.1617
  2. axis:    yes    0.000000    9.702222    0.000000    60     0.1617
  3. axis:    no     0.000000    0.000000   26.351111   164     0.1607

  Lengths:   9.702222   9.702222  26.351111
  Angles:   90.000000  90.000000  90.000000

Effective grid spacing dv^(1/3) = 0.1614

     iter     time        total  log10-change:
                         energy  eigst   dens
iter:   1 21:48:15  -517.179105
iter:   2 21:48:25  -130.065237  +2.54  -0.02
iter:   3 21:48:32  -132.065731  +3.14  -0.23
iter:   4 21:48:39  -241.877450  +3.05  -0.34
Writing to output.gpw (mode='')

iter:   5 21:48:47  -271.498111  +2.69  -0.38
iter:   6 21:48:54  -300.642496  +2.35  -0.64
iter:   7 21:49:01  -307.859677  +1.89  -0.68
iter:   8 21:49:08  -311.406320  +1.49  -0.69
iter:   9 21:49:15  -313.959508  +1.37  -0.72
Writing to output.gpw (mode='')

iter:  10 21:49:22  -319.265886  +1.09  -0.69
iter:  11 21:49:29  -308.414669  +0.78  -0.69
iter:  12 21:49:36  -304.228793  +0.91  -0.78
iter:  13 21:49:43  -303.410847  +0.94  -0.89
iter:  14 21:49:50  -303.146312  +0.48  -0.94
Writing to output.gpw (mode='')

iter:  15 21:49:57  -301.867084  +0.50  -0.99
iter:  16 21:50:05  -301.805950  -0.14  -1.30
iter:  17 21:50:12  -301.645661  -0.05  -1.34
iter:  18 21:50:19  -301.907731  +0.21  -1.41
iter:  19 21:50:26  -301.783994  -0.45  -1.32
Writing to output.gpw (mode='')

iter:  20 21:50:33  -301.723358  -0.35  -1.43
iter:  21 21:50:40  -301.707241  -0.73  -1.62
iter:  22 21:50:47  -301.712715c -0.83  -1.73
iter:  23 21:50:54  -301.720388c -0.89  -1.80
iter:  24 21:51:01  -301.723235c -1.06  -1.89
Writing to output.gpw (mode='')

iter:  25 21:51:08  -301.734841c -1.19  -2.04
iter:  26 21:51:15  -301.734042c -1.53  -2.12
iter:  27 21:51:23  -301.739068c -1.26  -2.26
iter:  28 21:51:30  -301.741546c -1.73  -2.34
iter:  29 21:51:37  -301.743497c -1.79  -2.49
Writing to output.gpw (mode='')

iter:  30 21:51:44  -301.745274c -1.90  -2.50
iter:  31 21:51:51  -301.747408c -1.84  -2.56
iter:  32 21:51:58  -301.749105c -2.02  -2.58
iter:  33 21:52:05  -301.750479c -2.14  -2.63
iter:  34 21:52:12  -301.751102c -2.24  -2.78
Writing to output.gpw (mode='')

iter:  35 21:52:19  -301.751786c -2.34  -2.93
iter:  36 21:52:26  -301.752352c -2.46  -2.93
iter:  37 21:52:33  -301.753009c -2.41  -2.98
iter:  38 21:52:40  -301.753526c -2.33  -3.06
iter:  39 21:52:48  -301.753997c -2.55  -3.13
Writing to output.gpw (mode='')

iter:  40 21:52:55  -301.754405c -2.63  -3.22
iter:  41 21:53:02  -301.754628c -3.05  -3.37
iter:  42 21:53:09  -301.754804c -3.19  -3.36
iter:  43 21:53:22  -301.755035c -2.85  -3.34
iter:  44 21:53:31  -301.755179c -3.30  -3.18
Writing to output.gpw (mode='')

iter:  45 21:53:38  -301.755307c -3.22  -3.20
iter:  46 21:53:45  -301.755441c -3.04  -3.24
iter:  47 21:53:52  -301.755642c -3.05  -3.23
iter:  48 21:53:59  -301.755804c -3.47  -3.29
iter:  49 21:54:06  -301.755756c -3.48  -3.35
Writing to output.gpw (mode='')

iter:  50 21:54:13  -301.755883c -3.68  -3.33
iter:  51 21:54:20  -301.755920c -3.58  -3.43
iter:  52 21:54:27  -301.755962c -3.67  -3.47
iter:  53 21:54:34  -301.755995c -4.06  -3.74
iter:  54 21:54:42  -301.756011c -3.87  -3.79
Writing to output.gpw (mode='')

iter:  55 21:54:49  -301.756036c -3.78  -3.86
iter:  56 21:54:56  -301.756057c -3.97  -3.92
iter:  57 21:55:03  -301.756086c -3.95  -4.10c
iter:  58 21:55:10  -301.756094c -4.08  -4.22c
iter:  59 21:55:17  -301.756101c -4.08  -4.27c
Writing to output.gpw (mode='')

iter:  60 21:55:24  -301.756111c -4.08  -4.31c
iter:  61 21:55:31  -301.756120c -4.27  -4.37c
iter:  62 21:55:38  -301.756127c -4.18  -4.41c
iter:  63 21:55:45  -301.756130c -4.56  -4.39c
iter:  64 21:55:52  -301.756133c -4.65  -4.41c
Writing to output.gpw (mode='')

iter:  65 21:56:00  -301.756137c -4.47  -4.38c
iter:  66 21:56:07  -301.756139c -4.49  -4.38c
iter:  67 21:56:14  -301.756141c -4.78  -4.33c
iter:  68 21:56:21  -301.756146c -4.67  -4.33c
iter:  69 21:56:28  -301.756145c -4.68  -4.38c
Writing to output.gpw (mode='')

iter:  70 21:56:35  -301.756148c -4.89  -4.36c
iter:  71 21:56:42  -301.756154c -4.97  -4.33c
iter:  72 21:56:49  -301.756149c -4.91  -4.34c
iter:  73 21:56:56  -301.756153c -4.94  -4.29c
iter:  74 21:57:03  -301.756156c -5.11  -4.27c
Writing to output.gpw (mode='')

iter:  75 21:57:10  -301.756151c -5.03  -4.35c
iter:  76 21:57:17  -301.756157c -5.40  -4.21c
iter:  77 21:57:25  -301.756163c -5.12  -4.33c
iter:  78 21:57:32  -301.756165c -5.10  -4.41c
iter:  79 21:57:39  -301.756169c -5.20  -4.43c
Writing to output.gpw (mode='')

iter:  80 21:57:46  -301.756168c -5.43  -4.54c
iter:  81 21:57:53  -301.756172c -5.50  -4.71c
iter:  82 21:58:00  -301.756170c -5.62  -4.83c
iter:  83 21:58:07  -301.756171c -5.60  -4.93c
iter:  84 21:58:20  -301.756171c -5.48  -5.01c
Writing to output.gpw (mode='')

iter:  85 21:58:28  -301.756172c -5.56  -5.21c
iter:  86 21:58:35  -301.756172c -5.72  -5.26c
iter:  87 21:58:42  -301.756172c -5.77  -5.28c
iter:  88 21:58:49  -301.756172c -5.81  -5.30c
iter:  89 21:58:56  -301.756172c -5.83  -5.35c
Writing to output.gpw (mode='')

iter:  90 21:59:04  -301.756172c -6.05  -5.45c
iter:  91 21:59:11  -301.756172c -6.19  -5.62c
iter:  92 21:59:18  -301.756172c -5.90  -5.66c
iter:  93 21:59:25  -301.756173c -5.90  -5.68c
iter:  94 21:59:32  -301.756172c -6.28  -5.66c
Writing to output.gpw (mode='')

iter:  95 21:59:39  -301.756172c -6.25  -5.62c
iter:  96 21:59:46  -301.756172c -6.07  -5.61c
iter:  97 21:59:55  -301.756172c -6.43  -5.57c
iter:  98 22:00:10  -301.756172c -6.46  -5.52c
iter:  99 22:00:29  -301.756173c -6.54  -5.54c
Writing to output.gpw (mode='')

iter: 100 22:00:38  -301.756173c -6.44  -5.67c
iter: 101 22:00:45  -301.756173c -6.48  -5.77c
iter: 102 22:00:52  -301.756173c -6.65  -5.90c
iter: 103 22:01:00  -301.756173c -6.71  -5.99c
iter: 104 22:01:07  -301.756173c -6.66  -6.10c
Writing to output.gpw (mode='')

iter: 105 22:01:14  -301.756173c -6.90  -6.17c
iter: 106 22:01:21  -301.756173c -6.93  -6.17c
iter: 107 22:01:28  -301.756173c -6.94  -6.12c
iter: 108 22:01:35  -301.756173c -7.07  -5.93c
iter: 109 22:01:42  -301.756173c -7.00  -5.90c
Writing to output.gpw (mode='')

iter: 110 22:01:49  -301.756173c -6.93  -6.03c
iter: 111 22:01:56  -301.756173c -7.14  -5.98c
iter: 112 22:02:03  -301.756173c -7.20  -6.06c
iter: 113 22:02:10  -301.756173c -7.17  -6.04c
iter: 114 22:02:17  -301.756173c -7.24  -6.10c
Writing to output.gpw (mode='')

iter: 115 22:02:25  -301.756173c -7.26  -5.85c
iter: 116 22:02:32  -301.756173c -7.30  -6.09c
iter: 117 22:02:39  -301.756173c -7.32  -5.91c
iter: 118 22:02:46  -301.756173c -7.44c -6.24c

Converged after 118 iterations.

Dipole moment: (-12.467106, -3.506701, 0.458526) |e|*Ang

Energy contributions relative to reference atoms: (reference = -14434.854043)

Kinetic:       +185.547643
Potential:     -167.543931
External:        +0.000000
XC:            -320.410270
Entropy (-ST):   -0.155827
Local:           +0.728298
--------------------------
Free energy:   -301.834086
Extrapolated:  -301.756173

Dipole-layer corrected work functions: 3.385166, 2.503722 eV

Showing only first 2 kpts
 Kpt  Band  Eigenvalues  Occupancy
  0    31     -3.19038    1.98549
  0    32     -3.04528    1.76509
  0    33     -2.81320    0.13512
  0    34     -2.71142    0.01875

  1    31     -3.00631    1.55020
  1    32     -2.96110    1.16500
  1    33     -2.91132    0.68040
  1    34     -2.81868    0.14958


Fermi level: -2.94444

No gap
Writing to output.gpw (mode='')


Forces in eV/Ang:
  0 Li    0.02532   -0.00015   -0.27893
  1 Li   -0.01933    0.00166   -0.27127
  2 Li   -0.00917   -0.00134   -0.27778
  3 Li   -0.00186    0.01056   -0.27625
  4 Li   -0.00089   -0.00452   -0.27562
  5 Li    0.00453    0.02585   -0.27430
  6 Li   -0.00438   -0.00954   -0.27573
  7 Li   -0.00031    0.00200   -0.27846
  8 Li    0.00691   -0.02379   -0.27142
  9 Li   -0.00403    0.00947    0.31728
 10 Li    0.01133    0.00223    0.24840
 11 Li   -0.00288    0.00600    0.28785
 12 Li   -0.00180   -0.01115    0.32334
 13 Li    0.01485   -0.00260    0.24177
 14 Li   -0.00669   -0.00672    0.28656
 15 Li   -0.00908    0.00015    0.23133
 16 Li   -0.00879    0.00056    0.26245
 17 Li    0.01551    0.00158    0.25057
 18 Li    0.05432    0.00385   -0.06610
 19 Li   -0.00469   -0.00126    0.05284
 20 Li   -0.01202   -0.00129   -0.13424
 21 Li   -0.02365   -0.03769    0.07570
 22 Li    0.01117    0.00073    0.04532
 23 Li    0.01010   -0.01436    0.04893
 24 Li   -0.02631    0.02919    0.06460
 25 Li    0.01178   -0.00034    0.02979
 26 Li    0.01171    0.01496    0.05774
 27 Li   -0.02339   -0.09175   -0.03314
 28 Li    0.03881   -0.01843   -0.04494
 29 Li   -0.02110   -0.04132    0.02146
 30 Li   -0.05404    0.05621   -0.27827
 31 Li    0.11235    0.03310   -0.13105
 32 Li   -0.05315    0.03150   -0.00586
 33 Li   -0.01040    0.03793   -0.09016
 34 Li   -0.01571   -0.00236   -0.02227
 35 Li    0.02819    0.00339   -0.01828
 36 O     7.27706    0.58056   12.95184
 37 C     1.69963    1.76891    2.11658
 38 C    -0.03498   -0.13315    0.23857
 39 H    -0.09501   -0.04522   -0.04230
 40 H     0.33461    0.20358    0.44250
 41 H     0.02435   -0.15967   -0.07901
 42 H    -0.14275    0.24393    0.03583
 43 H    -0.05667    0.01413   -0.03307
 44 H    -1.14960   -0.30908    0.93618
 45 N     2.96269   -2.11716   -7.74216
 46 N   -10.80273   -0.06436   -8.34618

System changes: positions 

Initializing position-dependent things.

Density initialized from wave functions
       .-----------------------.  
      /|                       |  
     / |                       |  
    /  |                       |  
   /   |                       |  
  /    |                       |  
 *     |                       |  
 |     |                       |  
 |     |                       |  
 |     |                       |  
 |     |                       |  
 |     |                       |  
 |     |                  H    |  
 |    H|       Li      Li   C  Li 
 |   C |                 HH    |  
 |O   H|     Li      Li      Li|  
 |N    |               N       |  
 |     |  LLi     LLi     LLi  |  
 |     |                       |  
 |     |Li      Li      Li     |  
 |   Li|     Li      Li        |  
 |    Li  Li  Li  Li  Li  Li   |  
 | Li  |   Li      Li          |  
 |     |Li      Li      Li     |  
 Li    | Li      Li            |  
 |    Li      Li      Li       |  
 |     |                       |  
 |     |                       |  
 |     |                       |  
 |     |                       |  
 |     |                       |  
 |     |                       |  
 |     .-----------------------.  
 |    /                       /   
 |   /                       /    
 |  /                       /     
 | /                       /      
 |/                       /       
 *-----------------------*        

Positions:
   0 Li     1.617037    1.617037   10.000000    ( 0.0000,  0.0000,  0.0000)
   1 Li     4.851111    1.617037   10.000000    ( 0.0000,  0.0000,  0.0000)
   2 Li     8.085185    1.617037   10.000000    ( 0.0000,  0.0000,  0.0000)
   3 Li     1.617037    4.851111   10.000000    ( 0.0000,  0.0000,  0.0000)
   4 Li     4.851111    4.851111   10.000000    ( 0.0000,  0.0000,  0.0000)
   5 Li     8.085185    4.851111   10.000000    ( 0.0000,  0.0000,  0.0000)
   6 Li     1.617037    8.085185   10.000000    ( 0.0000,  0.0000,  0.0000)
   7 Li     4.851111    8.085185   10.000000    ( 0.0000,  0.0000,  0.0000)
   8 Li     8.085185    8.085185   10.000000    ( 0.0000,  0.0000,  0.0000)
   9 Li     0.000000    0.000000   11.617037    ( 0.0000,  0.0000,  0.0000)
  10 Li     3.234074    0.000000   11.617037    ( 0.0000,  0.0000,  0.0000)
  11 Li     6.468148    0.000000   11.617037    ( 0.0000,  0.0000,  0.0000)
  12 Li     0.000000    3.234074   11.617037    ( 0.0000,  0.0000,  0.0000)
  13 Li     3.234074    3.234074   11.617037    ( 0.0000,  0.0000,  0.0000)
  14 Li     6.468148    3.234074   11.617037    ( 0.0000,  0.0000,  0.0000)
  15 Li     0.000000    6.468148   11.617037    ( 0.0000,  0.0000,  0.0000)
  16 Li     3.234074    6.468148   11.617037    ( 0.0000,  0.0000,  0.0000)
  17 Li     6.468148    6.468148   11.617037    ( 0.0000,  0.0000,  0.0000)
  18 Li     1.617184    1.617048   13.469550    ( 0.0000,  0.0000,  0.0000)
  19 Li     4.851098    1.617035   13.469872    ( 0.0000,  0.0000,  0.0000)
  20 Li     8.085152    1.617035   13.469367    ( 0.0000,  0.0000,  0.0000)
  21 Li     1.616975    4.851010   13.469933    ( 0.0000,  0.0000,  0.0000)
  22 Li     4.851141    4.851113   13.469852    ( 0.0000,  0.0000,  0.0000)
  23 Li     8.085211    4.851072   13.469861    ( 0.0000,  0.0000,  0.0000)
  24 Li     1.616967    8.085262   13.469902    ( 0.0000,  0.0000,  0.0000)
  25 Li     4.851143    8.085183   13.469810    ( 0.0000,  0.0000,  0.0000)
  26 Li     8.085215    8.085224   13.469883    ( 0.0000,  0.0000,  0.0000)
  27 Li    -0.000063   -0.000247   15.445850    ( 0.0000,  0.0000,  0.0000)
  28 Li     3.234178   -0.000050   15.445818    ( 0.0000,  0.0000,  0.0000)
  29 Li     6.468091   -0.000111   15.445997    ( 0.0000,  0.0000,  0.0000)
  30 Li    -0.000145    3.234225   15.445190    ( 0.0000,  0.0000,  0.0000)
  31 Li     3.234379    3.234166   15.445585    ( 0.0000,  0.0000,  0.0000)
  32 Li     6.468003    3.234161   15.445922    ( 0.0000,  0.0000,  0.0000)
  33 Li    -0.000028    6.468250   15.445696    ( 0.0000,  0.0000,  0.0000)
  34 Li     3.234034    6.468139   15.445878    ( 0.0000,  0.0000,  0.0000)
  35 Li     6.468221    6.468155   15.445889    ( 0.0000,  0.0000,  0.0000)
  36 O      0.019578    1.618599   18.480785    ( 0.0000,  0.0000,  0.0000)
  37 C      0.821330    2.804204   18.455932    ( 0.0000,  0.0000,  0.0000)
  38 C     -0.002955    4.083301   18.436346    ( 0.0000,  0.0000,  0.0000)
  39 H      1.500037    2.790699   19.310284    ( 0.0000,  0.0000,  0.0000)
  40 H      1.427383    2.724603   17.548633    ( 0.0000,  0.0000,  0.0000)
  41 H      0.651151    4.960156   18.420057    ( 0.0000,  0.0000,  0.0000)
  42 H     -0.652268    4.119027   17.558982    ( 0.0000,  0.0000,  0.0000)
  43 H     -0.631501    4.153885   19.328176    ( 0.0000,  0.0000,  0.0000)
  44 H     -0.586070    1.655372   19.216683    ( 0.0000,  0.0000,  0.0000)
  45 N      0.007971    1.611304   16.925110    ( 0.0000,  0.0000,  0.0000)
  46 N     -1.125686    1.616827   16.923485    ( 0.0000,  0.0000,  0.0000)

Unit cell:
           periodic     x           y           z      points  spacing
  1. axis:    yes    9.702222    0.000000    0.000000    60     0.1617
  2. axis:    yes    0.000000    9.702222    0.000000    60     0.1617
  3. axis:    no     0.000000    0.000000   26.351111   164     0.1607

  Lengths:   9.702222   9.702222  26.351111
  Angles:   90.000000  90.000000  90.000000

Effective grid spacing dv^(1/3) = 0.1614

     iter     time        total  log10-change:
                         energy  eigst   dens
iter:   1 22:02:54  -303.411215  -0.36
iter:   2 22:03:02  -303.168860  -0.70  -1.39
iter:   3 22:03:09  -302.989639  -0.78  -1.38
iter:   4 22:03:22  -302.914057  -1.27  -1.63
Writing to output.gpw (mode='')

iter:   5 22:03:29  -302.902881  -1.33  -1.97
iter:   6 22:03:36  -302.902741c -1.08  -2.13
iter:   7 22:03:43  -302.902982c -1.77  -2.12
iter:   8 22:03:51  -302.900881c -2.11  -2.36
iter:   9 22:03:58  -302.896939c -2.33  -2.42
Writing to output.gpw (mode='')

iter:  10 22:04:05  -302.897171c -2.74  -2.60
iter:  11 22:04:12  -302.896587c -2.82  -2.62
iter:  12 22:04:19  -302.896936c -3.05  -2.81
iter:  13 22:04:26  -302.897197c -3.04  -2.72
iter:  14 22:04:33  -302.896949c -2.92  -2.96
Writing to output.gpw (mode='')

iter:  15 22:04:41  -302.896893c -3.49  -3.13
iter:  16 22:04:48  -302.896865c -3.84  -3.16
iter:  17 22:04:55  -302.896902c -3.89  -3.28
iter:  18 22:05:02  -302.896916c -4.16  -3.43
iter:  19 22:05:09  -302.897009c -4.11  -3.48
Writing to output.gpw (mode='')

iter:  20 22:05:16  -302.896953c -4.09  -3.38
iter:  21 22:05:23  -302.896942c -4.57  -3.54
iter:  22 22:05:31  -302.896952c -4.58  -3.87
iter:  23 22:05:38  -302.896945c -4.72  -3.89
iter:  24 22:05:45  -302.896948c -4.92  -3.97
Writing to output.gpw (mode='')

iter:  25 22:05:52  -302.896965c -5.01  -3.99
iter:  26 22:05:59  -302.896944c -5.05  -3.95
iter:  27 22:06:06  -302.896941c -5.09  -4.07c
iter:  28 22:06:13  -302.896950c -5.16  -4.16c
iter:  29 22:06:21  -302.896946c -5.56  -4.33c
Writing to output.gpw (mode='')

iter:  30 22:06:28  -302.896951c -5.53  -4.37c
iter:  31 22:06:35  -302.896952c -5.60  -4.58c
iter:  32 22:06:42  -302.896952c -5.73  -4.91c
iter:  33 22:06:49  -302.896953c -5.66  -4.91c
iter:  34 22:06:56  -302.896953c -5.72  -4.94c
Writing to output.gpw (mode='')

iter:  35 22:07:04  -302.896953c -5.92  -4.98c
iter:  36 22:07:11  -302.896953c -6.14  -4.98c
iter:  37 22:07:18  -302.896953c -6.10  -5.02c
iter:  38 22:07:25  -302.896953c -6.37  -5.13c
iter:  39 22:07:32  -302.896953c -6.32  -5.19c
Writing to output.gpw (mode='')

iter:  40 22:07:40  -302.896954c -6.40  -5.16c
iter:  41 22:07:47  -302.896954c -6.48  -5.16c
iter:  42 22:07:54  -302.896954c -6.55  -5.15c
iter:  43 22:08:01  -302.896954c -6.56  -5.13c
iter:  44 22:08:08  -302.896954c -6.61  -5.12c
Writing to output.gpw (mode='')

iter:  45 22:08:21  -302.896953c -6.81  -4.92c
iter:  46 22:08:29  -302.896954c -6.79  -5.00c
iter:  47 22:08:36  -302.896954c -6.80  -5.30c
iter:  48 22:08:43  -302.896954c -6.84  -5.46c
iter:  49 22:08:50  -302.896954c -6.84  -5.54c
Writing to output.gpw (mode='')

iter:  50 22:08:57  -302.896954c -7.10  -5.86c
iter:  51 22:09:04  -302.896954c -7.08  -5.85c
iter:  52 22:09:12  -302.896954c -7.13  -5.90c
iter:  53 22:09:19  -302.896954c -7.27  -5.92c
iter:  54 22:09:26  -302.896954c -7.21  -6.03c
Writing to output.gpw (mode='')

iter:  55 22:09:35  -302.896954c -7.27  -6.20c
iter:  56 22:09:42  -302.896954c -7.35  -6.13c
iter:  57 22:09:50  -302.896954c -7.40c -6.16c

Converged after 57 iterations.

Dipole moment: (-14.847462, -3.374729, 0.438403) |e|*Ang

Energy contributions relative to reference atoms: (reference = -14434.854043)

Kinetic:       +177.330850
Potential:     -161.577089
External:        +0.000000
XC:            -319.306484
Entropy (-ST):   -0.159878
Local:           +0.735708
--------------------------
Free energy:   -302.976893
Extrapolated:  -302.896954

Dipole-layer corrected work functions: 3.387781, 2.545019 eV

Showing only first 2 kpts
 Kpt  Band  Eigenvalues  Occupancy
  0    31     -3.21123    1.98517
  0    32     -3.05883    1.72794
  0    33     -2.85264    0.18641
  0    34     -2.73435    0.01911

  1    31     -3.03434    1.59110
  1    32     -2.98008    1.13591
  1    33     -2.92784    0.63244
  1    34     -2.83384    0.13184


Fermi level: -2.96640

No gap
Writing to output.gpw (mode='')


Forces in eV/Ang:
  0 Li    0.02461   -0.00026   -0.27999
  1 Li   -0.01878    0.00154   -0.27140
  2 Li   -0.00915   -0.00136   -0.27896
  3 Li   -0.00168    0.01199   -0.27679
  4 Li   -0.00113   -0.00374   -0.27531
  5 Li    0.00479    0.02584   -0.27496
  6 Li   -0.00408   -0.01065   -0.27656
  7 Li   -0.00068    0.00156   -0.27849
  8 Li    0.00712   -0.02374   -0.27171
  9 Li   -0.00393    0.00906    0.31952
 10 Li    0.01127    0.00220    0.24914
 11 Li   -0.00268    0.00662    0.28921
 12 Li   -0.00194   -0.01062    0.32571
 13 Li    0.01465   -0.00235    0.24256
 14 Li   -0.00591   -0.00751    0.28875
 15 Li   -0.00922    0.00012    0.23143
 16 Li   -0.00825    0.00006    0.26031
 17 Li    0.01487    0.00181    0.25001
 18 Li    0.05576    0.00420   -0.07496
 19 Li   -0.00689   -0.00149    0.05122
 20 Li   -0.01057   -0.00203   -0.13199
 21 Li   -0.02332   -0.03684    0.07259
 22 Li    0.01111   -0.00027    0.04604
 23 Li    0.00942   -0.01194    0.04381
 24 Li   -0.02633    0.02757    0.06169
 25 Li    0.01212    0.00043    0.03098
 26 Li    0.01119    0.01314    0.05280
 27 Li   -0.04578   -0.06058    0.03858
 28 Li    0.03744   -0.02221   -0.04265
 29 Li   -0.00396   -0.03009    0.04113
 30 Li   -0.07807    0.02055   -0.19971
 31 Li    0.11091    0.03680   -0.12777
 32 Li   -0.03412    0.01962    0.01625
 33 Li   -0.00771    0.03510   -0.09143
 34 Li   -0.01396   -0.00187   -0.02355
 35 Li    0.02412    0.00325   -0.02066
 36 O     6.23693    0.29874   10.16322
 37 C     1.45712    1.56183    1.87049
 38 C     0.00715   -0.06001    0.20739
 39 H     0.10377    0.09298    0.13447
 40 H     0.28132    0.19197    0.50467
 41 H     0.00996   -0.13437   -0.06429
 42 H    -0.11767    0.19989    0.05783
 43 H    -0.06431    0.02004   -0.01559
 44 H    -1.30658   -0.14222    1.08369
 45 N    -1.09747   -1.93163   -6.83408
 46 N    -5.57471   -0.08550   -6.86028

System changes: positions 

Initializing position-dependent things.

Density initialized from wave functions
       .-----------------------.  
      /|                       |  
     / |                       |  
    /  |                       |  
   /   |                       |  
  /    |                       |  
 *     |                       |  
 |     |                       |  
 |     |                       |  
 |     |                       |  
 |     |                       |  
 |     |                       |  
 |     |                  H    |  
 |    H|       Li      Li   C  Li 
 |   C |                 HH    |  
 |O   H|     Li      Li      Li|  
 |     |               N  N    |  
 |     |  LLi     LLi     LLi  |  
 |     |                       |  
 |     |Li      Li      Li     |  
 |   Li|     Li      Li        |  
 |    Li  Li  Li  Li  Li  Li   |  
 | Li  |   Li      Li          |  
 |     |Li      Li      Li     |  
 Li    | Li      Li            |  
 |    Li      Li      Li       |  
 |     |                       |  
 |     |                       |  
 |     |                       |  
 |     |                       |  
 |     |                       |  
 |     |                       |  
 |     .-----------------------.  
 |    /                       /   
 |   /                       /    
 |  /                       /     
 | /                       /      
 |/                       /       
 *-----------------------*        

Positions:
   0 Li     1.617037    1.617037   10.000000    ( 0.0000,  0.0000,  0.0000)
   1 Li     4.851111    1.617037   10.000000    ( 0.0000,  0.0000,  0.0000)
   2 Li     8.085185    1.617037   10.000000    ( 0.0000,  0.0000,  0.0000)
   3 Li     1.617037    4.851111   10.000000    ( 0.0000,  0.0000,  0.0000)
   4 Li     4.851111    4.851111   10.000000    ( 0.0000,  0.0000,  0.0000)
   5 Li     8.085185    4.851111   10.000000    ( 0.0000,  0.0000,  0.0000)
   6 Li     1.617037    8.085185   10.000000    ( 0.0000,  0.0000,  0.0000)
   7 Li     4.851111    8.085185   10.000000    ( 0.0000,  0.0000,  0.0000)
   8 Li     8.085185    8.085185   10.000000    ( 0.0000,  0.0000,  0.0000)
   9 Li     0.000000    0.000000   11.617037    ( 0.0000,  0.0000,  0.0000)
  10 Li     3.234074    0.000000   11.617037    ( 0.0000,  0.0000,  0.0000)
  11 Li     6.468148    0.000000   11.617037    ( 0.0000,  0.0000,  0.0000)
  12 Li     0.000000    3.234074   11.617037    ( 0.0000,  0.0000,  0.0000)
  13 Li     3.234074    3.234074   11.617037    ( 0.0000,  0.0000,  0.0000)
  14 Li     6.468148    3.234074   11.617037    ( 0.0000,  0.0000,  0.0000)
  15 Li     0.000000    6.468148   11.617037    ( 0.0000,  0.0000,  0.0000)
  16 Li     3.234074    6.468148   11.617037    ( 0.0000,  0.0000,  0.0000)
  17 Li     6.468148    6.468148   11.617037    ( 0.0000,  0.0000,  0.0000)
  18 Li     1.617421    1.617067   13.469210    ( 0.0000,  0.0000,  0.0000)
  19 Li     4.851063    1.617028   13.470079    ( 0.0000,  0.0000,  0.0000)
  20 Li     8.085112    1.617024   13.468826    ( 0.0000,  0.0000,  0.0000)
  21 Li     1.616879    4.850859   13.470224    ( 0.0000,  0.0000,  0.0000)
  22 Li     4.851187    4.851109   13.470046    ( 0.0000,  0.0000,  0.0000)
  23 Li     8.085248    4.851031   13.470026    ( 0.0000,  0.0000,  0.0000)
  24 Li     1.616858    8.085372   13.470148    ( 0.0000,  0.0000,  0.0000)
  25 Li     4.851194    8.085187   13.469942    ( 0.0000,  0.0000,  0.0000)
  26 Li     8.085260    8.085273   13.470086    ( 0.0000,  0.0000,  0.0000)
  27 Li    -0.000326   -0.000396   15.446245    ( 0.0000,  0.0000,  0.0000)
  28 Li     3.234329   -0.000154   15.445648    ( 0.0000,  0.0000,  0.0000)
  29 Li     6.468131   -0.000199   15.446232    ( 0.0000,  0.0000,  0.0000)
  30 Li    -0.000548    3.234193   15.444618    ( 0.0000,  0.0000,  0.0000)
  31 Li     3.234835    3.234330   15.445066    ( 0.0000,  0.0000,  0.0000)
  32 Li     6.467923    3.234204   15.446062    ( 0.0000,  0.0000,  0.0000)
  33 Li    -0.000051    6.468387   15.445312    ( 0.0000,  0.0000,  0.0000)
  34 Li     3.233982    6.468133   15.445776    ( 0.0000,  0.0000,  0.0000)
  35 Li     6.468308    6.468168   15.445795    ( 0.0000,  0.0000,  0.0000)
  36 O      0.042074    1.618916   18.513859    ( 0.0000,  0.0000,  0.0000)
  37 C      0.826587    2.810012   18.462894    ( 0.0000,  0.0000,  0.0000)
  38 C     -0.002788    4.083291   18.437105    ( 0.0000,  0.0000,  0.0000)
  39 H      1.501119    2.791538   19.311422    ( 0.0000,  0.0000,  0.0000)
  40 H      1.428377    2.725363   17.550932    ( 0.0000,  0.0000,  0.0000)
  41 H      0.651145    4.959681   18.419838    ( 0.0000,  0.0000,  0.0000)
  42 H     -0.652674    4.119712   17.559295    ( 0.0000,  0.0000,  0.0000)
  43 H     -0.631793    4.153987   19.328169    ( 0.0000,  0.0000,  0.0000)
  44 H     -0.592011    1.655328   19.221667    ( 0.0000,  0.0000,  0.0000)
  45 N     -0.009891    1.603889   16.899701    ( 0.0000,  0.0000,  0.0000)
  46 N     -1.131709    1.616402   16.899861    ( 0.0000,  0.0000,  0.0000)

Unit cell:
           periodic     x           y           z      points  spacing
  1. axis:    yes    9.702222    0.000000    0.000000    60     0.1617
  2. axis:    yes    0.000000    9.702222    0.000000    60     0.1617
  3. axis:    no     0.000000    0.000000   26.351111   164     0.1607

  Lengths:   9.702222   9.702222  26.351111
  Angles:   90.000000  90.000000  90.000000

Effective grid spacing dv^(1/3) = 0.1614

     iter     time        total  log10-change:
                         energy  eigst   dens
iter:   1 22:09:58  -304.023329  -0.80
iter:   2 22:10:05  -303.830345  -0.62  -1.45
iter:   3 22:10:13  -303.773427  -1.49  -1.61
iter:   4 22:10:20  -303.782816  -0.78  -2.03
Writing to output.gpw (mode='')

iter:   5 22:10:27  -303.757223c -1.56  -1.85
iter:   6 22:10:34  -303.822819  -1.08  -2.26
iter:   7 22:10:41  -303.772730  -2.09  -1.86
iter:   8 22:10:48  -303.745093  -1.55  -2.06
iter:   9 22:10:55  -303.745657c -2.13  -2.52
Writing to output.gpw (mode='')

iter:  10 22:11:03  -303.756259c -2.39  -2.63
iter:  11 22:11:10  -303.745616c -1.88  -2.33
iter:  12 22:11:17  -303.745880c -2.89  -2.69
iter:  13 22:11:24  -303.746016c -3.10  -2.95
iter:  14 22:11:31  -303.745848c -2.98  -3.02
Writing to output.gpw (mode='')

iter:  15 22:11:38  -303.746146c -3.24  -3.17
iter:  16 22:11:45  -303.746139c -3.52  -3.30
iter:  17 22:11:52  -303.746170c -3.58  -3.35
iter:  18 22:11:59  -303.746250c -3.87  -3.51
iter:  19 22:12:07  -303.746197c -3.84  -3.55
Writing to output.gpw (mode='')

iter:  20 22:12:14  -303.746242c -4.01  -3.79
iter:  21 22:12:21  -303.746278c -4.20  -3.80
iter:  22 22:12:28  -303.746294c -4.27  -3.87
iter:  23 22:12:35  -303.746330c -4.35  -3.94
iter:  24 22:12:42  -303.746332c -4.59  -4.16c
Writing to output.gpw (mode='')

iter:  25 22:12:49  -303.746339c -4.55  -4.17c
iter:  26 22:12:56  -303.746348c -4.49  -4.28c
iter:  27 22:13:04  -303.746361c -4.70  -4.31c
iter:  28 22:13:12  -303.746364c -4.86  -4.38c
iter:  29 22:13:25  -303.746370c -5.05  -4.49c
Writing to output.gpw (mode='')

iter:  30 22:13:32  -303.746369c -5.06  -4.54c
iter:  31 22:13:39  -303.746373c -5.16  -4.60c
iter:  32 22:13:46  -303.746377c -5.17  -4.61c
iter:  33 22:13:53  -303.746385c -5.32  -4.62c
iter:  34 22:14:00  -303.746386c -5.51  -4.74c
Writing to output.gpw (mode='')

iter:  35 22:14:07  -303.746386c -5.55  -4.82c
iter:  36 22:14:14  -303.746388c -5.61  -4.86c
iter:  37 22:14:21  -303.746392c -5.53  -4.94c
iter:  38 22:14:29  -303.746391c -5.82  -5.06c
iter:  39 22:14:36  -303.746394c -5.77  -5.08c
Writing to output.gpw (mode='')

iter:  40 22:14:43  -303.746394c -5.78  -5.13c
iter:  41 22:14:50  -303.746395c -5.90  -5.17c
iter:  42 22:14:57  -303.746397c -5.92  -5.18c
iter:  43 22:15:04  -303.746399c -6.11  -5.21c
iter:  44 22:15:11  -303.746398c -6.19  -5.41c
Writing to output.gpw (mode='')

iter:  45 22:15:18  -303.746398c -6.35  -5.60c
iter:  46 22:15:25  -303.746398c -6.39  -5.60c
iter:  47 22:15:32  -303.746399c -6.37  -5.72c
iter:  48 22:15:40  -303.746399c -6.37  -5.83c
iter:  49 22:15:47  -303.746399c -6.50  -5.84c
Writing to output.gpw (mode='')

iter:  50 22:15:54  -303.746399c -6.60  -5.82c
iter:  51 22:16:01  -303.746400c -6.61  -5.65c
iter:  52 22:16:08  -303.746399c -6.76  -5.60c
iter:  53 22:16:15  -303.746400c -6.87  -5.50c
iter:  54 22:16:22  -303.746400c -6.85  -5.49c
Writing to output.gpw (mode='')

iter:  55 22:16:29  -303.746400c -6.94  -5.53c
iter:  56 22:16:36  -303.746400c -6.94  -5.44c
iter:  57 22:16:43  -303.746401c -6.92  -5.48c
iter:  58 22:16:51  -303.746401c -7.22  -5.52c
iter:  59 22:16:58  -303.746401c -7.27  -5.43c
Writing to output.gpw (mode='')

iter:  60 22:17:05  -303.746401c -7.03  -5.48c
iter:  61 22:17:12  -303.746401c -7.15  -5.41c
iter:  62 22:17:19  -303.746400c -7.43c -5.41c

Converged after 62 iterations.

Dipole moment: (-14.617122, -3.379095, 0.436259) |e|*Ang

Energy contributions relative to reference atoms: (reference = -14434.854043)

Kinetic:       +176.532392
Potential:     -161.546276
External:        +0.000000
XC:            -319.392859
Entropy (-ST):   -0.158888
Local:           +0.739786
--------------------------
Free energy:   -303.825844
Extrapolated:  -303.746400

Dipole-layer corrected work functions: 3.387879, 2.549240 eV

Showing only first 2 kpts
 Kpt  Band  Eigenvalues  Occupancy
  0    31     -3.21440    1.98546
  0    32     -3.06181    1.73178
  0    33     -2.85190    0.17682
  0    34     -2.73556    0.01875

  1    31     -3.03283    1.56676
  1    32     -2.98325    1.14587
  1    33     -2.92930    0.62641
  1    34     -2.83888    0.13911


Fermi level: -2.96856

No gap
Writing to output.gpw (mode='')


Forces in eV/Ang:
  0 Li    0.02493   -0.00016   -0.28021
  1 Li   -0.01874    0.00161   -0.27040
  2 Li   -0.00972   -0.00123   -0.27936
  3 Li   -0.00198    0.01220   -0.27644
  4 Li   -0.00077   -0.00396   -0.27523
  5 Li    0.00513    0.02596   -0.27452
  6 Li   -0.00431   -0.01067   -0.27655
  7 Li   -0.00033    0.00199   -0.27809
  8 Li    0.00753   -0.02414   -0.27164
  9 Li   -0.00335    0.00948    0.32078
 10 Li    0.01215    0.00187    0.24925
 11 Li   -0.00367    0.00626    0.28748
 12 Li   -0.00152   -0.01062    0.32663
 13 Li    0.01597   -0.00209    0.24258
 14 Li   -0.00709   -0.00697    0.28706
 15 Li   -0.00972   -0.00002    0.23076
 16 Li   -0.00878   -0.00043    0.26016
 17 Li    0.01485    0.00182    0.25037
 18 Li    0.05538    0.00433   -0.07731
 19 Li   -0.00513   -0.00157    0.05421
 20 Li   -0.01574   -0.00182   -0.14780
 21 Li   -0.02324   -0.03678    0.07162
 22 Li    0.00974    0.00076    0.04501
 23 Li    0.00990   -0.01568    0.04776
 24 Li   -0.02687    0.02740    0.06221
 25 Li    0.01141   -0.00073    0.03097
 26 Li    0.01157    0.01677    0.05566
 27 Li   -0.02410   -0.10849   -0.00344
 28 Li    0.04049   -0.02382   -0.04271
 29 Li   -0.02188   -0.03966    0.02681
 30 Li   -0.05527    0.05421   -0.21808
 31 Li    0.10991    0.03740   -0.12556
 32 Li   -0.04833    0.02867    0.00432
 33 Li   -0.00812    0.03466   -0.09029
 34 Li   -0.01364   -0.00125   -0.02335
 35 Li    0.02472    0.00262   -0.02002
 36 O     5.14469    0.02184    8.54211
 37 C     1.15205    1.24625    1.56712
 38 C     0.02574   -0.01421    0.20621
 39 H     0.30668    0.23545    0.26747
 40 H     0.22637    0.16243    0.49860
 41 H    -0.00286   -0.09622   -0.05958
 42 H    -0.09387    0.17693    0.06821
 43 H    -0.06955    0.02514    0.00109
 44 H    -1.15527    0.01427    1.02988
 45 N     0.02815   -1.70784   -6.17441
 46 N    -5.60375   -0.06912   -5.50383

System changes: positions 

Initializing position-dependent things.

Density initialized from wave functions
       .-----------------------.  
      /|                       |  
     / |                       |  
    /  |                       |  
   /   |                       |  
  /    |                       |  
 *     |                       |  
 |     |                       |  
 |     |                       |  
 |     |                       |  
 |     |                       |  
 |     |                       |  
 |     |                  H    |  
 |    H|       Li      Li   C  Li 
 |O  C |                 HH    |  
 |    H|     Li      Li      Li|  
 |     |                       |  
 |     |  LLi     LLi  N  NLi  |  
 |     |                       |  
 |     |Li      Li      Li     |  
 |   Li|     Li      Li        |  
 |    Li  Li  Li  Li  Li  Li   |  
 | Li  |   Li      Li          |  
 |     |Li      Li      Li     |  
 Li    | Li      Li            |  
 |    Li      Li      Li       |  
 |     |                       |  
 |     |                       |  
 |     |                       |  
 |     |                       |  
 |     |                       |  
 |     |                       |  
 |     .-----------------------.  
 |    /                       /   
 |   /                       /    
 |  /                       /     
 | /                       /      
 |/                       /       
 *-----------------------*        

Positions:
   0 Li     1.617037    1.617037   10.000000    ( 0.0000,  0.0000,  0.0000)
   1 Li     4.851111    1.617037   10.000000    ( 0.0000,  0.0000,  0.0000)
   2 Li     8.085185    1.617037   10.000000    ( 0.0000,  0.0000,  0.0000)
   3 Li     1.617037    4.851111   10.000000    ( 0.0000,  0.0000,  0.0000)
   4 Li     4.851111    4.851111   10.000000    ( 0.0000,  0.0000,  0.0000)
   5 Li     8.085185    4.851111   10.000000    ( 0.0000,  0.0000,  0.0000)
   6 Li     1.617037    8.085185   10.000000    ( 0.0000,  0.0000,  0.0000)
   7 Li     4.851111    8.085185   10.000000    ( 0.0000,  0.0000,  0.0000)
   8 Li     8.085185    8.085185   10.000000    ( 0.0000,  0.0000,  0.0000)
   9 Li     0.000000    0.000000   11.617037    ( 0.0000,  0.0000,  0.0000)
  10 Li     3.234074    0.000000   11.617037    ( 0.0000,  0.0000,  0.0000)
  11 Li     6.468148    0.000000   11.617037    ( 0.0000,  0.0000,  0.0000)
  12 Li     0.000000    3.234074   11.617037    ( 0.0000,  0.0000,  0.0000)
  13 Li     3.234074    3.234074   11.617037    ( 0.0000,  0.0000,  0.0000)
  14 Li     6.468148    3.234074   11.617037    ( 0.0000,  0.0000,  0.0000)
  15 Li     0.000000    6.468148   11.617037    ( 0.0000,  0.0000,  0.0000)
  16 Li     3.234074    6.468148   11.617037    ( 0.0000,  0.0000,  0.0000)
  17 Li     6.468148    6.468148   11.617037    ( 0.0000,  0.0000,  0.0000)
  18 Li     1.617830    1.617102   13.468576    ( 0.0000,  0.0000,  0.0000)
  19 Li     4.851029    1.617015   13.470493    ( 0.0000,  0.0000,  0.0000)
  20 Li     8.084959    1.617008   13.467618    ( 0.0000,  0.0000,  0.0000)
  21 Li     1.616712    4.850596   13.470722    ( 0.0000,  0.0000,  0.0000)
  22 Li     4.851246    4.851118   13.470369    ( 0.0000,  0.0000,  0.0000)
  23 Li     8.085321    4.850896   13.470383    ( 0.0000,  0.0000,  0.0000)
  24 Li     1.616657    8.085561   13.470592    ( 0.0000,  0.0000,  0.0000)
  25 Li     4.851273    8.085176   13.470175    ( 0.0000,  0.0000,  0.0000)
  26 Li     8.085345    8.085418   13.470492    ( 0.0000,  0.0000,  0.0000)
  27 Li    -0.000431   -0.001445   15.446235    ( 0.0000,  0.0000,  0.0000)
  28 Li     3.234645   -0.000363   15.445348    ( 0.0000,  0.0000,  0.0000)
  29 Li     6.467905   -0.000513   15.446407    ( 0.0000,  0.0000,  0.0000)
  30 Li    -0.000880    3.234695   15.443286    ( 0.0000,  0.0000,  0.0000)
  31 Li     3.235621    3.234629   15.444186    ( 0.0000,  0.0000,  0.0000)
  32 Li     6.467547    3.234429   15.446107    ( 0.0000,  0.0000,  0.0000)
  33 Li    -0.000100    6.468621   15.444656    ( 0.0000,  0.0000,  0.0000)
  34 Li     3.233894    6.468132   15.445600    ( 0.0000,  0.0000,  0.0000)
  35 Li     6.468472    6.468180   15.445642    ( 0.0000,  0.0000,  0.0000)
  36 O      0.064366    1.615102   18.546852    ( 0.0000,  0.0000,  0.0000)
  37 C      0.830991    2.815202   18.470326    ( 0.0000,  0.0000,  0.0000)
  38 C     -0.002208    4.083988   18.438433    ( 0.0000,  0.0000,  0.0000)
  39 H      1.506230    2.795266   19.315507    ( 0.0000,  0.0000,  0.0000)
  40 H      1.429256    2.726225   17.554856    ( 0.0000,  0.0000,  0.0000)
  41 H      0.650933    4.959453   18.419524    ( 0.0000,  0.0000,  0.0000)
  42 H     -0.653014    4.120564   17.560003    ( 0.0000,  0.0000,  0.0000)
  43 H     -0.632389    4.154248   19.328419    ( 0.0000,  0.0000,  0.0000)
  44 H     -0.599955    1.657719   19.229509    ( 0.0000,  0.0000,  0.0000)
  45 N     -0.021606    1.594398   16.865342    ( 0.0000,  0.0000,  0.0000)
  46 N     -1.144706    1.615929   16.879691    ( 0.0000,  0.0000,  0.0000)

Unit cell:
           periodic     x           y           z      points  spacing
  1. axis:    yes    9.702222    0.000000    0.000000    60     0.1617
  2. axis:    yes    0.000000    9.702222    0.000000    60     0.1617
  3. axis:    no     0.000000    0.000000   26.351111   164     0.1607

  Lengths:   9.702222   9.702222  26.351111
  Angles:   90.000000  90.000000  90.000000

Effective grid spacing dv^(1/3) = 0.1614

     iter     time        total  log10-change:
                         energy  eigst   dens
iter:   1 22:17:28  -304.584766  -0.83
iter:   2 22:17:35  -304.552700  -1.12  -1.71
iter:   3 22:17:42  -304.537507  -1.82  -1.86
iter:   4 22:17:49  -304.537013c -2.02  -2.31
Writing to output.gpw (mode='')

iter:   5 22:17:56  -304.533266c -1.95  -2.36
iter:   6 22:18:03  -304.531934c -2.13  -2.36
iter:   7 22:18:11  -304.531807c -2.42  -2.60
iter:   8 22:18:25  -304.530568c -2.52  -2.68
iter:   9 22:18:32  -304.530787c -2.90  -2.83
Writing to output.gpw (mode='')

iter:  10 22:18:39  -304.530788c -2.81  -3.14
iter:  11 22:18:46  -304.531051c -3.60  -3.00
iter:  12 22:18:54  -304.531090c -3.24  -3.12
iter:  13 22:19:01  -304.530868c -3.54  -3.17
iter:  14 22:19:08  -304.530862c -3.55  -3.40
Writing to output.gpw (mode='')

iter:  15 22:19:15  -304.530895c -4.03  -3.55
iter:  16 22:19:22  -304.530896c -4.29  -3.66
iter:  17 22:19:29  -304.530940c -4.17  -3.72
iter:  18 22:19:36  -304.530921c -4.72  -3.76
iter:  19 22:19:44  -304.530929c -4.63  -3.86
Writing to output.gpw (mode='')

iter:  20 22:19:51  -304.530935c -4.86  -3.90
iter:  21 22:19:58  -304.530958c -4.88  -3.94
iter:  22 22:20:05  -304.530943c -4.84  -4.02c
iter:  23 22:20:12  -304.530951c -5.35  -4.04c
iter:  24 22:20:19  -304.530957c -5.23  -4.11c
Writing to output.gpw (mode='')

iter:  25 22:20:26  -304.530954c -5.33  -4.25c
iter:  26 22:20:34  -304.530952c -5.31  -4.39c
iter:  27 22:20:41  -304.530955c -5.54  -4.47c
iter:  28 22:20:48  -304.530961c -5.65  -4.50c
iter:  29 22:20:55  -304.530956c -5.74  -4.53c
Writing to output.gpw (mode='')

iter:  30 22:21:02  -304.530959c -5.95  -4.75c
iter:  31 22:21:09  -304.530959c -6.02  -4.77c
iter:  32 22:21:16  -304.530960c -6.09  -4.81c
iter:  33 22:21:24  -304.530960c -6.18  -4.94c
iter:  34 22:21:31  -304.530960c -6.44  -4.96c
Writing to output.gpw (mode='')

iter:  35 22:21:38  -304.530961c -6.32  -5.05c
iter:  36 22:21:45  -304.530961c -6.42  -5.12c
iter:  37 22:21:52  -304.530962c -6.60  -5.25c
iter:  38 22:21:59  -304.530963c -6.66  -5.24c
iter:  39 22:22:06  -304.530962c -6.70  -5.33c
Writing to output.gpw (mode='')

iter:  40 22:22:14  -304.530963c -6.92  -5.36c
iter:  41 22:22:21  -304.530962c -7.02  -5.35c
iter:  42 22:22:28  -304.530962c -7.10  -5.31c
iter:  43 22:22:35  -304.530962c -7.17  -5.30c
iter:  44 22:22:42  -304.530962c -7.15  -5.25c
Writing to output.gpw (mode='')

iter:  45 22:22:49  -304.530962c -7.42c -5.21c

Converged after 45 iterations.

Dipole moment: (-14.779089, -3.304705, 0.412091) |e|*Ang

Energy contributions relative to reference atoms: (reference = -14434.854043)

Kinetic:       +173.480451
Potential:     -159.650961
External:        +0.000000
XC:            -319.024565
Entropy (-ST):   -0.160057
Local:           +0.744142
--------------------------
Free energy:   -304.610991
Extrapolated:  -304.530962

Dipole-layer corrected work functions: 3.389575, 2.597396 eV

Showing only first 2 kpts
 Kpt  Band  Eigenvalues  Occupancy
  0    31     -3.23947    1.98550
  0    32     -3.08354    1.71655
  0    33     -2.88071    0.18976
  0    34     -2.75940    0.01836

  1    31     -3.05685    1.56057
  1    32     -3.00683    1.13262
  1    33     -2.95176    0.60541
  1    34     -2.86432    0.14045


Fermi level: -2.99349

No gap

Forces in eV/Ang:
  0 Li    0.02444   -0.00009   -0.28080
  1 Li   -0.01837    0.00166   -0.26957
  2 Li   -0.01015   -0.00117   -0.27985
  3 Li   -0.00184    0.01286   -0.27645
  4 Li   -0.00048   -0.00366   -0.27537
  5 Li    0.00549    0.02588   -0.27468
  6 Li   -0.00412   -0.01106   -0.27696
  7 Li   -0.00002    0.00201   -0.27807
  8 Li    0.00798   -0.02432   -0.27206
  9 Li   -0.00269    0.00979    0.32220
 10 Li    0.01313    0.00148    0.24991
 11 Li   -0.00434    0.00609    0.28608
 12 Li   -0.00119   -0.01059    0.32787
 13 Li    0.01743   -0.00170    0.24312
 14 Li   -0.00769   -0.00680    0.28608
 15 Li   -0.01017   -0.00005    0.23040
 16 Li   -0.00962   -0.00108    0.25926
 17 Li    0.01451    0.00201    0.25078
 18 Li    0.05513    0.00466   -0.08076
 19 Li   -0.00417   -0.00182    0.05509
 20 Li   -0.01878   -0.00173   -0.15314
 21 Li   -0.02302   -0.03589    0.06892
 22 Li    0.00844    0.00127    0.04409
 23 Li    0.00976   -0.01692    0.04803
 24 Li   -0.02706    0.02605    0.06071
 25 Li    0.01062   -0.00131    0.03128
 26 Li    0.01134    0.01808    0.05492
 27 Li   -0.01566   -0.14023   -0.02178
 28 Li    0.04199   -0.02633   -0.04178
 29 Li   -0.02888   -0.04077    0.02288
 30 Li   -0.04783    0.06823   -0.20921
 31 Li    0.10679    0.03903   -0.12169
 32 Li   -0.05078    0.02893    0.00311
 33 Li   -0.00734    0.03307   -0.08943
 34 Li   -0.01246   -0.00058   -0.02365
 35 Li    0.02367    0.00194   -0.02035
 36 O     4.07006   -0.15186    7.12738
 37 C     0.94510    0.91455    1.38190
 38 C    -0.00313   -0.02074    0.18997
 39 H     0.39750    0.35839    0.28986
 40 H     0.17689    0.13239    0.48475
 41 H     0.00512   -0.04589   -0.04961
 42 H    -0.06601    0.14971    0.08674
 43 H    -0.06912    0.03632    0.01370
 44 H    -0.86380    0.13101    0.80541
 45 N    -0.04118   -1.45199   -5.41113
 46 N    -4.64527   -0.06049   -4.48186

System changes: positions 

Initializing position-dependent things.

Density initialized from wave functions
       .-----------------------.  
      /|                       |  
     / |                       |  
    /  |                       |  
   /   |                       |  
  /    |                       |  
 *     |                       |  
 |     |                       |  
 |     |                       |  
 |     |                       |  
 |     |                       |  
 |     |                       |  
 |     |                  H    |  
 |    H|       Li      Li   C  Li 
 |O  C |                 HH    |  
 |    H|     Li      Li      Li|  
 |     |                       |  
 |     |  LLi     LLi  N  NLi  |  
 |     |                       |  
 |     |Li      Li      Li     |  
 |   Li|     Li      Li        |  
 |    Li  Li  Li  Li  Li  Li   |  
 | Li  |   Li      Li          |  
 |     |Li      Li      Li     |  
 Li    | Li      Li            |  
 |    Li      Li      Li       |  
 |     |                       |  
 |     |                       |  
 |     |                       |  
 |     |                       |  
 |     |                       |  
 |     |                       |  
 |     .-----------------------.  
 |    /                       /   
 |   /                       /    
 |  /                       /     
 | /                       /      
 |/                       /       
 *-----------------------*        

Positions:
   0 Li     1.617037    1.617037   10.000000    ( 0.0000,  0.0000,  0.0000)
   1 Li     4.851111    1.617037   10.000000    ( 0.0000,  0.0000,  0.0000)
   2 Li     8.085185    1.617037   10.000000    ( 0.0000,  0.0000,  0.0000)
   3 Li     1.617037    4.851111   10.000000    ( 0.0000,  0.0000,  0.0000)
   4 Li     4.851111    4.851111   10.000000    ( 0.0000,  0.0000,  0.0000)
   5 Li     8.085185    4.851111   10.000000    ( 0.0000,  0.0000,  0.0000)
   6 Li     1.617037    8.085185   10.000000    ( 0.0000,  0.0000,  0.0000)
   7 Li     4.851111    8.085185   10.000000    ( 0.0000,  0.0000,  0.0000)
   8 Li     8.085185    8.085185   10.000000    ( 0.0000,  0.0000,  0.0000)
   9 Li     0.000000    0.000000   11.617037    ( 0.0000,  0.0000,  0.0000)
  10 Li     3.234074    0.000000   11.617037    ( 0.0000,  0.0000,  0.0000)
  11 Li     6.468148    0.000000   11.617037    ( 0.0000,  0.0000,  0.0000)
  12 Li     0.000000    3.234074   11.617037    ( 0.0000,  0.0000,  0.0000)
  13 Li     3.234074    3.234074   11.617037    ( 0.0000,  0.0000,  0.0000)
  14 Li     6.468148    3.234074   11.617037    ( 0.0000,  0.0000,  0.0000)
  15 Li     0.000000    6.468148   11.617037    ( 0.0000,  0.0000,  0.0000)
  16 Li     3.234074    6.468148   11.617037    ( 0.0000,  0.0000,  0.0000)
  17 Li     6.468148    6.468148   11.617037    ( 0.0000,  0.0000,  0.0000)
  18 Li     1.618359    1.617151   13.467720    ( 0.0000,  0.0000,  0.0000)
  19 Li     4.850998    1.616994   13.471041    ( 0.0000,  0.0000,  0.0000)
  20 Li     8.084726    1.616990   13.466004    ( 0.0000,  0.0000,  0.0000)
  21 Li     1.616495    4.850263   13.471340    ( 0.0000,  0.0000,  0.0000)
  22 Li     4.851307    4.851137   13.470780    ( 0.0000,  0.0000,  0.0000)
  23 Li     8.085413    4.850708   13.470850    ( 0.0000,  0.0000,  0.0000)
  24 Li     1.616392    8.085792   13.471152    ( 0.0000,  0.0000,  0.0000)
  25 Li     4.851365    8.085154   13.470481    ( 0.0000,  0.0000,  0.0000)
  26 Li     8.085453    8.085619   13.471010    ( 0.0000,  0.0000,  0.0000)
  27 Li    -0.000462   -0.003220   15.445926    ( 0.0000,  0.0000,  0.0000)
  28 Li     3.235073   -0.000662   15.444966    ( 0.0000,  0.0000,  0.0000)
  29 Li     6.467524   -0.000932   15.446582    ( 0.0000,  0.0000,  0.0000)
  30 Li    -0.001224    3.235532   15.441585    ( 0.0000,  0.0000,  0.0000)
  31 Li     3.236606    3.235035   15.443082    ( 0.0000,  0.0000,  0.0000)
  32 Li     6.467025    3.234722   15.446142    ( 0.0000,  0.0000,  0.0000)
  33 Li    -0.000155    6.468909   15.443810    ( 0.0000,  0.0000,  0.0000)
  34 Li     3.233794    6.468138   15.445368    ( 0.0000,  0.0000,  0.0000)
  35 Li     6.468676    6.468189   15.445439    ( 0.0000,  0.0000,  0.0000)
  36 O      0.082387    1.608894   18.578911    ( 0.0000,  0.0000,  0.0000)
  37 C      0.835021    2.818243   18.478663    ( 0.0000,  0.0000,  0.0000)
  38 C     -0.002058    4.084486   18.439980    ( 0.0000,  0.0000,  0.0000)
  39 H      1.513245    2.801316   19.320383    ( 0.0000,  0.0000,  0.0000)
  40 H      1.429921    2.727002   17.559661    ( 0.0000,  0.0000,  0.0000)
  41 H      0.650856    4.959769   18.419225    ( 0.0000,  0.0000,  0.0000)
  42 H     -0.653150    4.121416   17.561143    ( 0.0000,  0.0000,  0.0000)
  43 H     -0.633127    4.154737   19.328853    ( 0.0000,  0.0000,  0.0000)
  44 H     -0.605919    1.661815   19.236084    ( 0.0000,  0.0000,  0.0000)
  45 N     -0.033519    1.584887   16.828360    ( 0.0000,  0.0000,  0.0000)
  46 N     -1.157203    1.615433   16.861777    ( 0.0000,  0.0000,  0.0000)

Unit cell:
           periodic     x           y           z      points  spacing
  1. axis:    yes    9.702222    0.000000    0.000000    60     0.1617
  2. axis:    yes    0.000000    9.702222    0.000000    60     0.1617
  3. axis:    no     0.000000    0.000000   26.351111   164     0.1607

  Lengths:   9.702222   9.702222  26.351111
  Angles:   90.000000  90.000000  90.000000

Effective grid spacing dv^(1/3) = 0.1614

     iter     time        total  log10-change:
                         energy  eigst   dens
iter:   1 22:22:58  -305.213608  -0.86
iter:   2 22:23:05  -305.186340  -1.20  -1.74
iter:   3 22:23:18  -305.172877  -1.87  -1.89
iter:   4 22:23:26  -305.172055c -2.07  -2.35
Writing to output.gpw (mode='')

iter:   5 22:23:33  -305.167826c -1.93  -2.40
iter:   6 22:23:41  -305.167570c -2.18  -2.42
iter:   7 22:23:48  -305.167965c -2.49  -2.71
iter:   8 22:23:55  -305.167196c -2.69  -2.71
iter:   9 22:24:02  -305.167348c -2.99  -2.90
Writing to output.gpw (mode='')

iter:  10 22:24:09  -305.167511c -2.82  -3.09
iter:  11 22:24:16  -305.167481c -3.58  -3.05
iter:  12 22:24:23  -305.167222c -3.37  -3.09
iter:  13 22:24:31  -305.167192c -4.06  -3.32
iter:  14 22:24:38  -305.167212c -4.02  -3.45
Writing to output.gpw (mode='')

iter:  15 22:24:45  -305.167225c -4.04  -3.56
iter:  16 22:24:52  -305.167236c -4.40  -3.69
iter:  17 22:24:59  -305.167240c -4.50  -3.77
iter:  18 22:25:06  -305.167260c -4.75  -3.85
iter:  19 22:25:13  -305.167256c -4.75  -3.93
Writing to output.gpw (mode='')

iter:  20 22:25:20  -305.167266c -4.99  -4.04c
iter:  21 22:25:28  -305.167266c -5.11  -4.14c
iter:  22 22:25:35  -305.167269c -5.06  -4.22c
iter:  23 22:25:44  -305.167268c -5.20  -4.27c
iter:  24 22:25:51  -305.167266c -5.41  -4.27c
Writing to output.gpw (mode='')

iter:  25 22:25:58  -305.167267c -5.50  -4.37c
iter:  26 22:26:05  -305.167267c -5.59  -4.39c
iter:  27 22:26:12  -305.167267c -5.78  -4.35c
iter:  28 22:26:20  -305.167272c -5.68  -4.40c
iter:  29 22:26:27  -305.167278c -5.91  -4.35c
Writing to output.gpw (mode='')

iter:  30 22:26:34  -305.167280c -5.73  -4.42c
iter:  31 22:26:41  -305.167288c -6.09  -4.54c
iter:  32 22:26:48  -305.167283c -6.22  -4.62c
iter:  33 22:26:55  -305.167284c -6.42  -4.63c
iter:  34 22:27:02  -305.167284c -6.47  -4.66c
Writing to output.gpw (mode='')

iter:  35 22:27:10  -305.167283c -6.32  -4.81c
iter:  36 22:27:17  -305.167284c -6.73  -4.90c
iter:  37 22:27:24  -305.167285c -6.54  -4.94c
iter:  38 22:27:31  -305.167283c -6.84  -5.09c
iter:  39 22:27:38  -305.167285c -6.70  -5.11c
Writing to output.gpw (mode='')

iter:  40 22:27:45  -305.167286c -6.80  -5.28c
iter:  41 22:27:53  -305.167285c -6.89  -5.29c
iter:  42 22:28:00  -305.167286c -6.84  -5.43c
iter:  43 22:28:07  -305.167286c -7.11  -5.44c
iter:  44 22:28:19  -305.167287c -7.40c -5.46c

Converged after 44 iterations.

Dipole moment: (-14.401612, -3.211973, 0.382806) |e|*Ang

Energy contributions relative to reference atoms: (reference = -14434.854043)

Kinetic:       +170.819206
Potential:     -157.951812
External:        +0.000000
XC:            -318.701163
Entropy (-ST):   -0.161403
Local:           +0.747184
--------------------------
Free energy:   -305.247988
Extrapolated:  -305.167287

Dipole-layer corrected work functions: 3.391332, 2.655448 eV

Showing only first 2 kpts
 Kpt  Band  Eigenvalues  Occupancy
  0    31     -3.26939    1.98551
  0    32     -3.10977    1.69822
  0    33     -2.91441    0.20319
  0    34     -2.78803    0.01790

  1    31     -3.08597    1.55513
  1    32     -3.03502    1.11580
  1    33     -2.97942    0.58657
  1    34     -2.89461    0.14145


Fermi level: -3.02339

Gap: 0.012 eV
Transition (v -> c):
  (s=0, k=2, n=32, [0.12, 0.12, 0.00]) -> (s=0, k=7, n=33, [0.38, 0.38, 0.00])
Writing to output.gpw (mode='')


Forces in eV/Ang:
  0 Li    0.02368    0.00002   -0.28146
  1 Li   -0.01803    0.00176   -0.26876
  2 Li   -0.01043   -0.00111   -0.28023
  3 Li   -0.00157    0.01346   -0.27652
  4 Li   -0.00019   -0.00330   -0.27560
  5 Li    0.00593    0.02567   -0.27495
  6 Li   -0.00384   -0.01145   -0.27744
  7 Li    0.00029    0.00191   -0.27816
  8 Li    0.00854   -0.02441   -0.27265
  9 Li   -0.00196    0.01016    0.32346
 10 Li    0.01414    0.00109    0.25082
 11 Li   -0.00485    0.00588    0.28471
 12 Li   -0.00085   -0.01061    0.32885
 13 Li    0.01908   -0.00125    0.24379
 14 Li   -0.00814   -0.00666    0.28514
 15 Li   -0.01064   -0.00009    0.23022
 16 Li   -0.01070   -0.00179    0.25843
 17 Li    0.01406    0.00225    0.25140
 18 Li    0.05460    0.00514   -0.08318
 19 Li   -0.00304   -0.00213    0.05527
 20 Li   -0.02126   -0.00153   -0.15468
 21 Li   -0.02278   -0.03474    0.06579
 22 Li    0.00714    0.00177    0.04294
 23 Li    0.00934   -0.01750    0.04745
 24 Li   -0.02703    0.02430    0.05856
 25 Li    0.00968   -0.00176    0.03156
 26 Li    0.01082    0.01866    0.05327
 27 Li   -0.00804   -0.17463   -0.04497
 28 Li    0.04341   -0.02866   -0.04066
 29 Li   -0.03463   -0.04028    0.02023
 30 Li   -0.04346    0.08080   -0.20216
 31 Li    0.10288    0.04059   -0.11731
 32 Li   -0.05158    0.02750    0.00301
 33 Li   -0.00644    0.03137   -0.08821
 34 Li   -0.01122   -0.00000   -0.02379
 35 Li    0.02266    0.00122   -0.02052
 36 O     3.28869   -0.20402    5.79882
 37 C     0.76584    0.63763    1.22175
 38 C     0.00306   -0.04056    0.18886
 39 H     0.44752    0.44568    0.28769
 40 H     0.12645    0.08866    0.47186
 41 H     0.00181   -0.02515   -0.03875
 42 H    -0.04896    0.12074    0.09232
 43 H    -0.07245    0.04922    0.02852
 44 H    -0.72094    0.21425    0.72804
 45 N     0.09168   -1.15590   -4.70708
 46 N    -3.93710   -0.03594   -3.65736

System changes: positions 

Initializing position-dependent things.

Density initialized from wave functions
       .-----------------------.  
      /|                       |  
     / |                       |  
    /  |                       |  
   /   |                       |  
  /    |                       |  
 *     |                       |  
 |     |                       |  
 |     |                       |  
 |     |                       |  
 |     |                       |  
 |     |                       |  
 |     |                  H    |  
 |    HH       Li      Li   C  Li 
 |O  C |                 HH    |  
 |    H|     Li      Li      Li|  
 |     |                       |  
 |     |  LLi     LLi  N  NLi  |  
 |     |                       |  
 |     |Li      Li      Li     |  
 |   Li|     Li      Li        |  
 |    Li  Li  Li  Li  Li  Li   |  
 | Li  |   Li      Li          |  
 |     |Li      Li      Li     |  
 Li    | Li      Li            |  
 |    Li      Li      Li       |  
 |     |                       |  
 |     |                       |  
 |     |                       |  
 |     |                       |  
 |     |                       |  
 |     |                       |  
 |     .-----------------------.  
 |    /                       /   
 |   /                       /    
 |  /                       /     
 | /                       /      
 |/                       /       
 *-----------------------*        

Positions:
   0 Li     1.617037    1.617037   10.000000    ( 0.0000,  0.0000,  0.0000)
   1 Li     4.851111    1.617037   10.000000    ( 0.0000,  0.0000,  0.0000)
   2 Li     8.085185    1.617037   10.000000    ( 0.0000,  0.0000,  0.0000)
   3 Li     1.617037    4.851111   10.000000    ( 0.0000,  0.0000,  0.0000)
   4 Li     4.851111    4.851111   10.000000    ( 0.0000,  0.0000,  0.0000)
   5 Li     8.085185    4.851111   10.000000    ( 0.0000,  0.0000,  0.0000)
   6 Li     1.617037    8.085185   10.000000    ( 0.0000,  0.0000,  0.0000)
   7 Li     4.851111    8.085185   10.000000    ( 0.0000,  0.0000,  0.0000)
   8 Li     8.085185    8.085185   10.000000    ( 0.0000,  0.0000,  0.0000)
   9 Li     0.000000    0.000000   11.617037    ( 0.0000,  0.0000,  0.0000)
  10 Li     3.234074    0.000000   11.617037    ( 0.0000,  0.0000,  0.0000)
  11 Li     6.468148    0.000000   11.617037    ( 0.0000,  0.0000,  0.0000)
  12 Li     0.000000    3.234074   11.617037    ( 0.0000,  0.0000,  0.0000)
  13 Li     3.234074    3.234074   11.617037    ( 0.0000,  0.0000,  0.0000)
  14 Li     6.468148    3.234074   11.617037    ( 0.0000,  0.0000,  0.0000)
  15 Li     0.000000    6.468148   11.617037    ( 0.0000,  0.0000,  0.0000)
  16 Li     3.234074    6.468148   11.617037    ( 0.0000,  0.0000,  0.0000)
  17 Li     6.468148    6.468148   11.617037    ( 0.0000,  0.0000,  0.0000)
  18 Li     1.618987    1.617217   13.466675    ( 0.0000,  0.0000,  0.0000)
  19 Li     4.850976    1.616965   13.471696    ( 0.0000,  0.0000,  0.0000)
  20 Li     8.084424    1.616972   13.464087    ( 0.0000,  0.0000,  0.0000)
  21 Li     1.616238    4.849878   13.472046    ( 0.0000,  0.0000,  0.0000)
  22 Li     4.851366    4.851164   13.471260    ( 0.0000,  0.0000,  0.0000)
  23 Li     8.085518    4.850482   13.471398    ( 0.0000,  0.0000,  0.0000)
  24 Li     1.616077    8.086048   13.471798    ( 0.0000,  0.0000,  0.0000)
  25 Li     4.851465    8.085124   13.470853    ( 0.0000,  0.0000,  0.0000)
  26 Li     8.085574    8.085861   13.471609    ( 0.0000,  0.0000,  0.0000)
  27 Li    -0.000427   -0.005744   15.445250    ( 0.0000,  0.0000,  0.0000)
  28 Li     3.235602   -0.001045   15.444519    ( 0.0000,  0.0000,  0.0000)
  29 Li     6.467016   -0.001414   15.446773    ( 0.0000,  0.0000,  0.0000)
  30 Li    -0.001615    3.236663   15.439583    ( 0.0000,  0.0000,  0.0000)
  31 Li     3.237741    3.235540   15.441804    ( 0.0000,  0.0000,  0.0000)
  32 Li     6.466404    3.235042   15.446190    ( 0.0000,  0.0000,  0.0000)
  33 Li    -0.000211    6.469237   15.442808    ( 0.0000,  0.0000,  0.0000)
  34 Li     3.233688    6.468151   15.445087    ( 0.0000,  0.0000,  0.0000)
  35 Li     6.468912    6.468191   15.445193    ( 0.0000,  0.0000,  0.0000)
  36 O      0.098137    1.602037   18.607249    ( 0.0000,  0.0000,  0.0000)
  37 C      0.838584    2.819310   18.487665    ( 0.0000,  0.0000,  0.0000)
  38 C     -0.001829    4.084573   18.441898    ( 0.0000,  0.0000,  0.0000)
  39 H      1.521501    2.809172   19.325594    ( 0.0000,  0.0000,  0.0000)
  40 H      1.430240    2.727403   17.565206    ( 0.0000,  0.0000,  0.0000)
  41 H      0.650749    4.960243   18.418984    ( 0.0000,  0.0000,  0.0000)
  42 H     -0.653195    4.122157   17.562512    ( 0.0000,  0.0000,  0.0000)
  43 H     -0.634045    4.155484   19.329515    ( 0.0000,  0.0000,  0.0000)
  44 H     -0.611627    1.667193   19.243176    ( 0.0000,  0.0000,  0.0000)
  45 N     -0.043574    1.576755   16.790508    ( 0.0000,  0.0000,  0.0000)
  46 N     -1.169466    1.615187   16.845664    ( 0.0000,  0.0000,  0.0000)

Unit cell:
           periodic     x           y           z      points  spacing
  1. axis:    yes    9.702222    0.000000    0.000000    60     0.1617
  2. axis:    yes    0.000000    9.702222    0.000000    60     0.1617
  3. axis:    no     0.000000    0.000000   26.351111   164     0.1607

  Lengths:   9.702222   9.702222  26.351111
  Angles:   90.000000  90.000000  90.000000

Effective grid spacing dv^(1/3) = 0.1614

     iter     time        total  log10-change:
                         energy  eigst   dens
iter:   1 22:28:29  -305.690203  -0.94
iter:   2 22:28:36  -305.682732  -1.48  -1.93
iter:   3 22:28:43  -305.678186c -2.00  -2.07
iter:   4 22:28:50  -305.677985c -2.22  -2.44
Writing to output.gpw (mode='')

iter:   5 22:28:58  -305.674380c -1.95  -2.49
iter:   6 22:29:05  -305.674544c -2.63  -2.58
iter:   7 22:29:12  -305.674498c -2.55  -2.77
iter:   8 22:29:19  -305.674587c -2.92  -2.72
iter:   9 22:29:26  -305.674876c -2.84  -2.84
Writing to output.gpw (mode='')

iter:  10 22:29:33  -305.674730c -3.24  -2.98
iter:  11 22:29:41  -305.674678c -3.84  -3.19
iter:  12 22:29:48  -305.674798c -3.70  -3.22
iter:  13 22:29:56  -305.674668c -3.61  -3.25
iter:  14 22:30:10  -305.674665c -4.13  -3.53
Writing to output.gpw (mode='')

iter:  15 22:30:27  -305.674683c -4.63  -3.57
iter:  16 22:30:36  -305.674766c -4.36  -3.63
iter:  17 22:30:43  -305.674702c -4.55  -3.68
iter:  18 22:30:50  -305.674724c -4.79  -3.89
iter:  19 22:30:57  -305.674725c -4.82  -4.01c
Writing to output.gpw (mode='')

iter:  20 22:31:04  -305.674733c -5.00  -4.02c
iter:  21 22:31:12  -305.674732c -5.19  -4.11c
iter:  22 22:31:19  -305.674738c -5.22  -4.24c
iter:  23 22:31:26  -305.674738c -5.62  -4.34c
iter:  24 22:31:33  -305.674738c -5.56  -4.35c
Writing to output.gpw (mode='')

iter:  25 22:31:40  -305.674738c -5.35  -4.34c
iter:  26 22:31:48  -305.674738c -5.55  -4.33c
iter:  27 22:31:55  -305.674739c -5.94  -4.37c
iter:  28 22:32:02  -305.674743c -5.91  -4.38c
iter:  29 22:32:09  -305.674744c -6.05  -4.41c
Writing to output.gpw (mode='')

iter:  30 22:32:17  -305.674751c -6.17  -4.46c
iter:  31 22:32:24  -305.674747c -6.43  -4.53c
iter:  32 22:32:31  -305.674743c -6.26  -4.69c
iter:  33 22:32:38  -305.674745c -6.42  -4.85c
iter:  34 22:32:45  -305.674747c -6.28  -4.83c
Writing to output.gpw (mode='')

iter:  35 22:32:52  -305.674744c -6.54  -5.01c
iter:  36 22:33:00  -305.674745c -6.64  -5.13c
iter:  37 22:33:07  -305.674745c -6.89  -5.29c
iter:  38 22:33:18  -305.674745c -6.72  -5.33c
iter:  39 22:33:26  -305.674745c -6.80  -5.36c
Writing to output.gpw (mode='')

iter:  40 22:33:34  -305.674746c -7.00  -5.41c
iter:  41 22:33:41  -305.674746c -7.18  -5.48c
iter:  42 22:33:48  -305.674746c -7.20  -5.48c
iter:  43 22:33:55  -305.674746c -7.08  -5.67c
iter:  44 22:34:02  -305.674746c -7.20  -5.82c
Writing to output.gpw (mode='')

iter:  45 22:34:10  -305.674746c -7.48c -5.84c

Converged after 45 iterations.

Dipole moment: (-13.973378, -3.102599, 0.351900) |e|*Ang

Energy contributions relative to reference atoms: (reference = -14434.854043)

Kinetic:       +168.128028
Potential:     -156.132052
External:        +0.000000
XC:            -318.339017
Entropy (-ST):   -0.163027
Local:           +0.749808
--------------------------
Free energy:   -305.756260
Extrapolated:  -305.674746

Dipole-layer corrected work functions: 3.393119, 2.716647 eV

Showing only first 2 kpts
 Kpt  Band  Eigenvalues  Occupancy
  0    31     -3.30075    1.98547
  0    32     -3.13698    1.67558
  0    33     -2.95044    0.22037
  0    34     -2.81820    0.01744

  1    31     -3.11746    1.55513
  1    32     -3.06458    1.09667
  1    33     -3.00866    0.56809
  1    34     -2.92588    0.14086


Fermi level: -3.05488

Gap: 0.012 eV
Transition (v -> c):
  (s=0, k=2, n=32, [0.12, 0.12, 0.00]) -> (s=0, k=7, n=33, [0.38, 0.38, 0.00])

Forces in eV/Ang:
  0 Li    0.02275    0.00011   -0.28227
  1 Li   -0.01761    0.00186   -0.26817
  2 Li   -0.01060   -0.00108   -0.28062
  3 Li   -0.00121    0.01408   -0.27674
  4 Li    0.00008   -0.00287   -0.27588
  5 Li    0.00638    0.02543   -0.27541
  6 Li   -0.00352   -0.01190   -0.27805
  7 Li    0.00059    0.00171   -0.27828
  8 Li    0.00912   -0.02441   -0.27342
  9 Li   -0.00128    0.01046    0.32457
 10 Li    0.01506    0.00068    0.25198
 11 Li   -0.00515    0.00571    0.28370
 12 Li   -0.00061   -0.01063    0.32969
 13 Li    0.02070   -0.00077    0.24468
 14 Li   -0.00837   -0.00665    0.28457
 15 Li   -0.01108   -0.00009    0.23026
 16 Li   -0.01176   -0.00243    0.25759
 17 Li    0.01345    0.00254    0.25215
 18 Li    0.05381    0.00565   -0.08520
 19 Li   -0.00201   -0.00248    0.05465
 20 Li   -0.02283   -0.00131   -0.15247
 21 Li   -0.02247   -0.03331    0.06220
 22 Li    0.00603    0.00220    0.04169
 23 Li    0.00855   -0.01717    0.04555
 24 Li   -0.02665    0.02224    0.05570
 25 Li    0.00880   -0.00200    0.03171
 26 Li    0.00994    0.01826    0.05038
 27 Li   -0.00355   -0.20690   -0.06582
 28 Li    0.04480   -0.03108   -0.03941
 29 Li   -0.03749   -0.03768    0.02062
 30 Li   -0.04389    0.08891   -0.19221
 31 Li    0.09871    0.04227   -0.11251
 32 Li   -0.04951    0.02392    0.00567
 33 Li   -0.00540    0.02956   -0.08682
 34 Li   -0.00996    0.00049   -0.02386
 35 Li    0.02153    0.00060   -0.02068
 36 O     2.64213   -0.21720    4.86863
 37 C     0.62806    0.44933    1.06132
 38 C     0.00785   -0.06554    0.18740
 39 H     0.46802    0.49966    0.28071
 40 H     0.08605    0.04616    0.46106
 41 H    -0.00210   -0.02146   -0.02608
 42 H    -0.03037    0.08913    0.10072
 43 H    -0.07471    0.06130    0.04164
 44 H    -0.52986    0.25210    0.57629
 45 N    -0.03758   -0.98477   -4.05599
 46 N    -3.17137   -0.02227   -3.02296

System changes: positions 

Initializing position-dependent things.

Density initialized from wave functions
       .-----------------------.  
      /|                       |  
     / |                       |  
    /  |                       |  
   /   |                       |  
  /    |                       |  
 *     |                       |  
 |     |                       |  
 |     |                       |  
 |     |                       |  
 |     |                       |  
 |     |                       |  
 |     |                  H    |  
 |    HH       Li      Li   C  Li 
 |O  C |                 HH    |  
 |    H|     Li      Li      Li|  
 |     |                       |  
 |     |  LLi     LLi  N  NLi  |  
 |     |                       |  
 |     |Li      Li      Li     |  
 |   Li|     Li      Li        |  
 |    Li  Li  Li  Li  Li  Li   |  
 | Li  |   Li      Li          |  
 |     |Li      Li      Li     |  
 Li    | Li      Li            |  
 |    Li      Li      Li       |  
 |     |                       |  
 |     |                       |  
 |     |                       |  
 |     |                       |  
 |     |                       |  
 |     |                       |  
 |     .-----------------------.  
 |    /                       /   
 |   /                       /    
 |  /                       /     
 | /                       /      
 |/                       /       
 *-----------------------*        

Positions:
   0 Li     1.617037    1.617037   10.000000    ( 0.0000,  0.0000,  0.0000)
   1 Li     4.851111    1.617037   10.000000    ( 0.0000,  0.0000,  0.0000)
   2 Li     8.085185    1.617037   10.000000    ( 0.0000,  0.0000,  0.0000)
   3 Li     1.617037    4.851111   10.000000    ( 0.0000,  0.0000,  0.0000)
   4 Li     4.851111    4.851111   10.000000    ( 0.0000,  0.0000,  0.0000)
   5 Li     8.085185    4.851111   10.000000    ( 0.0000,  0.0000,  0.0000)
   6 Li     1.617037    8.085185   10.000000    ( 0.0000,  0.0000,  0.0000)
   7 Li     4.851111    8.085185   10.000000    ( 0.0000,  0.0000,  0.0000)
   8 Li     8.085185    8.085185   10.000000    ( 0.0000,  0.0000,  0.0000)
   9 Li     0.000000    0.000000   11.617037    ( 0.0000,  0.0000,  0.0000)
  10 Li     3.234074    0.000000   11.617037    ( 0.0000,  0.0000,  0.0000)
  11 Li     6.468148    0.000000   11.617037    ( 0.0000,  0.0000,  0.0000)
  12 Li     0.000000    3.234074   11.617037    ( 0.0000,  0.0000,  0.0000)
  13 Li     3.234074    3.234074   11.617037    ( 0.0000,  0.0000,  0.0000)
  14 Li     6.468148    3.234074   11.617037    ( 0.0000,  0.0000,  0.0000)
  15 Li     0.000000    6.468148   11.617037    ( 0.0000,  0.0000,  0.0000)
  16 Li     3.234074    6.468148   11.617037    ( 0.0000,  0.0000,  0.0000)
  17 Li     6.468148    6.468148   11.617037    ( 0.0000,  0.0000,  0.0000)
  18 Li     1.619707    1.617300   13.465446    ( 0.0000,  0.0000,  0.0000)
[...]
iter:  14 05:36:29  -309.939530c -5.30  -4.00
Writing to output.gpw (mode='')

iter:  15 05:36:37  -309.939530c -5.77  -4.20c
iter:  16 05:36:44  -309.939526c -6.00  -4.22c
iter:  17 05:36:51  -309.939525c -6.49  -4.28c
iter:  18 05:36:58  -309.939523c -6.58  -4.34c
iter:  19 05:37:05  -309.939523c -6.62  -4.53c
Writing to output.gpw (mode='')

iter:  20 05:37:16  -309.939523c -7.04  -4.70c
iter:  21 05:37:23  -309.939523c -7.48c -4.77c

Converged after 21 iterations.

Dipole moment: (-16.739090, -2.369597, 0.277938) |e|*Ang

Energy contributions relative to reference atoms: (reference = -14434.854043)

Kinetic:       +148.146398
Potential:     -140.460613
External:        +0.000000
XC:            -318.326330
Entropy (-ST):   -0.160772
Local:           +0.781408
--------------------------
Free energy:   -310.019909
Extrapolated:  -309.939523

Dipole-layer corrected work functions: 3.403876, 2.869584 eV

Showing only first 2 kpts
 Kpt  Band  Eigenvalues  Occupancy
  0    31     -3.34126    1.96709
  0    32     -3.15372    1.16829
  0    33     -3.11832    0.81791
  0    34     -3.02940    0.20930

  1    31     -3.45553    1.99660
  1    32     -3.08877    0.55407
  1    33     -3.01778    0.16958
  1    34     -3.01435    0.15921


Fermi level: -3.13673

No gap
Writing to output.gpw (mode='')


Forces in eV/Ang:
  0 Li   -0.00753   -0.01190   -0.29422
  1 Li    0.00657    0.01109   -0.29500
  2 Li   -0.00061   -0.00166   -0.24936
  3 Li    0.01486    0.01647   -0.28862
  4 Li   -0.00891    0.00718   -0.29163
  5 Li   -0.01240   -0.00623   -0.29399
  6 Li    0.00469   -0.00707   -0.29069
  7 Li   -0.01615   -0.01532   -0.28628
  8 Li    0.01089    0.00775   -0.29473
  9 Li   -0.03183    0.02019    0.29906
 10 Li    0.02016    0.00791    0.27505
 11 Li    0.04085    0.02860    0.25095
 12 Li   -0.03224   -0.04193    0.27136
 13 Li   -0.00165   -0.02591    0.29382
 14 Li    0.02744   -0.03937    0.31413
 15 Li   -0.01733    0.00345    0.28521
 16 Li    0.01011    0.00978    0.28609
 17 Li    0.02433    0.02823    0.27531
 18 Li   -0.00115   -0.00384    0.00769
 19 Li    0.00289    0.00218   -0.00531
 20 Li    0.00293   -0.00688   -0.00873
 21 Li    0.00140    0.00120   -0.00034
 22 Li   -0.00438    0.00298    0.00319
 23 Li   -0.00497   -0.00529    0.00568
 24 Li   -0.00711    0.00815    0.00223
 25 Li   -0.00453    0.00051   -0.00649
 26 Li    0.00408    0.00419    0.01052
 27 Li   -0.00129    0.00650   -0.00517
 28 Li    0.01047   -0.00062   -0.00002
 29 Li    0.02148    0.01030    0.00058
 30 Li    0.00604    0.01550   -0.00120
 31 Li   -0.00084   -0.00227    0.00278
 32 Li    0.01409   -0.00938    0.00099
 33 Li    0.00230   -0.00489    0.00306
 34 Li    0.00520    0.00066   -0.00239
 35 Li   -0.00178    0.00966   -0.00700
 36 O    -0.04651   -0.00333    0.02612
 37 C    -0.00808   -0.01322    0.01654
 38 C    -0.00359    0.02099    0.01562
 39 H     0.00948    0.00728   -0.00823
 40 H    -0.01279    0.00040    0.00479
 41 H     0.02374    0.00856    0.01309
 42 H     0.01514   -0.02053    0.01356
 43 H    -0.00822   -0.00847    0.02283
 44 H     0.04939    0.00868   -0.07346
 45 N    -0.02368   -0.00663    0.01455
 46 N     0.03191    0.00103    0.00038

System changes: positions 

Initializing position-dependent things.

Density initialized from wave functions
       .-----------------------.  
      /|                       |  
     / |                       |  
    /  |                       |  
   /   |                       |  
  /    |                       |  
 *     |                       |  
 |     |                       |  
 |     |                       |  
 |     |                       |  
 |     |                       |  
 |     |                  H    |  
 |    HH                       |  
 |  CC Li      Li        H     |  
 | O   H                  H    |  
 |   Li|     Li      Li        |  
 |     |                       |  
 |     |  LLi     LLi     Li   |  
 |     |             N N       |  
 |     |Li      LiLi    Li     |  
 |   Li|     Li      Li        |  
 |    Li  Li  Li  Li  Li  Li   |  
 | Li  |   Li      Li          |  
 |     |Li      Li      Li     |  
 Li    | Li      Li            |  
 |    Li      Li      Li       |  
 |     |                       |  
 |     |                       |  
 |     |                       |  
 |     |                       |  
 |     |                       |  
 |     |                       |  
 |     .-----------------------.  
 |    /                       /   
 |   /                       /    
 |  /                       /     
 | /                       /      
 |/                       /       
 *-----------------------*        

Positions:
   0 Li     1.617037    1.617037   10.000000    ( 0.0000,  0.0000,  0.0000)
   1 Li     4.851111    1.617037   10.000000    ( 0.0000,  0.0000,  0.0000)
   2 Li     8.085185    1.617037   10.000000    ( 0.0000,  0.0000,  0.0000)
   3 Li     1.617037    4.851111   10.000000    ( 0.0000,  0.0000,  0.0000)
   4 Li     4.851111    4.851111   10.000000    ( 0.0000,  0.0000,  0.0000)
   5 Li     8.085185    4.851111   10.000000    ( 0.0000,  0.0000,  0.0000)
   6 Li     1.617037    8.085185   10.000000    ( 0.0000,  0.0000,  0.0000)
   7 Li     4.851111    8.085185   10.000000    ( 0.0000,  0.0000,  0.0000)
   8 Li     8.085185    8.085185   10.000000    ( 0.0000,  0.0000,  0.0000)
   9 Li     0.000000    0.000000   11.617037    ( 0.0000,  0.0000,  0.0000)
  10 Li     3.234074    0.000000   11.617037    ( 0.0000,  0.0000,  0.0000)
  11 Li     6.468148    0.000000   11.617037    ( 0.0000,  0.0000,  0.0000)
  12 Li     0.000000    3.234074   11.617037    ( 0.0000,  0.0000,  0.0000)
  13 Li     3.234074    3.234074   11.617037    ( 0.0000,  0.0000,  0.0000)
  14 Li     6.468148    3.234074   11.617037    ( 0.0000,  0.0000,  0.0000)
  15 Li     0.000000    6.468148   11.617037    ( 0.0000,  0.0000,  0.0000)
  16 Li     3.234074    6.468148   11.617037    ( 0.0000,  0.0000,  0.0000)
  17 Li     6.468148    6.468148   11.617037    ( 0.0000,  0.0000,  0.0000)
  18 Li     1.609629    1.553694   13.489281    ( 0.0000,  0.0000,  0.0000)
  19 Li     4.875937    1.639190   13.490713    ( 0.0000,  0.0000,  0.0000)
  20 Li     8.083996    1.605442   13.556839    ( 0.0000,  0.0000,  0.0000)
  21 Li     1.554911    4.786675   13.467083    ( 0.0000,  0.0000,  0.0000)
  22 Li     4.834985    4.896358   13.466504    ( 0.0000,  0.0000,  0.0000)
  23 Li     8.045265    4.844416   13.479648    ( 0.0000,  0.0000,  0.0000)
  24 Li     1.665328    8.054022   13.484309    ( 0.0000,  0.0000,  0.0000)
  25 Li     4.929892    8.155108   13.497338    ( 0.0000,  0.0000,  0.0000)
  26 Li     8.129294    8.108587   13.505008    ( 0.0000,  0.0000,  0.0000)
  27 Li     0.154871   -0.133785   15.572541    ( 0.0000,  0.0000,  0.0000)
  28 Li     3.394791   -0.049338   15.436796    ( 0.0000,  0.0000,  0.0000)
  29 Li     6.739019    0.252325   15.603020    ( 0.0000,  0.0000,  0.0000)
  30 Li    -0.208562    2.975851   15.497800    ( 0.0000,  0.0000,  0.0000)
  31 Li     3.149659    3.285810   15.342433    ( 0.0000,  0.0000,  0.0000)
  32 Li     6.366303    3.344410   15.462006    ( 0.0000,  0.0000,  0.0000)
  33 Li     0.046667    6.346543   15.371088    ( 0.0000,  0.0000,  0.0000)
  34 Li     3.225445    6.460701   15.420842    ( 0.0000,  0.0000,  0.0000)
  35 Li     6.418004    6.600817   15.433292    ( 0.0000,  0.0000,  0.0000)
  36 O      0.207903    1.612460   18.998544    ( 0.0000,  0.0000,  0.0000)
  37 C      0.927705    2.853882   18.917439    ( 0.0000,  0.0000,  0.0000)
  38 C      0.020476    4.071712   18.796198    ( 0.0000,  0.0000,  0.0000)
  39 H      1.599597    2.965624   19.779067    ( 0.0000,  0.0000,  0.0000)
  40 H      1.555614    2.753708   18.026696    ( 0.0000,  0.0000,  0.0000)
  41 H      0.617373    4.976106   18.649547    ( 0.0000,  0.0000,  0.0000)
  42 H     -0.666929    3.977387   17.950794    ( 0.0000,  0.0000,  0.0000)
  43 H     -0.579090    4.210569   19.699670    ( 0.0000,  0.0000,  0.0000)
  44 H     -0.339829    1.634172   19.792499    ( 0.0000,  0.0000,  0.0000)
  45 N     -1.136224    1.172409   15.584882    ( 0.0000,  0.0000,  0.0000)
  46 N     -2.023905    2.060018   15.584965    ( 0.0000,  0.0000,  0.0000)

Unit cell:
           periodic     x           y           z      points  spacing
  1. axis:    yes    9.702222    0.000000    0.000000    60     0.1617
  2. axis:    yes    0.000000    9.702222    0.000000    60     0.1617
  3. axis:    no     0.000000    0.000000   26.351111   164     0.1607

  Lengths:   9.702222   9.702222  26.351111
  Angles:   90.000000  90.000000  90.000000

Effective grid spacing dv^(1/3) = 0.1614

     iter     time        total  log10-change:
                         energy  eigst   dens
iter:   1 05:37:32  -309.940051  -2.57
iter:   2 05:37:39  -309.940076  -3.41  -3.07
iter:   3 05:37:46  -309.940075c -3.95  -3.11
iter:   4 05:37:53  -309.940005c -4.34  -3.14
Writing to output.gpw (mode='')

iter:   5 05:38:00  -309.939897c -3.68  -3.24
iter:   6 05:38:08  -309.939897c -3.92  -3.44
iter:   7 05:38:20  -309.939914c -4.26  -3.52
iter:   8 05:38:28  -309.939906c -5.09  -3.60
iter:   9 05:38:35  -309.939898c -4.70  -3.73
Writing to output.gpw (mode='')

iter:  10 05:38:42  -309.939894c -5.12  -3.82
iter:  11 05:38:49  -309.939895c -5.57  -4.04c
iter:  12 05:38:56  -309.939891c -5.62  -4.11c
iter:  13 05:39:03  -309.939893c -5.81  -4.24c
iter:  14 05:39:11  -309.939892c -6.41  -4.35c
Writing to output.gpw (mode='')

iter:  15 05:39:18  -309.939891c -6.58  -4.42c
iter:  16 05:39:25  -309.939891c -6.85  -4.63c
iter:  17 05:39:32  -309.939891c -7.09  -4.67c
iter:  18 05:39:39  -309.939891c -7.26  -4.85c
iter:  19 05:39:46  -309.939891c -7.64c -4.94c

Converged after 19 iterations.

Dipole moment: (-16.712758, -2.390184, 0.279155) |e|*Ang

Energy contributions relative to reference atoms: (reference = -14434.854043)

Kinetic:       +148.255858
Potential:     -140.541117
External:        +0.000000
XC:            -318.355937
Entropy (-ST):   -0.160771
Local:           +0.781690
--------------------------
Free energy:   -310.020276
Extrapolated:  -309.939891

Dipole-layer corrected work functions: 3.403917, 2.867285 eV

Showing only first 2 kpts
 Kpt  Band  Eigenvalues  Occupancy
  0    31     -3.34027    1.96718
  0    32     -3.15263    1.16865
  0    33     -3.11737    0.81967
  0    34     -3.02835    0.20959

  1    31     -3.45450    1.99661
  1    32     -3.08728    0.55123
  1    33     -3.01667    0.16965
  1    34     -3.01323    0.15927


Fermi level: -3.13560

No gap
Writing to output.gpw (mode='')


Forces in eV/Ang:
  0 Li   -0.00765   -0.01182   -0.29416
  1 Li    0.00642    0.01099   -0.29495
  2 Li   -0.00064   -0.00166   -0.24943
  3 Li    0.01477    0.01648   -0.28846
  4 Li   -0.00892    0.00719   -0.29164
  5 Li   -0.01221   -0.00607   -0.29399
  6 Li    0.00464   -0.00711   -0.29079
  7 Li   -0.01615   -0.01537   -0.28615
  8 Li    0.01090    0.00776   -0.29471
  9 Li   -0.03119    0.01974    0.29931
 10 Li    0.02099    0.00785    0.27448
 11 Li    0.04128    0.02872    0.25093
 12 Li   -0.03247   -0.04237    0.27104
 13 Li   -0.00126   -0.02542    0.29310
 14 Li    0.02802   -0.03940    0.31457
 15 Li   -0.01726    0.00307    0.28510
 16 Li    0.00997    0.00971    0.28558
 17 Li    0.02419    0.02814    0.27540
 18 Li   -0.00287   -0.00388    0.00867
 19 Li    0.00245    0.00143   -0.00494
 20 Li    0.00202   -0.00503   -0.00948
 21 Li    0.00215    0.00186   -0.00016
 22 Li   -0.00329    0.00211    0.00387
 23 Li   -0.00486   -0.00533    0.00585
 24 Li   -0.00796    0.00869    0.00268
 25 Li   -0.00480    0.00006   -0.00633
 26 Li    0.00386    0.00475    0.01060
 27 Li    0.00190    0.00248   -0.00438
 28 Li    0.00984   -0.00063   -0.00005
 29 Li    0.01797    0.00498   -0.00003
 30 Li    0.00337    0.01295   -0.00313
 31 Li    0.00044   -0.00203    0.00270
 32 Li    0.00633   -0.00163    0.00119
 33 Li    0.00185   -0.00419    0.00358
 34 Li    0.00505    0.00098   -0.00257
 35 Li   -0.00149    0.00865   -0.00710
 36 O     0.01669    0.01036   -0.03477
 37 C    -0.00416   -0.00199    0.01246
 38 C     0.01233    0.00820    0.01721
 39 H    -0.00154   -0.01050   -0.01203
 40 H    -0.01686    0.00094    0.00857
 41 H     0.02137    0.01211    0.00631
 42 H     0.00652   -0.00967    0.01262
 43 H    -0.01781   -0.01323    0.02720
 44 H    -0.00383    0.00233    0.00016
 45 N    -0.01240   -0.00718    0.01110
 46 N     0.03581    0.00724    0.00030

Timing:                                      incl.     excl.
-------------------------------------------------------------------
Density initialized from wave functions:     7.392     7.390   0.0% |
 Symmetrize density:                         0.002     0.002   0.0% |
Forces:                                     43.941    43.941   0.2% |
Hamiltonian:                               653.850     0.015   0.0% |
 Atomic:                                     0.026     0.025   0.0% |
  XC Correction:                             0.000     0.000   0.0% |
 Calculate atomic Hamiltonians:              0.043     0.043   0.0% |
 Communicate:                                8.818     8.818   0.0% |
 Hartree integrate/restrict:                 2.380     2.380   0.0% |
 Initialize Hamiltonian:                     0.000     0.000   0.0% |
 Poisson:                                   30.414    11.150   0.0% |
  Communicate from 1D:                       3.039     3.039   0.0% |
  Communicate from 2D:                       3.031     3.031   0.0% |
  Communicate to 1D:                         1.666     1.666   0.0% |
  Communicate to 2D:                         3.521     3.521   0.0% |
  FFT 1D:                                    4.057     4.057   0.0% |
  FFT 2D:                                    3.950     3.950   0.0% |
 XC 3D grid:                               611.652    93.754   0.3% |
  VdW-DF integral:                         517.899     4.341   0.0% |
   Convolution:                             46.755    46.755   0.2% |
   FFT:                                     20.293    20.293   0.1% |
   gather:                                 186.977   186.977   0.7% |
   hmm1:                                    16.487    16.487   0.1% |
   hmm2:                                    21.939    21.939   0.1% |
   iFFT:                                    20.966    20.966   0.1% |
   potential:                              196.553     5.813   0.0% |
    collect:                                30.469    30.469   0.1% |
    p1:                                     90.293    90.293   0.3% |
    p2:                                     33.554    33.554   0.1% |
    sum:                                    36.424    36.424   0.1% |
   splines:                                  3.586     3.586   0.0% |
 vbar:                                       0.502     0.502   0.0% |
LCAO initialization:                         1.109     0.184   0.0% |
 LCAO eigensolver:                           0.260     0.000   0.0% |
  Calculate projections:                     0.000     0.000   0.0% |
  DenseAtomicCorrection:                     0.000     0.000   0.0% |
  Distribute overlap matrix:                 0.193     0.193   0.0% |
  Orbital Layouts:                           0.064     0.064   0.0% |
  Potential matrix:                          0.001     0.001   0.0% |
  Sum over cells:                            0.001     0.001   0.0% |
 LCAO to grid:                               0.551     0.551   0.0% |
 Set positions (LCAO WFS):                   0.115     0.070   0.0% |
  Basic WFS set positions:                   0.001     0.001   0.0% |
  Basis functions set positions:             0.000     0.000   0.0% |
  P tci:                                     0.000     0.000   0.0% |
  ST tci:                                    0.013     0.013   0.0% |
  mktci:                                     0.030     0.030   0.0% |
Redistribute:                                0.073     0.073   0.0% |
SCF-cycle:                               27482.671   496.585   1.8% ||
 Davidson:                                6842.912  2027.815   7.2% |--|
  Apply hamiltonian:                       435.858   435.858   1.5% ||
  Subspace diag:                          1294.913     0.439   0.0% |
   calc_h_matrix:                          633.068   191.593   0.7% |
    Apply hamiltonian:                     441.475   441.475   1.6% ||
   diagonalize:                             75.184    75.184   0.3% |
   rotate_psi:                             586.222   586.222   2.1% ||
  calc. matrices:                         2125.531  1096.841   3.9% |-|
   Apply hamiltonian:                     1028.691  1028.691   3.6% ||
  diagonalize:                              18.748    18.748   0.1% |
  rotate_psi:                              940.046   940.046   3.3% ||
 Density:                                  137.167     0.109   0.0% |
  Atomic density matrices:                  15.787    15.787   0.1% |
  Mix:                                      58.273    58.273   0.2% |
  Multipole moments:                         9.383     9.383   0.0% |
  Pseudo density:                           53.614    53.524   0.2% |
   Symmetrize density:                       0.090     0.090   0.0% |
 Hamiltonian:                            19985.264     0.474   0.0% |
  Atomic:                                    0.884     0.873   0.0% |
   XC Correction:                            0.011     0.011   0.0% |
  Calculate atomic Hamiltonians:             1.361     1.361   0.0% |
  Communicate:                             294.359   294.359   1.0% |
  Hartree integrate/restrict:               71.930    71.930   0.3% |
  Poisson:                                 950.689   353.051   1.2% |
   Communicate from 1D:                     91.799    91.799   0.3% |
   Communicate from 2D:                     95.137    95.137   0.3% |
   Communicate to 1D:                       53.163    53.163   0.2% |
   Communicate to 2D:                      111.307   111.307   0.4% |
   FFT 1D:                                 125.190   125.190   0.4% |
   FFT 2D:                                 121.042   121.042   0.4% |
  XC 3D grid:                            18649.556  2862.953  10.1% |---|
   VdW-DF integral:                      15786.603   133.407   0.5% |
    Convolution:                          1438.531  1438.531   5.1% |-|
    FFT:                                   623.548   623.548   2.2% ||
    gather:                               5560.635  5560.635  19.6% |-------|
    hmm1:                                  502.050   502.050   1.8% ||
    hmm2:                                  672.270   672.270   2.4% ||
    iFFT:                                  645.133   645.133   2.3% ||
    potential:                            6210.996   177.792   0.6% |
     collect:                              961.213   961.213   3.4% ||
     p1:                                  2776.226  2776.226   9.8% |---|
     p2:                                  1032.218  1032.218   3.6% ||
     sum:                                 1263.548  1263.548   4.5% |-|
    splines:                                 0.035     0.035   0.0% |
  vbar:                                     16.010    16.010   0.1% |
 Orthonormalize:                            20.743     0.016   0.0% |
  calc_s_matrix:                             2.888     2.888   0.0% |
  inverse-cholesky:                          6.564     6.564   0.0% |
  projections:                               0.003     0.003   0.0% |
  rotate_psi_s:                             11.273    11.273   0.0% |
Set symmetry:                                0.020     0.020   0.0% |
Other:                                     119.604   119.604   0.4% |
-------------------------------------------------------------------
Total:                                             28308.660 100.0%

Memory usage: 1.11 GiB
Date: Thu Mar  9 05:39:48 2023
