
  ___ ___ ___ _ _ _  
 |   |   |_  | | | | 
 | | | | | . | | | | 
 |__ |  _|___|_____|  22.8.0
 |___|_|             

User:   vazumah@r217.ib.bridges2.psc.edu
Date:   Fri Mar 10 21:51:26 2023
Arch:   x86_64
Pid:    62172
CWD:    /jet/home/vazumah/Calcs/LiMEAS/proton_donors/propanediol13_x/bridge/0.0_1.617/N2_z
Python: 3.11.0
gpaw:   /jet/home/vazumah/.conda/envs/GPAW_mpich/lib/python3.11/site-packages/gpaw
_gpaw:  /jet/home/vazumah/.conda/envs/GPAW_mpich/lib/python3.11/site-packages/
        _gpaw.cpython-311-x86_64-linux-gnu.so
ase:    /jet/home/vazumah/.conda/envs/GPAW_mpich/lib/python3.11/site-packages/ase (version 3.22.1)
numpy:  /jet/home/vazumah/.conda/envs/GPAW_mpich/lib/python3.11/site-packages/numpy (version 1.24.2)
scipy:  /jet/home/vazumah/.conda/envs/GPAW_mpich/lib/python3.11/site-packages/scipy (version 1.10.1)
libxc:  5.2.3
units:  Angstrom and eV
cores: 128
OpenMP: True
OMP_NUM_THREADS: 1

Input parameters:
  h: 0.16
  kpts: {size: [4, 4, 1]}
  occupations: {name: fermi-dirac,
                width: 0.05}
  poissonsolver: {dipolelayer: xy}
  xc: BEEF-vdW

System changes: positions, numbers, cell, pbc, initial_charges, initial_magmoms 

Initialize ...

species:
  Li:
    name: Lithium
    id: 830b4218f175192f93f959cfc0aad614
    Z: 3.0
    valence: 1
    core: 2
    charge: 0.0
    file: /jet/home/vazumah/datasets/gpaw-setups-0.9.20000/Li.PBE.gz
    compensation charges: {type: gauss,
                           rc: 0.33,
                           lmax: 2}
    cutoffs: {filter: 1.91,
              core: 2.55}
    valence states:
      #              energy  rcut
      - 2s(1.00)    -2.874   1.058
      - 2p(0.00)    -1.090   1.058
      -  s          24.337   1.058
  
    # Using partial waves for Li as LCAO basis

  O:
    name: Oxygen
    id: 32ecd46bf208036f09c70b0ec9a88b78
    Z: 8.0
    valence: 6
    core: 2
    charge: 0.0
    file: /jet/home/vazumah/datasets/gpaw-setups-0.9.20000/O.PBE.gz
    compensation charges: {type: gauss,
                           rc: 0.21,
                           lmax: 2}
    cutoffs: {filter: 1.17,
              core: 0.83}
    valence states:
      #              energy  rcut
      - 2s(2.00)   -23.961   0.688
      - 2p(4.00)    -9.029   0.598
      -  s           3.251   0.688
      -  p          18.182   0.598
      -  d           0.000   0.619
  
    # Using partial waves for O as LCAO basis

  C:
    name: Carbon
    id: 4aa54d4b901d75f77cc0ea3eec22967b
    Z: 6.0
    valence: 4
    core: 2
    charge: 0.0
    file: /jet/home/vazumah/datasets/gpaw-setups-0.9.20000/C.PBE.gz
    compensation charges: {type: gauss,
                           rc: 0.20,
                           lmax: 2}
    cutoffs: {filter: 1.14,
              core: 1.14}
    valence states:
      #              energy  rcut
      - 2s(2.00)   -13.751   0.635
      - 2p(2.00)    -5.284   0.635
      -  s          13.461   0.635
      -  p          21.927   0.635
      -  d           0.000   0.635
  
    # Using partial waves for C as LCAO basis

  H:
    name: Hydrogen
    id: d65de229564ff8ea4db303e23b6d1ecf
    Z: 1.0
    valence: 1
    core: 0
    charge: 0.0
    file: /jet/home/vazumah/datasets/gpaw-setups-0.9.20000/H.PBE.gz
    compensation charges: {type: gauss,
                           rc: 0.15,
                           lmax: 2}
    cutoffs: {filter: 0.85,
              core: 0.53}
    valence states:
      #              energy  rcut
      - 1s(1.00)    -6.494   0.476
      -  s          20.717   0.476
      -  p           0.000   0.476
  
    # Using partial waves for H as LCAO basis

  N:
    name: Nitrogen
    id: f7500608b86eaa90eef8b1d9a670dc53
    Z: 7.0
    valence: 5
    core: 2
    charge: 0.0
    file: /jet/home/vazumah/datasets/gpaw-setups-0.9.20000/N.PBE.gz
    compensation charges: {type: gauss,
                           rc: 0.18,
                           lmax: 2}
    cutoffs: {filter: 1.11,
              core: 0.96}
    valence states:
      #              energy  rcut
      - 2s(2.00)   -18.583   0.603
      - 2p(3.00)    -7.089   0.529
      -  s           8.629   0.603
      -  p          20.123   0.529
      -  d           0.000   0.577
  
    # Using partial waves for N as LCAO basis

Reference energy: -17528.314784  # eV

Spin-paired calculation

Convergence criteria:
 Maximum [total energy] change in last 3 cyles: 0.0005 eV / electron
 Maximum integral of absolute [dens]ity change: 0.0001 electrons / valence electron
 Maximum integral of absolute [eigenst]ate change: 4e-08 eV^2 / valence electron
 Maximum number of scf [iter]ations: 333
 (Square brackets indicate name in SCF output, whereas a 'c' in
 the SCF output indicates the quantity has converged.)

Symmetries present (total): 1

  ( 1  0  0)
  ( 0  1  0)
  ( 0  0  1)

16 k-points: 4 x 4 x 1 Monkhorst-Pack grid
8 k-points in the irreducible part of the Brillouin zone
       k-points in crystal coordinates                weights
   0:     0.12500000   -0.37500000    0.00000000          2/16
   1:     0.12500000   -0.12500000    0.00000000          2/16
   2:     0.12500000    0.12500000    0.00000000          2/16
   3:     0.12500000    0.37500000    0.00000000          2/16
   4:     0.37500000   -0.37500000    0.00000000          2/16
   5:     0.37500000   -0.12500000    0.00000000          2/16
   6:     0.37500000    0.12500000    0.00000000          2/16
   7:     0.37500000    0.37500000    0.00000000          2/16

Wave functions: Uniform real-space grid
  Kinetic energy operator: 6*3+1=19 point O(h^6) finite-difference Laplacian
  ScaLapack parameters: grid=1x1, blocksize=None
  Wavefunction extrapolation:
    Improved wavefunction reuse through dual PAW basis 

Occupation numbers: Fermi-Dirac:
  width: 0.0500  # eV
 

Eigensolver
   Davidson(niter=2) 

Densities:
  Coarse grid: 60*60*180 grid
  Fine grid: 120*120*360 grid
  Total Charge: 0.000000 

Density mixing:
  Method: separate
  Backend: pulay
  Linear mixing parameter: 0.05
  old densities: 5
  Damping of long wavelength oscillations: 50 

Hamiltonian:
  XC and Coulomb potentials evaluated on a 120*120*360 grid
  Using the BEEF-vdW Exchange-Correlation functional
  Interpolation: tri-quintic (5. degree polynomial)
  Poisson solver: FastPoissonSolver using
    Stencil: 6*3+1=19 point O(h^6) finite-difference Laplacian
    FFT axes: [0, 1]
    FST axes: [2]

Dipole correction along z-axis 

XC parameters: BEEF-vdW with 2 nearest neighbor stencil

Memory estimate:
  Process memory now: 130.31 MiB
  Calculator: 95.77 MiB
    Density: 23.82 MiB
      Arrays: 7.94 MiB
      Localized functions: 12.86 MiB
      Mixer: 3.02 MiB
    Hamiltonian: 6.21 MiB
      Arrays: 5.19 MiB
      XC: 0.00 MiB
      Poisson: 0.00 MiB
      vbar: 1.02 MiB
    Wavefunctions: 65.74 MiB
      Arrays psit_nG: 30.82 MiB
      Eigensolver: 34.24 MiB
      Projections: 0.02 MiB
      Projectors: 0.67 MiB

Total number of cores used: 128
Parallelization over k-points: 8
Domain decomposition: 2 x 2 x 4

Number of atoms: 51
Number of atomic orbitals: 180
Number of bands in calculation: 51
Number of valence electrons: 78
Bands to converge: occupied

... initialized

Initializing position-dependent things.

Density initialized from atomic densities
Creating initial wave functions:
  51 bands from LCAO basis set

       .-----------------------.  
      /|                       |  
     / |                       |  
    /  |                       |  
   /   |                       |  
  /    |                       |  
 *     |                       |  
 |     |                       |  
 |     |                       |  
 |     |                       |  
 |     |                       |  
 |     |                       |  
 |     |                       |  
 |     |                       |  
 |     |H                      |  
 |     |                       |  
 |O H  |C HC  O         H      |  
 |     |H     H                |  
 |N HLi|  H  Li      Li        |  
 |N    |                       |  
 | Li  |  LLi     LLi     Li   |  
 |     |                       |  
 Li    |LLi     LLi     Li     |  
 |   Li|     Li      Li        |  
 |    Li  Li  Li  Li  Li  Li   |  
 | Li  |   Li      Li          |  
 |     |Li      Li      Li     |  
 Li    | Li      Li            |  
 |    Li      Li      Li       |  
 |     |                       |  
 |     |                       |  
 |     |                       |  
 |     |                       |  
 |     |                       |  
 |     |                       |  
 |     .-----------------------.  
 |    /                       /   
 |   /                       /    
 |  /                       /     
 | /                       /      
 |/                       /       
 *-----------------------*        

Positions:
   0 Li     1.617037    1.617037   10.000000    ( 0.0000,  0.0000,  0.0000)
   1 Li     4.851111    1.617037   10.000000    ( 0.0000,  0.0000,  0.0000)
   2 Li     8.085185    1.617037   10.000000    ( 0.0000,  0.0000,  0.0000)
   3 Li     1.617037    4.851111   10.000000    ( 0.0000,  0.0000,  0.0000)
   4 Li     4.851111    4.851111   10.000000    ( 0.0000,  0.0000,  0.0000)
   5 Li     8.085185    4.851111   10.000000    ( 0.0000,  0.0000,  0.0000)
   6 Li     1.617037    8.085185   10.000000    ( 0.0000,  0.0000,  0.0000)
   7 Li     4.851111    8.085185   10.000000    ( 0.0000,  0.0000,  0.0000)
   8 Li     8.085185    8.085185   10.000000    ( 0.0000,  0.0000,  0.0000)
   9 Li     0.000000    0.000000   11.617037    ( 0.0000,  0.0000,  0.0000)
  10 Li     3.234074    0.000000   11.617037    ( 0.0000,  0.0000,  0.0000)
  11 Li     6.468148    0.000000   11.617037    ( 0.0000,  0.0000,  0.0000)
  12 Li     0.000000    3.234074   11.617037    ( 0.0000,  0.0000,  0.0000)
  13 Li     3.234074    3.234074   11.617037    ( 0.0000,  0.0000,  0.0000)
  14 Li     6.468148    3.234074   11.617037    ( 0.0000,  0.0000,  0.0000)
  15 Li     0.000000    6.468148   11.617037    ( 0.0000,  0.0000,  0.0000)
  16 Li     3.234074    6.468148   11.617037    ( 0.0000,  0.0000,  0.0000)
  17 Li     6.468148    6.468148   11.617037    ( 0.0000,  0.0000,  0.0000)
  18 Li     1.617038    1.617038   13.469728    ( 0.0000,  0.0000,  0.0000)
  19 Li     4.851111    1.617038   13.469729    ( 0.0000,  0.0000,  0.0000)
  20 Li     8.085184    1.617038   13.469728    ( 0.0000,  0.0000,  0.0000)
  21 Li     1.617038    4.851111   13.469729    ( 0.0000,  0.0000,  0.0000)
  22 Li     4.851111    4.851111   13.469730    ( 0.0000,  0.0000,  0.0000)
  23 Li     8.085184    4.851111   13.469729    ( 0.0000,  0.0000,  0.0000)
  24 Li     1.617038    8.085184   13.469728    ( 0.0000,  0.0000,  0.0000)
  25 Li     4.851111    8.085184   13.469729    ( 0.0000,  0.0000,  0.0000)
  26 Li     8.085184    8.085184   13.469728    ( 0.0000,  0.0000,  0.0000)
  27 Li    -0.000000   -0.000000   15.445939    ( 0.0000,  0.0000,  0.0000)
  28 Li     3.234074    0.000000   15.445939    ( 0.0000,  0.0000,  0.0000)
  29 Li     6.468148    0.000000   15.445939    ( 0.0000,  0.0000,  0.0000)
  30 Li     0.000000    3.234074   15.445939    ( 0.0000,  0.0000,  0.0000)
  31 Li     3.234076    3.234076   15.445938    ( 0.0000,  0.0000,  0.0000)
  32 Li     6.468146    3.234076   15.445938    ( 0.0000,  0.0000,  0.0000)
  33 Li     0.000000    6.468148   15.445939    ( 0.0000,  0.0000,  0.0000)
  34 Li     3.234076    6.468146   15.445938    ( 0.0000,  0.0000,  0.0000)
  35 Li     6.468146    6.468146   15.445938    ( 0.0000,  0.0000,  0.0000)
  36 O      0.000000    1.617037   19.645939    ( 0.0000,  0.0000,  0.0000)
  37 O      4.862342    1.596708   19.639829    ( 0.0000,  0.0000,  0.0000)
  38 C      2.395915    1.615492   19.660386    ( 0.0000,  0.0000,  0.0000)
  39 C      1.144870    0.749217   19.648818    ( 0.0000,  0.0000,  0.0000)
  40 C      3.678531    0.785225   19.636457    ( 0.0000,  0.0000,  0.0000)
  41 H      2.373832    2.275999   18.785726    ( 0.0000,  0.0000,  0.0000)
  42 H      2.395773    2.252603   20.548391    ( 0.0000,  0.0000,  0.0000)
  43 H      1.139940    0.108959   18.755271    ( 0.0000,  0.0000,  0.0000)
  44 H      1.131328    0.100540   20.535503    ( 0.0000,  0.0000,  0.0000)
  45 H      3.679232    0.109659   18.769134    ( 0.0000,  0.0000,  0.0000)
  46 H      3.755380    0.169134   20.536560    ( 0.0000,  0.0000,  0.0000)
  47 H     -0.795525    1.072680   19.641073    ( 0.0000,  0.0000,  0.0000)
  48 H      4.829759    2.171748   18.865312    ( 0.0000,  0.0000,  0.0000)
  49 N      0.000000    1.617000   17.195939    ( 0.0000,  0.0000,  0.0000)
  50 N      0.000000    1.617000   18.292561    ( 0.0000,  0.0000,  0.0000)

Unit cell:
           periodic     x           y           z      points  spacing
  1. axis:    yes    9.702222    0.000000    0.000000    60     0.1617
  2. axis:    yes    0.000000    9.702222    0.000000    60     0.1617
  3. axis:    no     0.000000    0.000000   28.601111   180     0.1589

  Lengths:   9.702222   9.702222  28.601111
  Angles:   90.000000  90.000000  90.000000

Effective grid spacing dv^(1/3) = 0.1608

     iter     time        total  log10-change:
                         energy  eigst   dens
iter:   1 21:51:41  -797.897843
iter:   2 21:51:49   118.707928  +2.71  +0.05
iter:   3 21:51:58   177.076153  +3.37  -0.11
iter:   4 21:52:06  -220.257504  +3.38  -0.19
Writing to output.gpw (mode='')

iter:   5 21:52:14  -288.277061  +2.98  -0.19
iter:   6 21:52:22  -344.754367  +2.64  -0.43
iter:   7 21:52:30  -368.796912  +2.25  -0.52
iter:   8 21:52:38  -397.111342  +1.95  -0.53
iter:   9 21:52:46  -417.162321  +1.85  -0.45
Writing to output.gpw (mode='')

iter:  10 21:52:54  -448.538518  +1.92  -0.45
iter:  11 21:53:03  -399.147605  +1.75  -0.40
iter:  12 21:53:10  -398.093148  +1.38  -0.56
iter:  13 21:53:19  -349.539858  +1.22  -0.55
iter:  14 21:53:27  -347.900879  +0.91  -0.70
Writing to output.gpw (mode='')

iter:  15 21:53:35  -349.278125  +1.34  -0.72
iter:  16 21:53:43  -354.100990  +1.21  -0.69
iter:  17 21:53:51  -349.879936  +0.91  -0.64
iter:  18 21:53:59  -346.518993  +0.42  -0.68
iter:  19 21:54:07  -344.073013  +0.46  -0.75
Writing to output.gpw (mode='')

iter:  20 21:54:15  -342.148027  +0.42  -0.83
iter:  21 21:54:27  -343.711901  +0.75  -1.00
iter:  22 21:54:37  -341.798443  -0.04  -0.97
iter:  23 21:54:45  -341.592415  +0.07  -1.18
iter:  24 21:54:53  -341.625626  +0.00  -1.24
Writing to output.gpw (mode='')

iter:  25 21:55:01  -341.323307  -0.51  -1.33
iter:  26 21:55:09  -341.385054  -0.61  -1.50
iter:  27 21:55:17  -341.411628  -0.59  -1.47
iter:  28 21:55:25  -341.358133  -1.23  -1.50
iter:  29 21:55:33  -341.271423  -0.88  -1.56
Writing to output.gpw (mode='')

iter:  30 21:55:41  -341.288896  -0.85  -1.79
iter:  31 21:55:49  -341.294263c -1.39  -1.88
iter:  32 21:55:58  -341.290580c -1.52  -1.90
iter:  33 21:56:06  -341.294280c -1.20  -1.98
iter:  34 21:56:14  -341.301109c -1.79  -2.13
Writing to output.gpw (mode='')

iter:  35 21:56:22  -341.303878c -1.61  -2.19
iter:  36 21:56:30  -341.305606c -1.82  -2.24
iter:  37 21:56:38  -341.307384c -1.79  -2.30
iter:  38 21:56:46  -341.310118c -1.80  -2.39
iter:  39 21:56:55  -341.311311c -2.15  -2.48
Writing to output.gpw (mode='')

iter:  40 21:57:03  -341.313495c -1.91  -2.56
iter:  41 21:57:11  -341.315371c -2.30  -2.72
iter:  42 21:57:19  -341.316479c -2.20  -2.77
iter:  43 21:57:27  -341.317721c -2.53  -2.72
iter:  44 21:57:35  -341.318459c -2.46  -2.93
Writing to output.gpw (mode='')

iter:  45 21:57:43  -341.319116c -2.72  -3.01
iter:  46 21:57:51  -341.319858c -2.60  -3.05
iter:  47 21:57:59  -341.320256c -2.73  -3.09
iter:  48 21:58:07  -341.320821c -2.75  -3.14
iter:  49 21:58:15  -341.321161c -2.73  -3.33
Writing to output.gpw (mode='')

iter:  50 21:58:24  -341.321407c -3.08  -3.46
iter:  51 21:58:32  -341.321677c -2.96  -3.47
iter:  52 21:58:40  -341.321929c -2.98  -3.50
iter:  53 21:58:48  -341.322106c -3.24  -3.59
iter:  54 21:58:56  -341.322303c -3.23  -3.70
Writing to output.gpw (mode='')

iter:  55 21:59:04  -341.322396c -3.53  -3.78
iter:  56 21:59:12  -341.322508c -3.30  -3.79
iter:  57 21:59:21  -341.322595c -3.46  -3.82
iter:  58 21:59:34  -341.322676c -3.57  -3.90
iter:  59 21:59:42  -341.322734c -3.74  -3.92
Writing to output.gpw (mode='')

iter:  60 21:59:50  -341.322781c -3.71  -3.84
iter:  61 21:59:58  -341.322826c -3.85  -3.73
iter:  62 22:00:06  -341.322868c -3.85  -3.71
iter:  63 22:00:14  -341.322905c -3.86  -3.70
iter:  64 22:00:22  -341.322957c -3.88  -3.67
Writing to output.gpw (mode='')

iter:  65 22:00:30  -341.323011c -3.72  -3.68
iter:  66 22:00:38  -341.323045c -3.97  -3.70
iter:  67 22:00:46  -341.323067c -3.98  -3.74
iter:  68 22:00:54  -341.323099c -3.71  -3.76
iter:  69 22:01:02  -341.323125c -4.16  -3.75
Writing to output.gpw (mode='')

iter:  70 22:01:10  -341.323131c -4.23  -3.75
iter:  71 22:01:19  -341.323134c -4.18  -3.76
iter:  72 22:01:27  -341.323134c -4.43  -3.81
iter:  73 22:01:35  -341.323145c -4.52  -3.92
iter:  74 22:01:43  -341.323152c -4.40  -4.02c
Writing to output.gpw (mode='')

iter:  75 22:01:51  -341.323156c -4.39  -4.11c
iter:  76 22:01:59  -341.323165c -4.55  -4.26c
iter:  77 22:02:07  -341.323168c -4.70  -4.39c
iter:  78 22:02:15  -341.323173c -4.52  -4.43c
iter:  79 22:02:23  -341.323173c -4.80  -4.55c
Writing to output.gpw (mode='')

iter:  80 22:02:31  -341.323178c -4.73  -4.67c
iter:  81 22:02:39  -341.323183c -4.76  -4.70c
iter:  82 22:02:47  -341.323184c -4.84  -4.70c
iter:  83 22:02:55  -341.323185c -4.97  -4.78c
iter:  84 22:03:03  -341.323186c -4.93  -4.76c
Writing to output.gpw (mode='')

iter:  85 22:03:11  -341.323190c -5.05  -4.75c
iter:  86 22:03:19  -341.323191c -5.09  -4.81c
iter:  87 22:03:30  -341.323192c -5.10  -4.84c
iter:  88 22:03:38  -341.323192c -4.98  -4.84c
iter:  89 22:03:47  -341.323192c -5.29  -4.92c
Writing to output.gpw (mode='')

iter:  90 22:03:55  -341.323194c -5.27  -5.00c
iter:  91 22:04:03  -341.323195c -5.44  -5.01c
iter:  92 22:04:11  -341.323195c -5.52  -4.94c
iter:  93 22:04:19  -341.323195c -5.47  -4.94c
iter:  94 22:04:31  -341.323197c -5.40  -4.95c
Writing to output.gpw (mode='')

iter:  95 22:04:39  -341.323197c -5.57  -5.09c
iter:  96 22:04:47  -341.323197c -5.57  -5.12c
iter:  97 22:04:55  -341.323197c -5.68  -5.11c
iter:  98 22:05:03  -341.323196c -5.75  -5.05c
iter:  99 22:05:11  -341.323196c -5.88  -4.91c
Writing to output.gpw (mode='')

iter: 100 22:05:19  -341.323196c -5.80  -4.90c
iter: 101 22:05:27  -341.323196c -5.96  -4.90c
iter: 102 22:05:35  -341.323197c -5.89  -4.88c
iter: 103 22:05:43  -341.323197c -6.01  -4.80c
iter: 104 22:05:51  -341.323197c -6.10  -4.81c
Writing to output.gpw (mode='')

iter: 105 22:05:59  -341.323198c -6.01  -4.86c
iter: 106 22:06:07  -341.323198c -6.11  -4.78c
iter: 107 22:06:15  -341.323199c -6.08  -5.03c
iter: 108 22:06:23  -341.323198c -6.19  -5.07c
iter: 109 22:06:31  -341.323198c -6.14  -5.05c
Writing to output.gpw (mode='')

iter: 110 22:06:39  -341.323199c -6.17  -5.14c
iter: 111 22:06:47  -341.323198c -6.34  -5.29c
iter: 112 22:06:55  -341.323198c -6.28  -5.34c
iter: 113 22:07:04  -341.323199c -6.34  -5.42c
iter: 114 22:07:12  -341.323199c -6.43  -5.52c
Writing to output.gpw (mode='')

iter: 115 22:07:20  -341.323199c -6.38  -5.57c
iter: 116 22:07:28  -341.323199c -6.57  -5.62c
iter: 117 22:07:36  -341.323199c -6.58  -5.78c
iter: 118 22:07:44  -341.323199c -6.62  -5.80c
iter: 119 22:07:52  -341.323199c -6.54  -5.82c
Writing to output.gpw (mode='')

iter: 120 22:08:00  -341.323199c -6.60  -5.86c
iter: 121 22:08:08  -341.323199c -6.58  -5.91c
iter: 122 22:08:16  -341.323199c -6.60  -5.93c
iter: 123 22:08:24  -341.323199c -6.73  -5.88c
iter: 124 22:08:32  -341.323199c -6.71  -5.89c
Writing to output.gpw (mode='')

iter: 125 22:08:40  -341.323199c -6.83  -5.89c
iter: 126 22:08:48  -341.323199c -6.93  -5.89c
iter: 127 22:08:57  -341.323199c -6.93  -5.84c
iter: 128 22:09:05  -341.323199c -6.97  -5.89c
iter: 129 22:09:13  -341.323199c -7.02  -5.98c
Writing to output.gpw (mode='')

iter: 130 22:09:27  -341.323199c -7.10  -6.02c
iter: 131 22:09:35  -341.323199c -7.07  -5.98c
iter: 132 22:09:44  -341.323199c -7.15  -6.09c
iter: 133 22:09:52  -341.323199c -7.11  -6.09c
iter: 134 22:10:00  -341.323199c -7.12  -6.12c
Writing to output.gpw (mode='')

iter: 135 22:10:08  -341.323199c -7.21  -6.23c
iter: 136 22:10:16  -341.323199c -7.25  -6.31c
iter: 137 22:10:24  -341.323199c -7.42c -6.30c

Converged after 137 iterations.

Dipole moment: (-15.654642, -17.579875, 0.254028) |e|*Ang

Energy contributions relative to reference atoms: (reference = -17528.314784)

Kinetic:       +208.510350
Potential:     -191.645962
External:        +0.000000
XC:            -359.217935
Entropy (-ST):   -0.188958
Local:           +1.124828
--------------------------
Free energy:   -341.417678
Extrapolated:  -341.323199

Dipole-layer corrected work functions: 3.365856, 2.877526 eV

Showing only first 2 kpts
 Kpt  Band  Eigenvalues  Occupancy
  0    37     -3.28006    1.91918
  0    38     -3.17261    1.46935
  0    39     -3.03357    0.29298
  0    40     -2.90961    0.02836

  1    37     -3.25017    1.85777
  1    38     -3.13851    1.16663
  1    39     -3.10444    0.82917
  1    40     -3.03009    0.27601


Fermi level: -3.12169

No gap
Writing to output.gpw (mode='')


Forces in eV/Ang:
  0 Li    0.01573   -0.00173   -0.27740
  1 Li   -0.00439    0.00184   -0.26694
  2 Li   -0.01176   -0.00002   -0.27496
  3 Li    0.00793    0.00563   -0.27449
  4 Li    0.00039    0.00063   -0.28371
  5 Li   -0.00862    0.00845   -0.27240
  6 Li    0.00623   -0.00449   -0.27183
  7 Li   -0.00172   -0.00410   -0.28419
  8 Li   -0.00488   -0.00944   -0.27044
  9 Li    0.00136    0.00578    0.31172
 10 Li    0.00981   -0.00295    0.25810
 11 Li   -0.01113   -0.00500    0.26696
 12 Li    0.00115   -0.01164    0.31929
 13 Li    0.01003    0.00199    0.25600
 14 Li   -0.01131    0.00626    0.26107
 15 Li    0.00098    0.00461    0.25348
 16 Li   -0.02151    0.00163    0.27187
 17 Li    0.02146    0.00051    0.26071
 18 Li    0.05007    0.00046   -0.04944
 19 Li   -0.00037    0.00162    0.04143
 20 Li   -0.04776   -0.00059   -0.06173
 21 Li   -0.01707   -0.00888    0.03110
 22 Li    0.00078   -0.00231    0.03660
 23 Li    0.01683   -0.00567    0.03468
 24 Li   -0.01411    0.01203    0.05120
 25 Li    0.00192    0.00233    0.02704
 26 Li    0.01293    0.00807    0.04075
 27 Li    0.00813    0.17811    0.10810
 28 Li   -0.00310   -0.00142   -0.02639
 29 Li   -0.00431    0.00924    0.02357
 30 Li    0.00786   -0.18076    0.12966
 31 Li    0.00546   -0.00308   -0.02404
 32 Li   -0.01529   -0.00555    0.00216
 33 Li    0.00573    0.01577    0.00222
 34 Li   -0.00320    0.00663    0.00475
 35 Li   -0.00316   -0.00100   -0.00397
 36 O     0.07807    1.16933   13.95973
 37 O    -0.27326   -0.15326    0.19676
 38 C    -0.06893    0.41236    0.06523
 39 C     3.82314   -2.32285    2.30112
 40 C     0.27132   -0.17429   -0.04235
 41 H     0.09916   -0.00410    0.01316
 42 H    -0.00435    0.00544   -0.01831
 43 H    -0.20202   -0.08693    0.36662
 44 H    -0.39357    0.27944   -0.04164
 45 H    -0.00199    0.01329   -0.00978
 46 H    -0.02621    0.00981   -0.02507
 47 H    -1.78979   -0.91398    1.67908
 48 H     0.07327    0.04652   -0.22938
 49 N     0.05734    1.44687  -10.03337
 50 N    -1.63083    0.19467   -8.51587

System changes: positions 

Initializing position-dependent things.

Density initialized from wave functions
       .-----------------------.  
      /|                       |  
     / |                       |  
    /  |                       |  
   /   |                       |  
  /    |                       |  
 *     |                       |  
 |     |                       |  
 |     |                       |  
 |     |                       |  
 |     |                       |  
 |     |                       |  
 |     |                       |  
 |     |                       |  
 |     |H                      |  
 |     |                       |  
 |O H  |C HC  OLi       H      |  
 |     |H     H                |  
 |  HLi|  H  Li      Li   N    |  
 |N    |                       |  
 | Li  |  LLi     LLi     Li   |  
 |     |                       |  
 Li    |Li      LLi     Li     |  
 |   Li|     Li      Li        |  
 |    Li  Li  Li  Li  Li  Li   |  
 | Li  |   Li      Li          |  
 |     |Li      Li      Li     |  
 Li    | Li      Li            |  
 |    Li      Li      Li       |  
 |     |                       |  
 |     |                       |  
 |     |                       |  
 |     |                       |  
 |     |                       |  
 |     |                       |  
 |     .-----------------------.  
 |    /                       /   
 |   /                       /    
 |  /                       /     
 | /                       /      
 |/                       /       
 *-----------------------*        

Positions:
   0 Li     1.617037    1.617037   10.000000    ( 0.0000,  0.0000,  0.0000)
   1 Li     4.851111    1.617037   10.000000    ( 0.0000,  0.0000,  0.0000)
   2 Li     8.085185    1.617037   10.000000    ( 0.0000,  0.0000,  0.0000)
   3 Li     1.617037    4.851111   10.000000    ( 0.0000,  0.0000,  0.0000)
   4 Li     4.851111    4.851111   10.000000    ( 0.0000,  0.0000,  0.0000)
   5 Li     8.085185    4.851111   10.000000    ( 0.0000,  0.0000,  0.0000)
   6 Li     1.617037    8.085185   10.000000    ( 0.0000,  0.0000,  0.0000)
   7 Li     4.851111    8.085185   10.000000    ( 0.0000,  0.0000,  0.0000)
   8 Li     8.085185    8.085185   10.000000    ( 0.0000,  0.0000,  0.0000)
   9 Li     0.000000    0.000000   11.617037    ( 0.0000,  0.0000,  0.0000)
  10 Li     3.234074    0.000000   11.617037    ( 0.0000,  0.0000,  0.0000)
  11 Li     6.468148    0.000000   11.617037    ( 0.0000,  0.0000,  0.0000)
  12 Li     0.000000    3.234074   11.617037    ( 0.0000,  0.0000,  0.0000)
  13 Li     3.234074    3.234074   11.617037    ( 0.0000,  0.0000,  0.0000)
  14 Li     6.468148    3.234074   11.617037    ( 0.0000,  0.0000,  0.0000)
  15 Li     0.000000    6.468148   11.617037    ( 0.0000,  0.0000,  0.0000)
  16 Li     3.234074    6.468148   11.617037    ( 0.0000,  0.0000,  0.0000)
  17 Li     6.468148    6.468148   11.617037    ( 0.0000,  0.0000,  0.0000)
  18 Li     1.617181    1.617039   13.469587    ( 0.0000,  0.0000,  0.0000)
  19 Li     4.851110    1.617043   13.469848    ( 0.0000,  0.0000,  0.0000)
  20 Li     8.085048    1.617036   13.469552    ( 0.0000,  0.0000,  0.0000)
  21 Li     1.616990    4.851086   13.469818    ( 0.0000,  0.0000,  0.0000)
  22 Li     4.851113    4.851104   13.469835    ( 0.0000,  0.0000,  0.0000)
  23 Li     8.085232    4.851095   13.469828    ( 0.0000,  0.0000,  0.0000)
  24 Li     1.616998    8.085218   13.469874    ( 0.0000,  0.0000,  0.0000)
  25 Li     4.851116    8.085190   13.469807    ( 0.0000,  0.0000,  0.0000)
  26 Li     8.085221    8.085207   13.469844    ( 0.0000,  0.0000,  0.0000)
  27 Li     0.000023    0.000509   15.446248    ( 0.0000,  0.0000,  0.0000)
  28 Li     3.234065   -0.000004   15.445863    ( 0.0000,  0.0000,  0.0000)
  29 Li     6.468136    0.000026   15.446006    ( 0.0000,  0.0000,  0.0000)
  30 Li     0.000022    3.233558   15.446309    ( 0.0000,  0.0000,  0.0000)
  31 Li     3.234092    3.234068   15.445869    ( 0.0000,  0.0000,  0.0000)
  32 Li     6.468102    3.234061   15.445944    ( 0.0000,  0.0000,  0.0000)
  33 Li     0.000016    6.468193   15.445945    ( 0.0000,  0.0000,  0.0000)
  34 Li     3.234067    6.468164   15.445952    ( 0.0000,  0.0000,  0.0000)
  35 Li     6.468137    6.468143   15.445927    ( 0.0000,  0.0000,  0.0000)
  36 O      0.000223    1.620376   19.685799    ( 0.0000,  0.0000,  0.0000)
  37 O      4.861562    1.596271   19.640391    ( 0.0000,  0.0000,  0.0000)
  38 C      2.395718    1.616670   19.660573    ( 0.0000,  0.0000,  0.0000)
  39 C      1.155786    0.742585   19.655388    ( 0.0000,  0.0000,  0.0000)
  40 C      3.679306    0.784727   19.636336    ( 0.0000,  0.0000,  0.0000)
  41 H      2.374115    2.275987   18.785764    ( 0.0000,  0.0000,  0.0000)
  42 H      2.395761    2.252619   20.548339    ( 0.0000,  0.0000,  0.0000)
  43 H      1.139363    0.108710   18.756318    ( 0.0000,  0.0000,  0.0000)
  44 H      1.130204    0.101338   20.535385    ( 0.0000,  0.0000,  0.0000)
  45 H      3.679227    0.109697   18.769106    ( 0.0000,  0.0000,  0.0000)
  46 H      3.755305    0.169162   20.536488    ( 0.0000,  0.0000,  0.0000)
  47 H     -0.800636    1.070070   19.645867    ( 0.0000,  0.0000,  0.0000)
  48 H      4.829968    2.171880   18.864657    ( 0.0000,  0.0000,  0.0000)
  49 N      0.000164    1.621131   17.167291    ( 0.0000,  0.0000,  0.0000)
  50 N     -0.004657    1.617556   18.268246    ( 0.0000,  0.0000,  0.0000)

Unit cell:
           periodic     x           y           z      points  spacing
  1. axis:    yes    9.702222    0.000000    0.000000    60     0.1617
  2. axis:    yes    0.000000    9.702222    0.000000    60     0.1617
  3. axis:    no     0.000000    0.000000   28.601111   180     0.1589

  Lengths:   9.702222   9.702222  28.601111
  Angles:   90.000000  90.000000  90.000000

Effective grid spacing dv^(1/3) = 0.1608

     iter     time        total  log10-change:
                         energy  eigst   dens
iter:   1 22:10:35  -343.383826  -0.28
iter:   2 22:10:43  -343.301285  -0.60  -1.38
iter:   3 22:10:51  -342.858032  -0.55  -1.27
iter:   4 22:10:59  -342.839541  -0.98  -1.60
Writing to output.gpw (mode='')

iter:   5 22:11:07  -342.745872  -1.21  -1.62
iter:   6 22:11:15  -342.626007  -0.96  -1.71
iter:   7 22:11:24  -342.666714  -1.36  -1.89
iter:   8 22:11:32  -342.622419  -1.76  -1.93
iter:   9 22:11:40  -342.649778  -1.85  -2.02
Writing to output.gpw (mode='')

iter:  10 22:11:48  -342.611342c -1.60  -2.02
iter:  11 22:11:57  -342.608967  -2.14  -2.27
iter:  12 22:12:05  -342.607054c -2.37  -2.55
iter:  13 22:12:13  -342.609255c -2.68  -2.62
iter:  14 22:12:21  -342.606734c -2.86  -2.65
Writing to output.gpw (mode='')

iter:  15 22:12:29  -342.606879c -3.28  -2.88
iter:  16 22:12:38  -342.606394c -3.40  -2.91
iter:  17 22:12:46  -342.606924c -3.46  -2.92
iter:  18 22:12:54  -342.606982c -3.59  -3.15
iter:  19 22:13:03  -342.607087c -3.66  -3.19
Writing to output.gpw (mode='')

iter:  20 22:13:11  -342.606964c -4.08  -3.24
iter:  21 22:13:19  -342.606827c -4.18  -3.38
iter:  22 22:13:27  -342.606907c -4.42  -3.55
iter:  23 22:13:35  -342.606904c -4.40  -3.54
iter:  24 22:13:44  -342.606916c -4.57  -3.59
Writing to output.gpw (mode='')

iter:  25 22:13:52  -342.606850c -4.83  -3.66
iter:  26 22:14:00  -342.606884c -4.61  -3.70
iter:  27 22:14:08  -342.606887c -5.07  -4.07c
iter:  28 22:14:17  -342.606873c -5.00  -4.10c
iter:  29 22:14:31  -342.606881c -5.12  -4.25c
Writing to output.gpw (mode='')

iter:  30 22:14:40  -342.606884c -5.48  -4.34c
iter:  31 22:14:55  -342.606886c -5.49  -4.39c
iter:  32 22:15:06  -342.606878c -5.66  -4.42c
iter:  33 22:15:15  -342.606894c -5.53  -4.65c
iter:  34 22:15:23  -342.606890c -5.64  -4.70c
Writing to output.gpw (mode='')

iter:  35 22:15:31  -342.606888c -6.00  -4.81c
iter:  36 22:15:39  -342.606890c -5.74  -4.86c
iter:  37 22:15:47  -342.606891c -6.21  -4.64c
iter:  38 22:15:55  -342.606890c -6.21  -4.84c
iter:  39 22:16:04  -342.606891c -6.27  -4.97c
Writing to output.gpw (mode='')

iter:  40 22:16:12  -342.606890c -6.30  -5.01c
iter:  41 22:16:20  -342.606890c -6.55  -5.17c
iter:  42 22:16:28  -342.606890c -6.53  -5.16c
iter:  43 22:16:36  -342.606890c -6.65  -5.15c
iter:  44 22:16:44  -342.606891c -6.68  -5.14c
Writing to output.gpw (mode='')

iter:  45 22:16:53  -342.606892c -6.89  -4.97c
iter:  46 22:17:01  -342.606891c -6.87  -5.03c
iter:  47 22:17:09  -342.606890c -6.82  -5.25c
iter:  48 22:17:17  -342.606892c -7.00  -5.31c
iter:  49 22:17:25  -342.606891c -7.00  -5.47c
Writing to output.gpw (mode='')

iter:  50 22:17:33  -342.606891c -7.10  -5.52c
iter:  51 22:17:41  -342.606891c -7.11  -5.63c
iter:  52 22:17:49  -342.606892c -7.12  -5.80c
iter:  53 22:17:57  -342.606892c -7.25  -5.87c
iter:  54 22:18:05  -342.606891c -7.26  -6.00c
Writing to output.gpw (mode='')

iter:  55 22:18:14  -342.606891c -7.30  -6.06c
iter:  56 22:18:22  -342.606892c -7.32  -6.09c
iter:  57 22:18:30  -342.606891c -7.52c -6.11c

Converged after 57 iterations.

Dipole moment: (-15.087963, -17.492530, 0.164390) |e|*Ang

Energy contributions relative to reference atoms: (reference = -17528.314784)

Kinetic:       +210.386163
Potential:     -194.374153
External:        +0.000000
XC:            -359.651933
Entropy (-ST):   -0.164425
Local:           +1.115244
--------------------------
Free energy:   -342.689104
Extrapolated:  -342.606891

Dipole-layer corrected work functions: 3.377476, 3.061462 eV

Showing only first 2 kpts
 Kpt  Band  Eigenvalues  Occupancy
  0    37     -3.39498    1.94195
  0    38     -3.30254    1.68083
  0    39     -3.09880    0.16431
  0    40     -2.96650    0.01262

  1    37     -3.32124    1.76891
  1    38     -3.22836    1.08863
  1    39     -3.19753    0.78402
  1    40     -3.11214    0.20932


Fermi level: -3.21947

No gap
Writing to output.gpw (mode='')


Forces in eV/Ang:
  0 Li    0.01460   -0.00182   -0.27483
  1 Li   -0.00216    0.00188   -0.26288
  2 Li   -0.01257   -0.00059   -0.27314
  3 Li    0.00591    0.01040   -0.27495
  4 Li    0.00065    0.00205   -0.28489
  5 Li   -0.00708    0.01191   -0.27365
  6 Li    0.00373   -0.00916   -0.27198
  7 Li   -0.00098   -0.00501   -0.28593
  8 Li   -0.00339   -0.01233   -0.27092
  9 Li    0.00109    0.00865    0.31063
 10 Li    0.01559   -0.00353    0.25705
 11 Li   -0.01707   -0.00507    0.26220
 12 Li    0.00106   -0.01471    0.32046
 13 Li    0.01535    0.00260    0.25523
 14 Li   -0.01699    0.00607    0.25791
 15 Li    0.00044    0.00531    0.24247
 16 Li   -0.02508    0.00157    0.26916
 17 Li    0.02577    0.00050    0.25929
 18 Li    0.05244   -0.00023   -0.05410
 19 Li   -0.00021    0.00206    0.05007
 20 Li   -0.05184   -0.00123   -0.06370
 21 Li   -0.01966   -0.01022    0.03571
 22 Li    0.00071    0.00231    0.03557
 23 Li    0.01970   -0.00872    0.03880
 24 Li   -0.01674    0.01392    0.05619
 25 Li    0.00175   -0.00324    0.02579
 26 Li    0.01602    0.01217    0.04885
 27 Li    0.01075    0.14304    0.05252
 28 Li    0.01437   -0.00880   -0.03721
 29 Li   -0.01990    0.00154    0.00456
 30 Li    0.00699   -0.15698    0.09104
 31 Li    0.02117    0.00478   -0.03467
 32 Li   -0.02757    0.00066   -0.01171
 33 Li    0.00565    0.01536   -0.00895
 34 Li   -0.00876    0.00570    0.00162
 35 Li    0.00228   -0.00014   -0.00679
 36 O     0.36345    0.48153   17.71197
 37 O    -0.17132   -0.10125    0.11085
 38 C     0.09710    0.24082    0.11592
 39 C     2.34673   -1.36691    2.06747
 40 C     0.18390   -0.06543   -0.02771
 41 H     0.06141    0.00322   -0.00074
 42 H    -0.00840    0.02003   -0.00642
 43 H    -0.18986   -0.04200    0.35568
 44 H    -0.19625    0.03656    0.08914
 45 H     0.00596   -0.00519   -0.02274
 46 H    -0.02729    0.00425   -0.02239
 47 H    -0.60559   -0.21394    1.25072
 48 H     0.06076    0.00455   -0.15259
 49 N     0.32994    1.86249   -7.18964
 50 N    -2.27973   -0.90347  -14.45061

System changes: positions 

Initializing position-dependent things.

Density initialized from wave functions
       .-----------------------.  
      /|                       |  
     / |                       |  
    /  |                       |  
   /   |                       |  
  /    |                       |  
 *     |                       |  
 |     |                       |  
 |     |                       |  
 |     |                       |  
 |     |                       |  
 |     |                       |  
 |     |                       |  
 |     |                       |  
 |     |H                      |  
 |     |                       |  
 |  H  |C HC  O         H O    |  
 |     |H     H                |  
 |  HLi|  H  Li      Li   N    |  
 |     |                  N    |  
 | Li  |  LLi     LLi     Li   |  
 |     |                       |  
 Li    |LLi     LLi     Li     |  
 |   Li|     Li      Li        |  
 |    Li  Li  Li  Li  Li  Li   |  
 | Li  |   Li      Li          |  
 |     |Li      Li      Li     |  
 Li    | Li      Li            |  
 |    Li      Li      Li       |  
 |     |                       |  
 |     |                       |  
 |     |                       |  
 |     |                       |  
 |     |                       |  
 |     |                       |  
 |     .-----------------------.  
 |    /                       /   
 |   /                       /    
 |  /                       /     
 | /                       /      
 |/                       /       
 *-----------------------*        

Positions:
   0 Li     1.617037    1.617037   10.000000    ( 0.0000,  0.0000,  0.0000)
   1 Li     4.851111    1.617037   10.000000    ( 0.0000,  0.0000,  0.0000)
   2 Li     8.085185    1.617037   10.000000    ( 0.0000,  0.0000,  0.0000)
   3 Li     1.617037    4.851111   10.000000    ( 0.0000,  0.0000,  0.0000)
   4 Li     4.851111    4.851111   10.000000    ( 0.0000,  0.0000,  0.0000)
   5 Li     8.085185    4.851111   10.000000    ( 0.0000,  0.0000,  0.0000)
   6 Li     1.617037    8.085185   10.000000    ( 0.0000,  0.0000,  0.0000)
   7 Li     4.851111    8.085185   10.000000    ( 0.0000,  0.0000,  0.0000)
   8 Li     8.085185    8.085185   10.000000    ( 0.0000,  0.0000,  0.0000)
   9 Li     0.000000    0.000000   11.617037    ( 0.0000,  0.0000,  0.0000)
  10 Li     3.234074    0.000000   11.617037    ( 0.0000,  0.0000,  0.0000)
  11 Li     6.468148    0.000000   11.617037    ( 0.0000,  0.0000,  0.0000)
  12 Li     0.000000    3.234074   11.617037    ( 0.0000,  0.0000,  0.0000)
  13 Li     3.234074    3.234074   11.617037    ( 0.0000,  0.0000,  0.0000)
  14 Li     6.468148    3.234074   11.617037    ( 0.0000,  0.0000,  0.0000)
  15 Li     0.000000    6.468148   11.617037    ( 0.0000,  0.0000,  0.0000)
  16 Li     3.234074    6.468148   11.617037    ( 0.0000,  0.0000,  0.0000)
  17 Li     6.468148    6.468148   11.617037    ( 0.0000,  0.0000,  0.0000)
  18 Li     1.617327    1.617043   13.469450    ( 0.0000,  0.0000,  0.0000)
  19 Li     4.851108    1.617047   13.469947    ( 0.0000,  0.0000,  0.0000)
  20 Li     8.084914    1.617037   13.469369    ( 0.0000,  0.0000,  0.0000)
  21 Li     1.616946    4.851063   13.469899    ( 0.0000,  0.0000,  0.0000)
  22 Li     4.851116    4.851082   13.469950    ( 0.0000,  0.0000,  0.0000)
  23 Li     8.085274    4.851087   13.469921    ( 0.0000,  0.0000,  0.0000)
  24 Li     1.616963    8.085249   13.470015    ( 0.0000,  0.0000,  0.0000)
  25 Li     4.851123    8.085215   13.469894    ( 0.0000,  0.0000,  0.0000)
  26 Li     8.085250    8.085218   13.469943    ( 0.0000,  0.0000,  0.0000)
  27 Li     0.000040    0.001167   15.446758    ( 0.0000,  0.0000,  0.0000)
  28 Li     3.233999    0.000015   15.445817    ( 0.0000,  0.0000,  0.0000)
  29 Li     6.468173    0.000079   15.446139    ( 0.0000,  0.0000,  0.0000)
  30 Li     0.000049    3.232928   15.446830    ( 0.0000,  0.0000,  0.0000)
  31 Li     3.234058    3.234033   15.445830    ( 0.0000,  0.0000,  0.0000)
  32 Li     6.468095    3.234024   15.445995    ( 0.0000,  0.0000,  0.0000)
  33 Li     0.000034    6.468243   15.445988    ( 0.0000,  0.0000,  0.0000)
  34 Li     3.234075    6.468188   15.445976    ( 0.0000,  0.0000,  0.0000)
  35 Li     6.468109    6.468137   15.445924    ( 0.0000,  0.0000,  0.0000)
  36 O     -0.000456    1.626169   19.716478    ( 0.0000,  0.0000,  0.0000)
  37 O      4.860397    1.595634   19.641270    ( 0.0000,  0.0000,  0.0000)
  38 C      2.394973    1.618484   19.660609    ( 0.0000,  0.0000,  0.0000)
  39 C      1.172244    0.732396   19.663187    ( 0.0000,  0.0000,  0.0000)
  40 C      3.680418    0.783843   19.636160    ( 0.0000,  0.0000,  0.0000)
  41 H      2.374540    2.275951   18.785849    ( 0.0000,  0.0000,  0.0000)
  42 H      2.395761    2.252588   20.548245    ( 0.0000,  0.0000,  0.0000)
  43 H      1.138705    0.108300   18.757476    ( 0.0000,  0.0000,  0.0000)
  44 H      1.128364    0.102975   20.534836    ( 0.0000,  0.0000,  0.0000)
  45 H      3.679195    0.109797   18.769118    ( 0.0000,  0.0000,  0.0000)
  46 H      3.755228    0.169210   20.536403    ( 0.0000,  0.0000,  0.0000)
  47 H     -0.809926    1.065019   19.652387    ( 0.0000,  0.0000,  0.0000)
  48 H      4.830233    2.172158   18.863708    ( 0.0000,  0.0000,  0.0000)
  49 N     -0.000538    1.624225   17.127417    ( 0.0000,  0.0000,  0.0000)
  50 N     -0.007563    1.621685   18.261259    ( 0.0000,  0.0000,  0.0000)

Unit cell:
           periodic     x           y           z      points  spacing
  1. axis:    yes    9.702222    0.000000    0.000000    60     0.1617
  2. axis:    yes    0.000000    9.702222    0.000000    60     0.1617
  3. axis:    no     0.000000    0.000000   28.601111   180     0.1589

  Lengths:   9.702222   9.702222  28.601111
  Angles:   90.000000  90.000000  90.000000

Effective grid spacing dv^(1/3) = 0.1608

     iter     time        total  log10-change:
                         energy  eigst   dens
iter:   1 22:18:40  -345.309903  -0.31
iter:   2 22:18:48  -346.315246  +0.03  -1.12
iter:   3 22:18:56  -343.628028  -0.35  -0.98
iter:   4 22:19:04  -343.578603  -0.98  -1.70
Writing to output.gpw (mode='')

iter:   5 22:19:12  -343.580555  -1.13  -1.88
iter:   6 22:19:26  -343.537015  -1.14  -1.89
iter:   7 22:19:35  -343.540137  -1.53  -2.12
iter:   8 22:19:43  -343.535920c -1.40  -2.23
iter:   9 22:19:52  -343.537494c -1.83  -2.36
Writing to output.gpw (mode='')

iter:  10 22:20:00  -343.534802c -1.92  -2.43
iter:  11 22:20:08  -343.535458c -2.30  -2.69
iter:  12 22:20:16  -343.536547c -2.47  -2.82
iter:  13 22:20:24  -343.536227c -2.76  -2.86
iter:  14 22:20:33  -343.536355c -2.76  -2.96
Writing to output.gpw (mode='')

iter:  15 22:20:41  -343.536644c -2.89  -3.05
iter:  16 22:20:49  -343.537006c -3.17  -3.11
iter:  17 22:20:57  -343.536867c -3.42  -3.17
iter:  18 22:21:05  -343.537117c -3.75  -3.19
iter:  19 22:21:13  -343.537023c -3.90  -3.25
Writing to output.gpw (mode='')

iter:  20 22:21:21  -343.536997c -3.85  -3.32
iter:  21 22:21:29  -343.537107c -3.97  -3.48
iter:  22 22:21:38  -343.537128c -4.14  -3.42
iter:  23 22:21:46  -343.537146c -4.34  -3.50
iter:  24 22:21:54  -343.537134c -4.35  -3.52
Writing to output.gpw (mode='')

iter:  25 22:22:02  -343.537140c -4.63  -3.51
iter:  26 22:22:10  -343.537146c -4.57  -3.53
iter:  27 22:22:18  -343.537095c -4.31  -3.52
iter:  28 22:22:27  -343.537048c -4.46  -3.74
iter:  29 22:22:35  -343.537018c -4.72  -4.02c
Writing to output.gpw (mode='')

iter:  30 22:22:43  -343.537040c -5.18  -4.03c
iter:  31 22:22:51  -343.537022c -5.03  -4.19c
iter:  32 22:22:59  -343.537040c -5.20  -4.16c
iter:  33 22:23:07  -343.537037c -5.46  -4.29c
iter:  34 22:23:15  -343.537039c -5.43  -4.46c
Writing to output.gpw (mode='')

iter:  35 22:23:23  -343.537039c -5.52  -4.49c
iter:  36 22:23:32  -343.537037c -5.66  -4.70c
iter:  37 22:23:40  -343.537039c -5.90  -4.68c
iter:  38 22:23:48  -343.537042c -5.60  -4.66c
iter:  39 22:23:56  -343.537041c -6.08  -4.57c
Writing to output.gpw (mode='')

iter:  40 22:24:04  -343.537041c -6.12  -4.64c
iter:  41 22:24:12  -343.537044c -6.16  -4.56c
iter:  42 22:24:27  -343.537039c -6.11  -4.53c
iter:  43 22:24:36  -343.537039c -6.45  -5.00c
iter:  44 22:24:44  -343.537038c -6.35  -5.05c
Writing to output.gpw (mode='')

iter:  45 22:24:53  -343.537038c -6.47  -5.21c
iter:  46 22:25:01  -343.537039c -6.48  -5.29c
iter:  47 22:25:09  -343.537039c -6.25  -5.29c
iter:  48 22:25:17  -343.537039c -6.40  -5.34c
iter:  49 22:25:25  -343.537039c -6.56  -5.32c
Writing to output.gpw (mode='')

iter:  50 22:25:33  -343.537039c -6.83  -5.28c
iter:  51 22:25:41  -343.537040c -6.93  -5.23c
iter:  52 22:25:49  -343.537039c -6.96  -5.21c
iter:  53 22:25:58  -343.537039c -7.20  -5.21c
iter:  54 22:26:06  -343.537039c -6.94  -5.17c
Writing to output.gpw (mode='')

iter:  55 22:26:14  -343.537040c -7.20  -5.15c
iter:  56 22:26:22  -343.537039c -7.27  -5.09c
iter:  57 22:26:30  -343.537038c -7.27  -5.16c
iter:  58 22:26:38  -343.537038c -7.41c -5.40c

Converged after 58 iterations.

Dipole moment: (-14.619532, -17.455809, 0.111776) |e|*Ang

Energy contributions relative to reference atoms: (reference = -17528.314784)

Kinetic:       +204.905528
Potential:     -190.607929
External:        +0.000000
XC:            -358.868558
Entropy (-ST):   -0.158164
Local:           +1.113004
--------------------------
Free energy:   -343.616120
Extrapolated:  -343.537038

Dipole-layer corrected work functions: 3.380566, 3.165694 eV

Showing only first 2 kpts
 Kpt  Band  Eigenvalues  Occupancy
  0    37     -3.46506    1.95786
  0    38     -3.36051    1.70330
  0    39     -3.14524    0.14381
  0    40     -3.01843    0.01219

  1    37     -3.36470    1.72384
  1    38     -3.27988    1.06741
  1    39     -3.25077    0.78001
  1    40     -3.15645    0.17674


Fermi level: -3.27313

No gap
Writing to output.gpw (mode='')


Forces in eV/Ang:
  0 Li    0.01345   -0.00174   -0.27473
  1 Li   -0.00134    0.00191   -0.26172
  2 Li   -0.01210   -0.00068   -0.27326
  3 Li    0.00522    0.01148   -0.27554
  4 Li    0.00060    0.00258   -0.28494
  5 Li   -0.00650    0.01235   -0.27436
  6 Li    0.00304   -0.01038   -0.27246
  7 Li   -0.00090   -0.00533   -0.28599
  8 Li   -0.00294   -0.01276   -0.27158
  9 Li    0.00097    0.00935    0.31060
 10 Li    0.01598   -0.00311    0.25787
 11 Li   -0.01749   -0.00432    0.26188
 12 Li    0.00100   -0.01527    0.32050
 13 Li    0.01540    0.00222    0.25610
 14 Li   -0.01716    0.00535    0.25800
 15 Li    0.00039    0.00547    0.23937
 16 Li   -0.02493    0.00153    0.26784
 17 Li    0.02584    0.00049    0.25866
 18 Li    0.05307   -0.00026   -0.05870
 19 Li   -0.00016    0.00204    0.05364
 20 Li   -0.05312   -0.00132   -0.06708
 21 Li   -0.02054   -0.00985    0.03561
 22 Li    0.00067    0.00260    0.03599
 23 Li    0.02078   -0.00900    0.03872
 24 Li   -0.01740    0.01404    0.05586
 25 Li    0.00174   -0.00374    0.02649
 26 Li    0.01687    0.01285    0.04921
 27 Li    0.01052    0.16529    0.07449
 28 Li    0.02102   -0.01149   -0.03935
 29 Li   -0.02450   -0.00073   -0.00018
 30 Li    0.00682   -0.18135    0.11638
 31 Li    0.02619    0.00736   -0.03691
 32 Li   -0.03203    0.00276   -0.01544
 33 Li    0.00561    0.01490   -0.01538
 34 Li   -0.00976    0.00545   -0.00060
 35 Li    0.00316   -0.00019   -0.00876
 36 O     0.21388   -0.28279   17.25603
 37 O    -0.08932   -0.03083    0.01554
 38 C     0.31211    0.06870    0.16549
 39 C     1.26474   -0.54721    1.53310
 40 C     0.12335    0.04675   -0.00713
 41 H     0.01457    0.00155   -0.02671
 42 H    -0.00617    0.03777    0.02093
 43 H    -0.15367   -0.03037    0.37256
 44 H    -0.05971   -0.26108    0.41471
 45 H     0.00987   -0.02383   -0.04172
 46 H    -0.02583   -0.00686   -0.01387
 47 H     0.18866    0.27799    1.14026
 48 H     0.05573   -0.05536   -0.06271
 49 N     0.32517    1.71503   -3.10329
 50 N    -2.19058   -1.03826  -17.93697

System changes: positions 

Initializing position-dependent things.

Density initialized from wave functions
       .-----------------------.  
      /|                       |  
     / |                       |  
    /  |                       |  
   /   |                       |  
  /    |                       |  
 *     |                       |  
 |     |                       |  
 |     |                       |  
 |     |                       |  
 |     |                       |  
 |     |                       |  
 |     |                       |  
 |     |                       |  
 |     |H                      |  
 |     |                       |  
 |  H  |C HC  O         H O    |  
 |     |H     H                |  
 |  HLi|  H  Li      Li   N    |  
 |     |                  N    |  
 | Li  |  LLi     LLi     Li   |  
 |     |                       |  
 Li    |LLi     LLi     Li     |  
 |   Li|     Li      Li        |  
 |    Li  Li  Li  Li  Li  Li   |  
 | Li  |   Li      Li          |  
 |     |Li      Li      Li     |  
 Li    | Li      Li            |  
 |    Li      Li      Li       |  
 |     |                       |  
 |     |                       |  
 |     |                       |  
 |     |                       |  
 |     |                       |  
 |     |                       |  
 |     .-----------------------.  
 |    /                       /   
 |   /                       /    
 |  /                       /     
 | /                       /      
 |/                       /       
 *-----------------------*        

Positions:
   0 Li     1.617037    1.617037   10.000000    ( 0.0000,  0.0000,  0.0000)
   1 Li     4.851111    1.617037   10.000000    ( 0.0000,  0.0000,  0.0000)
   2 Li     8.085185    1.617037   10.000000    ( 0.0000,  0.0000,  0.0000)
   3 Li     1.617037    4.851111   10.000000    ( 0.0000,  0.0000,  0.0000)
   4 Li     4.851111    4.851111   10.000000    ( 0.0000,  0.0000,  0.0000)
   5 Li     8.085185    4.851111   10.000000    ( 0.0000,  0.0000,  0.0000)
   6 Li     1.617037    8.085185   10.000000    ( 0.0000,  0.0000,  0.0000)
   7 Li     4.851111    8.085185   10.000000    ( 0.0000,  0.0000,  0.0000)
   8 Li     8.085185    8.085185   10.000000    ( 0.0000,  0.0000,  0.0000)
   9 Li     0.000000    0.000000   11.617037    ( 0.0000,  0.0000,  0.0000)
  10 Li     3.234074    0.000000   11.617037    ( 0.0000,  0.0000,  0.0000)
  11 Li     6.468148    0.000000   11.617037    ( 0.0000,  0.0000,  0.0000)
  12 Li     0.000000    3.234074   11.617037    ( 0.0000,  0.0000,  0.0000)
  13 Li     3.234074    3.234074   11.617037    ( 0.0000,  0.0000,  0.0000)
  14 Li     6.468148    3.234074   11.617037    ( 0.0000,  0.0000,  0.0000)
  15 Li     0.000000    6.468148   11.617037    ( 0.0000,  0.0000,  0.0000)
  16 Li     3.234074    6.468148   11.617037    ( 0.0000,  0.0000,  0.0000)
  17 Li     6.468148    6.468148   11.617037    ( 0.0000,  0.0000,  0.0000)
  18 Li     1.617644    1.617056   13.469093    ( 0.0000,  0.0000,  0.0000)
  19 Li     4.851105    1.617051   13.470168    ( 0.0000,  0.0000,  0.0000)
  20 Li     8.084626    1.617040   13.468912    ( 0.0000,  0.0000,  0.0000)
  21 Li     1.616851    4.851030   13.470038    ( 0.0000,  0.0000,  0.0000)
  22 Li     4.851121    4.851002   13.470223    ( 0.0000,  0.0000,  0.0000)
  23 Li     8.085366    4.851090   13.470093    ( 0.0000,  0.0000,  0.0000)
  24 Li     1.616894    8.085305   13.470281    ( 0.0000,  0.0000,  0.0000)
  25 Li     4.851138    8.085306   13.470110    ( 0.0000,  0.0000,  0.0000)
  26 Li     8.085308    8.085225   13.470104    ( 0.0000,  0.0000,  0.0000)
  27 Li     0.000051    0.003352   15.448773    ( 0.0000,  0.0000,  0.0000)
  28 Li     3.233845    0.000064   15.445760    ( 0.0000,  0.0000,  0.0000)
  29 Li     6.468289    0.000214   15.446494    ( 0.0000,  0.0000,  0.0000)
  30 Li     0.000113    3.230853   15.448801    ( 0.0000,  0.0000,  0.0000)
  31 Li     3.233956    3.233944   15.445784    ( 0.0000,  0.0000,  0.0000)
  32 Li     6.468089    3.233933   15.446147    ( 0.0000,  0.0000,  0.0000)
  33 Li     0.000074    6.468348   15.446045    ( 0.0000,  0.0000,  0.0000)
  34 Li     3.234118    6.468242   15.446012    ( 0.0000,  0.0000,  0.0000)
  35 Li     6.468023    6.468116   15.445900    ( 0.0000,  0.0000,  0.0000)
  36 O     -0.007226    1.629407   19.745394    ( 0.0000,  0.0000,  0.0000)
  37 O      4.858617    1.595198   19.642022    ( 0.0000,  0.0000,  0.0000)
  38 C      2.396247    1.620480   19.661266    ( 0.0000,  0.0000,  0.0000)
  39 C      1.199208    0.718338   19.671787    ( 0.0000,  0.0000,  0.0000)
  40 C      3.682390    0.783230   19.636057    ( 0.0000,  0.0000,  0.0000)
  41 H      2.374858    2.275778   18.785634    ( 0.0000,  0.0000,  0.0000)
  42 H      2.395837    2.252756   20.548482    ( 0.0000,  0.0000,  0.0000)
  43 H      1.137865    0.107257   18.760470    ( 0.0000,  0.0000,  0.0000)
  44 H      1.125399    0.102660   20.539025    ( 0.0000,  0.0000,  0.0000)
  45 H      3.679138    0.109798   18.768872    ( 0.0000,  0.0000,  0.0000)
  46 H      3.755095    0.169141   20.536361    ( 0.0000,  0.0000,  0.0000)
  47 H     -0.824330    1.057928   19.668122    ( 0.0000,  0.0000,  0.0000)
  48 H      4.830822    2.171923   18.862764    ( 0.0000,  0.0000,  0.0000)
  49 N     -0.004383    1.624829   17.097042    ( 0.0000,  0.0000,  0.0000)
  50 N     -0.007032    1.637014   18.224316    ( 0.0000,  0.0000,  0.0000)

Unit cell:
           periodic     x           y           z      points  spacing
  1. axis:    yes    9.702222    0.000000    0.000000    60     0.1617
  2. axis:    yes    0.000000    9.702222    0.000000    60     0.1617
  3. axis:    no     0.000000    0.000000   28.601111   180     0.1589

  Lengths:   9.702222   9.702222  28.601111
  Angles:   90.000000  90.000000  90.000000

Effective grid spacing dv^(1/3) = 0.1608

     iter     time        total  log10-change:
                         energy  eigst   dens
iter:   1 22:26:48  -344.980750  -0.67
iter:   2 22:26:57  -344.929628  -1.01  -1.67
iter:   3 22:27:05  -344.891327  -1.31  -1.82
iter:   4 22:27:13  -344.829508  -1.04  -1.90
Writing to output.gpw (mode='')

iter:   5 22:27:21  -344.826494  -1.35  -2.07
iter:   6 22:27:29  -344.846513c -1.27  -2.17
iter:   7 22:27:37  -344.822595c -1.88  -2.20
iter:   8 22:27:45  -344.808989c -1.74  -2.29
iter:   9 22:27:53  -344.808923c -2.47  -2.46
Writing to output.gpw (mode='')

iter:  10 22:28:02  -344.807262c -2.43  -2.57
iter:  11 22:28:10  -344.806420c -2.66  -2.67
iter:  12 22:28:18  -344.806620c -3.00  -2.91
iter:  13 22:28:26  -344.806578c -3.25  -3.00
iter:  14 22:28:34  -344.806711c -3.39  -3.06
Writing to output.gpw (mode='')

iter:  15 22:28:42  -344.806521c -3.80  -3.13
iter:  16 22:28:50  -344.806586c -3.99  -3.22
iter:  17 22:28:58  -344.806522c -4.25  -3.30
iter:  18 22:29:06  -344.806545c -4.06  -3.40
iter:  19 22:29:15  -344.806556c -4.62  -3.65
Writing to output.gpw (mode='')

iter:  20 22:29:28  -344.806563c -4.64  -3.69
iter:  21 22:29:37  -344.806573c -4.83  -3.78
iter:  22 22:29:45  -344.806579c -5.02  -3.96
iter:  23 22:29:53  -344.806583c -5.20  -4.04c
iter:  24 22:30:02  -344.806584c -5.21  -4.22c
Writing to output.gpw (mode='')

iter:  25 22:30:10  -344.806586c -5.51  -4.23c
iter:  26 22:30:18  -344.806584c -5.64  -4.36c
iter:  27 22:30:26  -344.806585c -5.77  -4.44c
iter:  28 22:30:34  -344.806588c -5.90  -4.49c
iter:  29 22:30:43  -344.806590c -6.13  -4.60c
Writing to output.gpw (mode='')

iter:  30 22:30:51  -344.806588c -6.09  -4.76c
iter:  31 22:30:59  -344.806588c -6.39  -4.76c
iter:  32 22:31:07  -344.806588c -6.36  -4.76c
iter:  33 22:31:15  -344.806589c -6.45  -4.74c
iter:  34 22:31:23  -344.806588c -6.69  -4.79c
Writing to output.gpw (mode='')

iter:  35 22:31:32  -344.806588c -6.74  -4.73c
iter:  36 22:31:40  -344.806589c -6.46  -4.72c
iter:  37 22:31:48  -344.806589c -6.77  -4.82c
iter:  38 22:31:56  -344.806589c -6.84  -4.71c
iter:  39 22:32:04  -344.806589c -6.72  -4.74c
Writing to output.gpw (mode='')

iter:  40 22:32:13  -344.806590c -7.11  -4.74c
iter:  41 22:32:21  -344.806591c -6.98  -4.80c
iter:  42 22:32:29  -344.806590c -7.07  -4.92c
iter:  43 22:32:37  -344.806590c -7.23  -5.09c
iter:  44 22:32:45  -344.806590c -7.21  -5.15c
Writing to output.gpw (mode='')

iter:  45 22:32:54  -344.806590c -7.53c -5.32c

Converged after 45 iterations.

Dipole moment: (-13.554379, -17.527777, 0.028860) |e|*Ang

Energy contributions relative to reference atoms: (reference = -17528.314784)

Kinetic:       +204.184743
Potential:     -191.001768
External:        +0.000000
XC:            -359.027916
Entropy (-ST):   -0.145959
Local:           +1.111330
--------------------------
Free energy:   -344.879570
Extrapolated:  -344.806590

Dipole-layer corrected work functions: 3.385162, 3.329682 eV

Showing only first 2 kpts
 Kpt  Band  Eigenvalues  Occupancy
  0    37     -3.58572    1.97941
  0    38     -3.46646    1.79703
  0    39     -3.21153    0.10257
  0    40     -3.09957    0.01145

  1    37     -3.42982    1.61937
  1    38     -3.36039    1.02972
  1    39     -3.33270    0.75770
  1    40     -3.23647    0.16347


Fermi level: -3.35742

No gap

Forces in eV/Ang:
  0 Li    0.01437   -0.00117   -0.27424
  1 Li   -0.00231    0.00162   -0.26064
  2 Li   -0.01237   -0.00053   -0.27303
  3 Li    0.00380    0.01161   -0.27469
  4 Li    0.00049    0.00196   -0.28511
  5 Li   -0.00475    0.01353   -0.27354
  6 Li    0.00204   -0.01075   -0.27282
  7 Li   -0.00060   -0.00420   -0.28461
  8 Li   -0.00206   -0.01374   -0.27198
  9 Li    0.00071    0.01207    0.31218
 10 Li    0.01909   -0.00313    0.25558
 11 Li   -0.02000   -0.00526    0.26042
 12 Li    0.00043   -0.01648    0.31877
 13 Li    0.01912    0.00315    0.25311
 14 Li   -0.02002    0.00622    0.25719
 15 Li    0.00023    0.00376    0.23423
 16 Li   -0.02728    0.00022    0.26848
 17 Li    0.02822   -0.00002    0.25958
 18 Li    0.05683    0.00004   -0.06460
 19 Li    0.00047    0.00135    0.06007
 20 Li   -0.05641   -0.00126   -0.07697
 21 Li   -0.02287   -0.01576    0.04366
 22 Li    0.00156    0.00668    0.03260
 23 Li    0.02212   -0.01306    0.04410
 24 Li   -0.01991    0.01781    0.05799
 25 Li    0.00178   -0.00733    0.02603
 26 Li    0.01911    0.01569    0.05258
 27 Li    0.00869    0.14795    0.04478
 28 Li    0.03249   -0.01505   -0.04674
 29 Li   -0.03696   -0.00845   -0.01087
 30 Li    0.00075   -0.15072    0.07326
 31 Li    0.03878    0.01369   -0.04778
 32 Li   -0.04379    0.01083   -0.02609
 33 Li    0.00441    0.01226   -0.01881
 34 Li   -0.01221    0.00403   -0.00166
 35 Li    0.00685    0.00017   -0.00894
 36 O    -0.11704   -1.59280   16.69566
 37 O     0.04464    0.03272   -0.06333
 38 C     0.54479   -0.09016    0.18469
 39 C    -0.34433    0.39423    1.02813
 40 C     0.07501    0.15393    0.01193
 41 H    -0.02139   -0.00397   -0.03271
 42 H    -0.00711    0.05782    0.05335
 43 H    -0.02924   -0.07456    0.32219
 44 H     0.12650   -0.51874    0.62827
 45 H     0.01617   -0.03620   -0.05225
 46 H    -0.02039   -0.01477   -0.00939
 47 H     0.88773    0.66167    1.04757
 48 H     0.04432   -0.10032    0.01018
 49 N    -0.06638    0.93461   -2.42093
 50 N    -1.14210    0.19936  -17.52142

System changes: positions 

Initializing position-dependent things.

Density initialized from wave functions
       .-----------------------.  
      /|                       |  
     / |                       |  
    /  |                       |  
   /   |                       |  
  /    |                       |  
 *     |                       |  
 |     |                       |  
 |     |                       |  
 |     |                       |  
 |     |                       |  
 |     |                       |  
 |     |                       |  
 |     |                       |  
 |     |H                      |  
 |     |                       |  
 |  H  |C HC  O         H O    |  
 |     |H     H                |  
 |  HLi|  H  Li      Li   N    |  
 |     |                  N    |  
 | Li  |  LLi     LLi     Li   |  
 |     |                       |  
 Li    |LLi     LLi     Li     |  
 |   Li|     Li      Li        |  
 |    Li  Li  Li  Li  Li  Li   |  
 | Li  |   Li      Li          |  
 |     |Li      Li      Li     |  
 Li    | Li      Li            |  
 |    Li      Li      Li       |  
 |     |                       |  
 |     |                       |  
 |     |                       |  
 |     |                       |  
 |     |                       |  
 |     |                       |  
 |     .-----------------------.  
 |    /                       /   
 |   /                       /    
 |  /                       /     
 | /                       /      
 |/                       /       
 *-----------------------*        

Positions:
   0 Li     1.617037    1.617037   10.000000    ( 0.0000,  0.0000,  0.0000)
   1 Li     4.851111    1.617037   10.000000    ( 0.0000,  0.0000,  0.0000)
   2 Li     8.085185    1.617037   10.000000    ( 0.0000,  0.0000,  0.0000)
   3 Li     1.617037    4.851111   10.000000    ( 0.0000,  0.0000,  0.0000)
   4 Li     4.851111    4.851111   10.000000    ( 0.0000,  0.0000,  0.0000)
   5 Li     8.085185    4.851111   10.000000    ( 0.0000,  0.0000,  0.0000)
   6 Li     1.617037    8.085185   10.000000    ( 0.0000,  0.0000,  0.0000)
   7 Li     4.851111    8.085185   10.000000    ( 0.0000,  0.0000,  0.0000)
   8 Li     8.085185    8.085185   10.000000    ( 0.0000,  0.0000,  0.0000)
   9 Li     0.000000    0.000000   11.617037    ( 0.0000,  0.0000,  0.0000)
  10 Li     3.234074    0.000000   11.617037    ( 0.0000,  0.0000,  0.0000)
  11 Li     6.468148    0.000000   11.617037    ( 0.0000,  0.0000,  0.0000)
  12 Li     0.000000    3.234074   11.617037    ( 0.0000,  0.0000,  0.0000)
  13 Li     3.234074    3.234074   11.617037    ( 0.0000,  0.0000,  0.0000)
  14 Li     6.468148    3.234074   11.617037    ( 0.0000,  0.0000,  0.0000)
  15 Li     0.000000    6.468148   11.617037    ( 0.0000,  0.0000,  0.0000)
  16 Li     3.234074    6.468148   11.617037    ( 0.0000,  0.0000,  0.0000)
  17 Li     6.468148    6.468148   11.617037    ( 0.0000,  0.0000,  0.0000)
  18 Li     1.617981    1.617070   13.468707    ( 0.0000,  0.0000,  0.0000)
  19 Li     4.851105    1.617050   13.470427    ( 0.0000,  0.0000,  0.0000)
  20 Li     8.084320    1.617044   13.468400    ( 0.0000,  0.0000,  0.0000)
  21 Li     1.616743    4.850959   13.470230    ( 0.0000,  0.0000,  0.0000)
  22 Li     4.851133    4.850951   13.470470    ( 0.0000,  0.0000,  0.0000)
  23 Li     8.085466    4.851065   13.470299    ( 0.0000,  0.0000,  0.0000)
  24 Li     1.616809    8.085384   13.470559    ( 0.0000,  0.0000,  0.0000)
  25 Li     4.851154    8.085370   13.470320    ( 0.0000,  0.0000,  0.0000)
  26 Li     8.085380    8.085250   13.470287    ( 0.0000,  0.0000,  0.0000)
  27 Li     0.000051    0.005360   15.450526    ( 0.0000,  0.0000,  0.0000)
  28 Li     3.233765    0.000090   15.445653    ( 0.0000,  0.0000,  0.0000)
  29 Li     6.468323    0.000297   15.446774    ( 0.0000,  0.0000,  0.0000)
  30 Li     0.000136    3.229040   15.450427    ( 0.0000,  0.0000,  0.0000)
  31 Li     3.233937    3.233897   15.445667    ( 0.0000,  0.0000,  0.0000)
  32 Li     6.468008    3.233896   15.446227    ( 0.0000,  0.0000,  0.0000)
  33 Li     0.000105    6.468434   15.446083    ( 0.0000,  0.0000,  0.0000)
  34 Li     3.234144    6.468286   15.446042    ( 0.0000,  0.0000,  0.0000)
  35 Li     6.467962    6.468098   15.445878    ( 0.0000,  0.0000,  0.0000)
  36 O     -0.015769    1.624761   19.772201    ( 0.0000,  0.0000,  0.0000)
  37 O      4.857669    1.595119   19.642331    ( 0.0000,  0.0000,  0.0000)
  38 C      2.398826    1.621554   19.662002    ( 0.0000,  0.0000,  0.0000)
  39 C      1.216113    0.709970   19.677528    ( 0.0000,  0.0000,  0.0000)
  40 C      3.684060    0.783230   19.636062    ( 0.0000,  0.0000,  0.0000)
  41 H      2.374979    2.275577   18.785408    ( 0.0000,  0.0000,  0.0000)
  42 H      2.395902    2.253036   20.548899    ( 0.0000,  0.0000,  0.0000)
  43 H      1.137800    0.105946   18.763078    ( 0.0000,  0.0000,  0.0000)
  44 H      1.123593    0.100931   20.544221    ( 0.0000,  0.0000,  0.0000)
  45 H      3.679121    0.109734   18.768577    ( 0.0000,  0.0000,  0.0000)
  46 H      3.754997    0.169032   20.536339    ( 0.0000,  0.0000,  0.0000)
  47 H     -0.834489    1.053113   19.683019    ( 0.0000,  0.0000,  0.0000)
  48 H      4.831330    2.171453   18.862230    ( 0.0000,  0.0000,  0.0000)
  49 N     -0.010594    1.620713   17.067974    ( 0.0000,  0.0000,  0.0000)
  50 N     -0.000091    1.659860   18.192225    ( 0.0000,  0.0000,  0.0000)

Unit cell:
           periodic     x           y           z      points  spacing
  1. axis:    yes    9.702222    0.000000    0.000000    60     0.1617
  2. axis:    yes    0.000000    9.702222    0.000000    60     0.1617
  3. axis:    no     0.000000    0.000000   28.601111   180     0.1589

  Lengths:   9.702222   9.702222  28.601111
  Angles:   90.000000  90.000000  90.000000

Effective grid spacing dv^(1/3) = 0.1608

     iter     time        total  log10-change:
                         energy  eigst   dens
iter:   1 22:33:04  -345.951053  -0.84
iter:   2 22:33:12  -345.909582  -1.11  -1.71
iter:   3 22:33:20  -345.889591  -1.68  -1.84
iter:   4 22:33:28  -345.873550c -1.27  -2.08
Writing to output.gpw (mode='')

iter:   5 22:33:36  -345.868033c -2.17  -2.18
iter:   6 22:33:44  -345.866484c -2.02  -2.38
iter:   7 22:33:53  -345.867762c -2.34  -2.56
iter:   8 22:34:01  -345.866544c -2.34  -2.53
iter:   9 22:34:09  -345.866211c -2.95  -2.80
Writing to output.gpw (mode='')

iter:  10 22:34:17  -345.866266c -2.66  -2.87
iter:  11 22:34:31  -345.866292c -2.96  -2.97
iter:  12 22:34:39  -345.866128c -3.43  -3.27
iter:  13 22:34:47  -345.866113c -3.51  -3.21
iter:  14 22:34:55  -345.866142c -3.71  -3.23
Writing to output.gpw (mode='')

iter:  15 22:35:04  -345.866109c -3.85  -3.42
iter:  16 22:35:12  -345.866116c -3.89  -3.52
iter:  17 22:35:21  -345.866122c -4.30  -3.63
iter:  18 22:35:30  -345.866135c -4.33  -3.70
iter:  19 22:35:39  -345.866132c -4.67  -3.79
Writing to output.gpw (mode='')

iter:  20 22:35:47  -345.866131c -4.84  -3.91
iter:  21 22:35:55  -345.866137c -4.85  -3.98
iter:  22 22:36:03  -345.866137c -5.00  -3.98
iter:  23 22:36:11  -345.866133c -5.16  -4.06c
iter:  24 22:36:19  -345.866135c -5.54  -4.20c
Writing to output.gpw (mode='')

iter:  25 22:36:28  -345.866138c -5.57  -4.20c
iter:  26 22:36:36  -345.866134c -5.55  -4.26c
iter:  27 22:36:44  -345.866139c -5.56  -4.26c
iter:  28 22:36:52  -345.866140c -5.67  -4.68c
iter:  29 22:37:00  -345.866141c -5.95  -4.67c
Writing to output.gpw (mode='')

iter:  30 22:37:08  -345.866140c -6.00  -4.72c
iter:  31 22:37:17  -345.866140c -6.24  -4.91c
iter:  32 22:37:25  -345.866141c -6.33  -4.98c
iter:  33 22:37:33  -345.866141c -6.50  -5.05c
iter:  34 22:37:41  -345.866140c -6.48  -5.04c
Writing to output.gpw (mode='')

iter:  35 22:37:49  -345.866140c -6.89  -5.18c
iter:  36 22:37:57  -345.866140c -6.83  -5.16c
iter:  37 22:38:05  -345.866140c -6.97  -5.06c
iter:  38 22:38:13  -345.866140c -7.13  -5.12c
iter:  39 22:38:21  -345.866140c -7.01  -5.22c
Writing to output.gpw (mode='')

iter:  40 22:38:29  -345.866140c -7.10  -5.23c
iter:  41 22:38:38  -345.866141c -7.21  -5.33c
iter:  42 22:38:46  -345.866141c -7.40c -5.62c

Converged after 42 iterations.

Dipole moment: (-12.757468, -17.571481, -0.020664) |e|*Ang

Energy contributions relative to reference atoms: (reference = -17528.314784)

Kinetic:       +202.208169
Potential:     -190.064472
External:        +0.000000
XC:            -359.054050
Entropy (-ST):   -0.141928
Local:           +1.115177
--------------------------
Free energy:   -345.937105
Extrapolated:  -345.866141

Dipole-layer corrected work functions: 3.385954, 3.425677 eV

Showing only first 2 kpts
 Kpt  Band  Eigenvalues  Occupancy
  0    37     -3.64552    1.98358
  0    38     -3.52544    1.83250
  0    39     -3.25250    0.08903
  0    40     -3.14790    0.01144

  1    37     -3.46762    1.54976
  1    38     -3.40846    1.02643
  1    39     -3.38049    0.75199
  1    40     -3.28478    0.16323


Fermi level: -3.40582

No gap
Writing to output.gpw (mode='')


Forces in eV/Ang:
  0 Li    0.01494   -0.00068   -0.27398
  1 Li   -0.00355    0.00140   -0.26051
  2 Li   -0.01217   -0.00013   -0.27299
  3 Li    0.00299    0.01044   -0.27365
  4 Li    0.00076    0.00104   -0.28463
  5 Li   -0.00375    0.01371   -0.27278
  6 Li    0.00155   -0.00978   -0.27266
  7 Li   -0.00016   -0.00345   -0.28274
  8 Li   -0.00157   -0.01393   -0.27205
  9 Li    0.00033    0.01369    0.31304
 10 Li    0.02047   -0.00331    0.25407
 11 Li   -0.02030   -0.00596    0.26001
 12 Li    0.00014   -0.01712    0.31649
 13 Li    0.02126    0.00368    0.25099
 14 Li   -0.02120    0.00718    0.25628
 15 Li    0.00035    0.00190    0.23230
 16 Li   -0.02866   -0.00034    0.26962
 17 Li    0.02892   -0.00067    0.26076
 18 Li    0.05953    0.00039   -0.06785
 19 Li    0.00183    0.00094    0.06371
 20 Li   -0.05863   -0.00060   -0.08607
 21 Li   -0.02380   -0.02051    0.04850
 22 Li    0.00174    0.00960    0.03032
 23 Li    0.02233   -0.01652    0.04768
 24 Li   -0.02188    0.02058    0.05939
 25 Li    0.00193   -0.00941    0.02542
 26 Li    0.02035    0.01709    0.05403
 27 Li    0.00371    0.15036    0.03761
 28 Li    0.03804   -0.01618   -0.05032
 29 Li   -0.04621   -0.01446   -0.01795
 30 Li   -0.00350   -0.12566    0.04499
 31 Li    0.04561    0.01666   -0.05454
 32 Li   -0.05285    0.01769   -0.03392
 33 Li    0.00288    0.01111   -0.02008
 34 Li   -0.01241    0.00348   -0.00223
 35 Li    0.00892    0.00055   -0.00844
 36 O    -0.47366   -2.58837   14.89743
 37 O     0.13940    0.06266   -0.09434
 38 C     0.59782   -0.15551    0.17495
 39 C    -1.28317    0.76794    0.71776
 40 C     0.05399    0.18821    0.02421
 41 H    -0.03680   -0.01374   -0.02159
 42 H    -0.00034    0.06869    0.07630
 43 H     0.06416   -0.09492    0.31630
 44 H     0.27296   -0.62887    0.67664
 45 H     0.02143   -0.03501   -0.04963
 46 H    -0.01211   -0.01680   -0.01037
 47 H     1.08006    0.68452    1.02730
 48 H     0.03614   -0.11362    0.03736
 49 N    -0.53782   -0.07680   -1.84374
 50 N     0.04116    1.85525  -15.95257

System changes: positions 

Initializing position-dependent things.

Density initialized from wave functions
       .-----------------------.  
      /|                       |  
     / |                       |  
    /  |                       |  
   /   |                       |  
  /    |                       |  
 *     |                       |  
 |     |                       |  
 |     |                       |  
 |     |                       |  
 |     |                       |  
 |     |                       |  
 |     |                       |  
 |     |                       |  
 |     |H                      |  
 |     |                       |  
 |  H  |C HC  O         H O    |  
 |     |H     H                |  
 |N HLi|  H  Li      Li        |  
 |     |                  N    |  
 | Li  |  LLi     LLi     Li   |  
 |     |                       |  
 Li    |LLi     LLi     Li     |  
 |   Li|     Li      Li        |  
 |    Li  Li  Li  Li  Li  Li   |  
 | Li  |   Li      Li          |  
 |     |Li      Li      Li     |  
 Li    | Li      Li            |  
 |    Li      Li      Li       |  
 |     |                       |  
 |     |                       |  
 |     |                       |  
 |     |                       |  
 |     |                       |  
 |     |                       |  
 |     .-----------------------.  
 |    /                       /   
 |   /                       /    
 |  /                       /     
 | /                       /      
 |/                       /       
 *-----------------------*        

Positions:
   0 Li     1.617037    1.617037   10.000000    ( 0.0000,  0.0000,  0.0000)
   1 Li     4.851111    1.617037   10.000000    ( 0.0000,  0.0000,  0.0000)
   2 Li     8.085185    1.617037   10.000000    ( 0.0000,  0.0000,  0.0000)
   3 Li     1.617037    4.851111   10.000000    ( 0.0000,  0.0000,  0.0000)
   4 Li     4.851111    4.851111   10.000000    ( 0.0000,  0.0000,  0.0000)
   5 Li     8.085185    4.851111   10.000000    ( 0.0000,  0.0000,  0.0000)
   6 Li     1.617037    8.085185   10.000000    ( 0.0000,  0.0000,  0.0000)
   7 Li     4.851111    8.085185   10.000000    ( 0.0000,  0.0000,  0.0000)
   8 Li     8.085185    8.085185   10.000000    ( 0.0000,  0.0000,  0.0000)
   9 Li     0.000000    0.000000   11.617037    ( 0.0000,  0.0000,  0.0000)
  10 Li     3.234074    0.000000   11.617037    ( 0.0000,  0.0000,  0.0000)
  11 Li     6.468148    0.000000   11.617037    ( 0.0000,  0.0000,  0.0000)
  12 Li     0.000000    3.234074   11.617037    ( 0.0000,  0.0000,  0.0000)
  13 Li     3.234074    3.234074   11.617037    ( 0.0000,  0.0000,  0.0000)
  14 Li     6.468148    3.234074   11.617037    ( 0.0000,  0.0000,  0.0000)
  15 Li     0.000000    6.468148   11.617037    ( 0.0000,  0.0000,  0.0000)
  16 Li     3.234074    6.468148   11.617037    ( 0.0000,  0.0000,  0.0000)
  17 Li     6.468148    6.468148   11.617037    ( 0.0000,  0.0000,  0.0000)
  18 Li     1.618300    1.617084   13.468347    ( 0.0000,  0.0000,  0.0000)
  19 Li     4.851114    1.617051   13.470686    ( 0.0000,  0.0000,  0.0000)
  20 Li     8.084028    1.617051   13.467900    ( 0.0000,  0.0000,  0.0000)
  21 Li     1.616640    4.850873   13.470426    ( 0.0000,  0.0000,  0.0000)
  22 Li     4.851141    4.850925   13.470684    ( 0.0000,  0.0000,  0.0000)
  23 Li     8.085559    4.851022   13.470506    ( 0.0000,  0.0000,  0.0000)
  24 Li     1.616720    8.085470   13.470829    ( 0.0000,  0.0000,  0.0000)
  25 Li     4.851168    8.085410   13.470502    ( 0.0000,  0.0000,  0.0000)
  26 Li     8.085454    8.085284   13.470475    ( 0.0000,  0.0000,  0.0000)
  27 Li     0.000027    0.007117   15.451963    ( 0.0000,  0.0000,  0.0000)
  28 Li     3.233733    0.000101   15.445528    ( 0.0000,  0.0000,  0.0000)
  29 Li     6.468290    0.000335   15.446965    ( 0.0000,  0.0000,  0.0000)
  30 Li     0.000143    3.227599   15.451670    ( 0.0000,  0.0000,  0.0000)
  31 Li     3.233964    3.233872   15.445519    ( 0.0000,  0.0000,  0.0000)
  32 Li     6.467878    3.233901   15.446243    ( 0.0000,  0.0000,  0.0000)
  33 Li     0.000125    6.468512   15.446100    ( 0.0000,  0.0000,  0.0000)
  34 Li     3.234160    6.468325   15.446064    ( 0.0000,  0.0000,  0.0000)
  35 Li     6.467924    6.468086   15.445857    ( 0.0000,  0.0000,  0.0000)
  36 O     -0.024083    1.616791   19.795751    ( 0.0000,  0.0000,  0.0000)
  37 O      4.857221    1.595075   19.642580    ( 0.0000,  0.0000,  0.0000)
  38 C      2.400839    1.622410   19.662575    ( 0.0000,  0.0000,  0.0000)
  39 C      1.227545    0.703195   19.682403    ( 0.0000,  0.0000,  0.0000)
  40 C      3.685446    0.783223   19.636098    ( 0.0000,  0.0000,  0.0000)
  41 H      2.375075    2.275361   18.785320    ( 0.0000,  0.0000,  0.0000)
  42 H      2.396001    2.253313   20.549326    ( 0.0000,  0.0000,  0.0000)
  43 H      1.138012    0.104853   18.765505    ( 0.0000,  0.0000,  0.0000)
  44 H      1.122752    0.099274   20.548325    ( 0.0000,  0.0000,  0.0000)
  45 H      3.679140    0.109711   18.768366    ( 0.0000,  0.0000,  0.0000)
  46 H      3.754948    0.168950   20.536288    ( 0.0000,  0.0000,  0.0000)
  47 H     -0.842791    1.048635   19.695697    ( 0.0000,  0.0000,  0.0000)
  48 H      4.831741    2.171074   18.861753    ( 0.0000,  0.0000,  0.0000)
  49 N     -0.017795    1.613203   17.043907    ( 0.0000,  0.0000,  0.0000)
  50 N      0.009871    1.686450   18.164051    ( 0.0000,  0.0000,  0.0000)

Unit cell:
           periodic     x           y           z      points  spacing
  1. axis:    yes    9.702222    0.000000    0.000000    60     0.1617
  2. axis:    yes    0.000000    9.702222    0.000000    60     0.1617
  3. axis:    no     0.000000    0.000000   28.601111   180     0.1589

  Lengths:   9.702222   9.702222  28.601111
  Angles:   90.000000  90.000000  90.000000

Effective grid spacing dv^(1/3) = 0.1608

     iter     time        total  log10-change:
                         energy  eigst   dens
iter:   1 22:38:56  -346.832463  -0.94
iter:   2 22:39:04  -346.781139  -1.14  -1.72
iter:   3 22:39:12  -346.760641  -1.80  -1.85
iter:   4 22:39:22  -346.756411c -1.28  -2.18
Writing to output.gpw (mode='')

iter:   5 22:39:34  -346.752864c -2.20  -2.26
iter:   6 22:39:43  -346.758015c -1.86  -2.45
iter:   7 22:39:51  -346.751677c -2.27  -2.27
iter:   8 22:39:59  -346.751500c -2.71  -2.73
iter:   9 22:40:07  -346.751679c -2.39  -2.83
Writing to output.gpw (mode='')

iter:  10 22:40:15  -346.751745c -2.98  -2.89
iter:  11 22:40:23  -346.751693c -3.20  -2.96
iter:  12 22:40:32  -346.751694c -3.60  -3.17
iter:  13 22:40:40  -346.751696c -3.86  -3.33
iter:  14 22:40:48  -346.751717c -3.85  -3.44
Writing to output.gpw (mode='')

iter:  15 22:40:56  -346.751724c -4.19  -3.53
iter:  16 22:41:04  -346.751729c -4.24  -3.58
iter:  17 22:41:13  -346.751733c -4.36  -3.71
iter:  18 22:41:21  -346.751735c -4.70  -3.83
iter:  19 22:41:29  -346.751733c -4.82  -3.82
Writing to output.gpw (mode='')

iter:  20 22:41:37  -346.751737c -4.90  -3.96
iter:  21 22:41:45  -346.751739c -5.06  -4.06c
iter:  22 22:41:53  -346.751743c -5.13  -4.09c
iter:  23 22:42:02  -346.751741c -5.45  -4.15c
iter:  24 22:42:10  -346.751740c -5.50  -4.21c
Writing to output.gpw (mode='')

iter:  25 22:42:18  -346.751741c -5.65  -4.23c
iter:  26 22:42:26  -346.751744c -5.60  -4.26c
iter:  27 22:42:35  -346.751743c -6.03  -4.49c
iter:  28 22:42:43  -346.751743c -5.94  -4.52c
iter:  29 22:42:51  -346.751745c -5.94  -4.57c
Writing to output.gpw (mode='')

iter:  30 22:42:59  -346.751745c -6.31  -4.79c
iter:  31 22:43:07  -346.751745c -6.48  -4.83c
iter:  32 22:43:15  -346.751745c -6.48  -4.88c
iter:  33 22:43:24  -346.751745c -6.61  -5.08c
iter:  34 22:43:32  -346.751745c -6.77  -5.15c
Writing to output.gpw (mode='')

iter:  35 22:43:40  -346.751744c -6.74  -5.21c
iter:  36 22:43:48  -346.751745c -7.10  -5.33c
iter:  37 22:43:57  -346.751745c -7.14  -5.36c
iter:  38 22:44:05  -346.751745c -7.22  -5.43c
iter:  39 22:44:13  -346.751745c -7.30  -5.46c
Writing to output.gpw (mode='')

iter:  40 22:44:27  -346.751745c -7.47c -5.57c

Converged after 40 iterations.

Dipole moment: (-12.181518, -17.627710, -0.034674) |e|*Ang

Energy contributions relative to reference atoms: (reference = -17528.314784)

Kinetic:       +199.920666
Potential:     -188.723696
External:        +0.000000
XC:            -358.998753
Entropy (-ST):   -0.141029
Local:           +1.120552
--------------------------
Free energy:   -346.822259
Extrapolated:  -346.751745

Dipole-layer corrected work functions: 3.385256, 3.451910 eV

Showing only first 2 kpts
 Kpt  Band  Eigenvalues  Occupancy
  0    37     -3.66091    1.98441
  0    38     -3.54386    1.84906
  0    39     -3.26140    0.08268
  0    40     -3.16117    0.01155

  1    37     -3.47351    1.49994
  1    38     -3.42176    1.03178
  1    39     -3.39287    0.74836
  1    40     -3.29926    0.16841


Fermi level: -3.41858

No gap

Forces in eV/Ang:
  0 Li    0.01507   -0.00047   -0.27374
  1 Li   -0.00415    0.00125   -0.26067
  2 Li   -0.01202    0.00026   -0.27302
  3 Li    0.00253    0.00947   -0.27292
  4 Li    0.00106    0.00018   -0.28400
  5 Li   -0.00314    0.01347   -0.27239
  6 Li    0.00115   -0.00891   -0.27227
  7 Li    0.00021   -0.00309   -0.28137
  8 Li   -0.00114   -0.01372   -0.27194
  9 Li   -0.00007    0.01427    0.31309
 10 Li    0.02112   -0.00365    0.25343
 11 Li   -0.01991   -0.00612    0.25994
 12 Li    0.00023   -0.01742    0.31468
 13 Li    0.02242    0.00387    0.25025
 14 Li   -0.02185    0.00786    0.25502
 15 Li    0.00048    0.00053    0.23171
 16 Li   -0.02927   -0.00010    0.27031
 17 Li    0.02877   -0.00141    0.26205
 18 Li    0.06075    0.00038   -0.06922
 19 Li    0.00309    0.00091    0.06570
 20 Li   -0.06012    0.00057   -0.09262
 21 Li   -0.02374   -0.02304    0.05032
 22 Li    0.00121    0.01156    0.02909
 23 Li    0.02211   -0.01942    0.04989
 24 Li   -0.02320    0.02238    0.06083
 25 Li    0.00203   -0.01066    0.02441
 26 Li    0.02092    0.01798    0.05498
 27 Li   -0.00330    0.15927    0.04006
 28 Li    0.04081   -0.01681   -0.05275
 29 Li   -0.05381   -0.01873   -0.02287
 30 Li   -0.00326   -0.10148    0.02583
 31 Li    0.04982    0.01802   -0.05883
 32 Li   -0.05945    0.02249   -0.03939
 33 Li    0.00177    0.01155   -0.02040
[...]
Entropy (-ST):   -0.146242
Local:           +1.165868
--------------------------
Free energy:   -352.577057
Extrapolated:  -352.503936

Dipole-layer corrected work functions: 3.398328, 3.636018 eV

Showing only first 2 kpts
 Kpt  Band  Eigenvalues  Occupancy
  0    37     -3.76135    1.98497
  0    38     -3.71074    1.95919
  0    39     -3.35929    0.08157
  0    40     -3.30520    0.02842

  1    37     -3.56224    1.42247
  1    38     -3.51886    1.01685
  1    39     -3.47840    0.63056
  1    40     -3.41083    0.21304


Fermi level: -3.51717

No gap
Writing to output.gpw (mode='')


Forces in eV/Ang:
  0 Li    0.02434   -0.00553   -0.26894
  1 Li   -0.00875   -0.00310   -0.26898
  2 Li   -0.01491   -0.00771   -0.26456
  3 Li   -0.00010    0.01296   -0.27640
  4 Li   -0.00075   -0.00588   -0.27778
  5 Li    0.00575    0.02072   -0.27703
  6 Li   -0.00179   -0.01252   -0.27312
  7 Li   -0.00098   -0.00124   -0.28902
  8 Li    0.00649   -0.01897   -0.26592
  9 Li   -0.00518   -0.02238    0.26526
 10 Li    0.01749   -0.00696    0.27606
 11 Li   -0.02958   -0.02364    0.27050
 12 Li   -0.00932    0.00802    0.32097
 13 Li    0.00917    0.01130    0.27450
 14 Li   -0.01532    0.02385    0.28957
 15 Li   -0.01148    0.05079    0.23458
 16 Li   -0.05079    0.02454    0.28791
 17 Li    0.04456    0.03084    0.27816
 18 Li   -0.00149    0.00049    0.01164
 19 Li    0.00605   -0.01030   -0.00788
 20 Li    0.00286    0.00573    0.00149
 21 Li    0.01524   -0.00116   -0.00137
 22 Li    0.00179    0.01140    0.00360
 23 Li   -0.01340   -0.00309   -0.00047
 24 Li   -0.00402   -0.00239   -0.00226
 25 Li    0.00307   -0.00430   -0.00957
 26 Li    0.00088   -0.00358   -0.00544
 27 Li   -0.00600    0.00279   -0.00080
 28 Li   -0.01116   -0.00322    0.00325
 29 Li    0.00910   -0.00298    0.00371
 30 Li   -0.00449    0.00361    0.01410
 31 Li   -0.00276   -0.00328   -0.00407
 32 Li    0.00151   -0.00520    0.00920
 33 Li   -0.00299    0.00321   -0.00318
 34 Li    0.00818    0.00879    0.00048
 35 Li   -0.00638    0.01127    0.00008
 36 O     0.01927    0.00463    0.01625
 37 O     0.01216    0.01124   -0.00343
 38 C    -0.00725   -0.01356   -0.00087
 39 C    -0.01314   -0.01042    0.00853
 40 C    -0.01372   -0.00550    0.00315
 41 H     0.04809   -0.00604   -0.01363
 42 H    -0.00040   -0.01168   -0.00967
 43 H     0.00356    0.00405   -0.01964
 44 H     0.01361    0.01282    0.01588
 45 H    -0.01431    0.00239   -0.00517
 46 H     0.00504   -0.01731   -0.00787
 47 H    -0.00620   -0.01080    0.00948
 48 H    -0.00724   -0.01387   -0.02431
 49 N    -0.00826   -0.03511    0.02416
 50 N    -0.02312    0.02502   -0.03857

System changes: positions 

Initializing position-dependent things.

Density initialized from wave functions
       .-----------------------.  
      /|                       |  
     / |                       |  
    /  |                       |  
   /   |                       |  
  /    |                       |  
 *     |                       |  
 |     |                       |  
 |     |                       |  
 |     |                       |  
 |     |   H                   |  
 |     |                       |  
 |     |  H     H              |  
 |     |                       |  
 |     |                       |  
 |     |H                      |  
 |O  C |C  H           LH      |  
 |     H   C  O                |  
 |     |     LH      Li   N  Li|  
 |     |  Li             NLi   |  
 | Li  |   Li     LLi          |  
 |     |Li              Li     |  
 |     | Li     Li       Li    |  
 |   Li|     Li      Li        |  
 |    Li  Li  Li  Li  Li  Li   |  
 | Li  |   Li      Li          |  
 |     |Li      Li      Li     |  
 Li    | Li      Li            |  
 |    Li      Li      Li       |  
 |     |                       |  
 |     |                       |  
 |     |                       |  
 |     |                       |  
 |     |                       |  
 |     |                       |  
 |     .-----------------------.  
 |    /                       /   
 |   /                       /    
 |  /                       /     
 | /                       /      
 |/                       /       
 *-----------------------*        

Positions:
   0 Li     1.617037    1.617037   10.000000    ( 0.0000,  0.0000,  0.0000)
   1 Li     4.851111    1.617037   10.000000    ( 0.0000,  0.0000,  0.0000)
   2 Li     8.085185    1.617037   10.000000    ( 0.0000,  0.0000,  0.0000)
   3 Li     1.617037    4.851111   10.000000    ( 0.0000,  0.0000,  0.0000)
   4 Li     4.851111    4.851111   10.000000    ( 0.0000,  0.0000,  0.0000)
   5 Li     8.085185    4.851111   10.000000    ( 0.0000,  0.0000,  0.0000)
   6 Li     1.617037    8.085185   10.000000    ( 0.0000,  0.0000,  0.0000)
   7 Li     4.851111    8.085185   10.000000    ( 0.0000,  0.0000,  0.0000)
   8 Li     8.085185    8.085185   10.000000    ( 0.0000,  0.0000,  0.0000)
   9 Li     0.000000    0.000000   11.617037    ( 0.0000,  0.0000,  0.0000)
  10 Li     3.234074    0.000000   11.617037    ( 0.0000,  0.0000,  0.0000)
  11 Li     6.468148    0.000000   11.617037    ( 0.0000,  0.0000,  0.0000)
  12 Li     0.000000    3.234074   11.617037    ( 0.0000,  0.0000,  0.0000)
  13 Li     3.234074    3.234074   11.617037    ( 0.0000,  0.0000,  0.0000)
  14 Li     6.468148    3.234074   11.617037    ( 0.0000,  0.0000,  0.0000)
  15 Li     0.000000    6.468148   11.617037    ( 0.0000,  0.0000,  0.0000)
  16 Li     3.234074    6.468148   11.617037    ( 0.0000,  0.0000,  0.0000)
  17 Li     6.468148    6.468148   11.617037    ( 0.0000,  0.0000,  0.0000)
  18 Li     1.589811    1.619714   13.456121    ( 0.0000,  0.0000,  0.0000)
  19 Li     4.850173    1.614295   13.481660    ( 0.0000,  0.0000,  0.0000)
  20 Li     8.074735    1.608594   13.440990    ( 0.0000,  0.0000,  0.0000)
  21 Li     1.582687    4.876859   13.489526    ( 0.0000,  0.0000,  0.0000)
  22 Li     4.845386    4.880195   13.460785    ( 0.0000,  0.0000,  0.0000)
  23 Li     8.108000    4.881372   13.485902    ( 0.0000,  0.0000,  0.0000)
  24 Li     1.569646    8.127690   13.540312    ( 0.0000,  0.0000,  0.0000)
  25 Li     4.846693    8.068699   13.482228    ( 0.0000,  0.0000,  0.0000)
  26 Li     8.104665    8.139695   13.554661    ( 0.0000,  0.0000,  0.0000)
  27 Li    -0.025420    0.158585   15.634482    ( 0.0000,  0.0000,  0.0000)
  28 Li     3.238044    0.009814   15.385466    ( 0.0000,  0.0000,  0.0000)
  29 Li     6.365212   -0.010574   15.466235    ( 0.0000,  0.0000,  0.0000)
  30 Li     0.008320    3.316158   15.450440    ( 0.0000,  0.0000,  0.0000)
  31 Li     3.260467    3.239428   15.352719    ( 0.0000,  0.0000,  0.0000)
  32 Li     6.382247    3.271096   15.366683    ( 0.0000,  0.0000,  0.0000)
  33 Li    -0.000829    6.525725   15.507615    ( 0.0000,  0.0000,  0.0000)
  34 Li     3.222910    6.459337   15.452929    ( 0.0000,  0.0000,  0.0000)
  35 Li     6.479197    6.457180   15.452167    ( 0.0000,  0.0000,  0.0000)
  36 O      0.153290    0.821313   20.198996    ( 0.0000,  0.0000,  0.0000)
  37 O      4.859642    1.494140   19.151355    ( 0.0000,  0.0000,  0.0000)
  38 C      2.467000    1.171816   19.686787    ( 0.0000,  0.0000,  0.0000)
  39 C      1.396421    0.132706   19.994346    ( 0.0000,  0.0000,  0.0000)
  40 C      3.845466    0.540160   19.487467    ( 0.0000,  0.0000,  0.0000)
  41 H      2.177268    1.717497   18.782442    ( 0.0000,  0.0000,  0.0000)
  42 H      2.513086    1.900131   20.501061    ( 0.0000,  0.0000,  0.0000)
  43 H      1.307306   -0.577521   19.158661    ( 0.0000,  0.0000,  0.0000)
  44 H      1.670907   -0.442158   20.889096    ( 0.0000,  0.0000,  0.0000)
  45 H      3.798292   -0.251092   18.723858    ( 0.0000,  0.0000,  0.0000)
  46 H      4.186402    0.077179   20.416401    ( 0.0000,  0.0000,  0.0000)
  47 H     -0.525441    0.171964   20.418400    ( 0.0000,  0.0000,  0.0000)
  48 H      4.665746    1.844372   18.269298    ( 0.0000,  0.0000,  0.0000)
  49 N     -0.291682    1.639952   16.984402    ( 0.0000,  0.0000,  0.0000)
  50 N     -0.424227    2.563375   17.619322    ( 0.0000,  0.0000,  0.0000)

Unit cell:
           periodic     x           y           z      points  spacing
  1. axis:    yes    9.702222    0.000000    0.000000    60     0.1617
  2. axis:    yes    0.000000    9.702222    0.000000    60     0.1617
  3. axis:    no     0.000000    0.000000   28.601111   180     0.1589

  Lengths:   9.702222   9.702222  28.601111
  Angles:   90.000000  90.000000  90.000000

Effective grid spacing dv^(1/3) = 0.1608

     iter     time        total  log10-change:
                         energy  eigst   dens
iter:   1 07:51:49  -352.504556  -2.65
iter:   2 07:51:57  -352.504501  -3.42  -2.99
iter:   3 07:52:05  -352.504456c -3.90  -3.07
iter:   4 07:52:13  -352.504340c -4.08  -3.15
Writing to output.gpw (mode='')

iter:   5 07:52:21  -352.504347c -4.14  -3.31
iter:   6 07:52:29  -352.504358c -3.96  -3.53
iter:   7 07:52:37  -352.504321c -4.95  -3.50
iter:   8 07:52:46  -352.504332c -4.99  -3.78
iter:   9 07:52:54  -352.504326c -5.36  -3.81
Writing to output.gpw (mode='')

iter:  10 07:53:02  -352.504330c -5.38  -4.02c
iter:  11 07:53:10  -352.504326c -5.71  -4.16c
iter:  12 07:53:18  -352.504326c -6.13  -4.21c
iter:  13 07:53:26  -352.504323c -6.13  -4.26c
iter:  14 07:53:35  -352.504325c -6.61  -4.47c
Writing to output.gpw (mode='')

iter:  15 07:53:44  -352.504325c -6.67  -4.60c
iter:  16 07:53:52  -352.504325c -7.05  -4.65c
iter:  17 07:54:00  -352.504324c -6.74  -4.70c
iter:  18 07:54:08  -352.504325c -7.12  -4.81c
iter:  19 07:54:16  -352.504325c -7.55c -5.06c

Converged after 19 iterations.

Dipole moment: (7.564155, -19.658501, -0.122693) |e|*Ang

Energy contributions relative to reference atoms: (reference = -17528.314784)

Kinetic:       +178.392380
Potential:     -174.425723
External:        +0.000000
XC:            -357.563843
Entropy (-ST):   -0.146230
Local:           +1.165977
--------------------------
Free energy:   -352.577440
Extrapolated:  -352.504325

Dipole-layer corrected work functions: 3.398321, 3.634179 eV

Showing only first 2 kpts
 Kpt  Band  Eigenvalues  Occupancy
  0    37     -3.76036    1.98495
  0    38     -3.70992    1.95927
  0    39     -3.35849    0.08178
  0    40     -3.30433    0.02845

  1    37     -3.56136    1.42277
  1    38     -3.51788    1.01626
  1    39     -3.47719    0.62810
  1    40     -3.40992    0.21309


Fermi level: -3.51625

No gap
Writing to output.gpw (mode='')


Forces in eV/Ang:
  0 Li    0.02438   -0.00543   -0.26883
  1 Li   -0.00879   -0.00332   -0.26906
  2 Li   -0.01491   -0.00758   -0.26437
  3 Li   -0.00004    0.01306   -0.27653
  4 Li   -0.00075   -0.00587   -0.27756
  5 Li    0.00567    0.02080   -0.27712
  6 Li   -0.00180   -0.01245   -0.27311
  7 Li   -0.00099   -0.00116   -0.28909
  8 Li    0.00656   -0.01898   -0.26581
  9 Li   -0.00515   -0.02318    0.26461
 10 Li    0.01636   -0.00722    0.27593
 11 Li   -0.02870   -0.02412    0.26952
 12 Li   -0.00910    0.00783    0.32140
 13 Li    0.00986    0.01083    0.27502
 14 Li   -0.01612    0.02371    0.28950
 15 Li   -0.01167    0.04935    0.23541
 16 Li   -0.05036    0.02513    0.28791
 17 Li    0.04428    0.03144    0.27786
 18 Li   -0.00121    0.00113    0.01031
 19 Li    0.00548   -0.00931   -0.00580
 20 Li    0.00290    0.00581    0.00202
 21 Li    0.01187   -0.00037   -0.00041
 22 Li    0.00178    0.00886    0.00252
 23 Li   -0.01047   -0.00179    0.00034
 24 Li   -0.00289   -0.00134   -0.00255
 25 Li    0.00258   -0.00528   -0.00863
 26 Li    0.00045   -0.00262   -0.00540
 27 Li   -0.00580    0.00330    0.00000
 28 Li   -0.00864   -0.00362    0.00218
 29 Li    0.00764   -0.00374    0.00295
 30 Li   -0.00391    0.00372    0.01205
 31 Li   -0.00192   -0.00137   -0.00325
 32 Li    0.00086   -0.00306    0.00891
 33 Li   -0.00258    0.00489   -0.00374
 34 Li    0.00761    0.00713    0.00091
 35 Li   -0.00630    0.00980    0.00030
 36 O     0.01458   -0.01201    0.01759
 37 O     0.00272   -0.00019   -0.00087
 38 C    -0.00089   -0.00932    0.00018
 39 C    -0.01026   -0.00425    0.00234
 40 C    -0.00899   -0.01150   -0.00603
 41 H     0.03776   -0.00537   -0.01558
 42 H    -0.00061   -0.00869   -0.00635
 43 H    -0.00081    0.00314   -0.01416
 44 H     0.00949    0.00937    0.01649
 45 H    -0.01197    0.00240   -0.00477
 46 H     0.00722   -0.01304   -0.00285
 47 H     0.00722    0.00116    0.00242
 48 H    -0.00742   -0.01176   -0.02212
 49 N    -0.01089   -0.03522    0.02879
 50 N    -0.01255    0.02662   -0.02682

Timing:                                      incl.     excl.
-------------------------------------------------------------------
Density initialized from wave functions:     8.168     8.165   0.0% |
 Symmetrize density:                         0.004     0.004   0.0% |
Forces:                                     78.385    78.385   0.2% |
Hamiltonian:                               891.222     0.021   0.0% |
 Atomic:                                     0.033     0.032   0.0% |
  XC Correction:                             0.000     0.000   0.0% |
 Calculate atomic Hamiltonians:              0.060     0.060   0.0% |
 Communicate:                               12.662    12.662   0.0% |
 Hartree integrate/restrict:                 3.246     3.246   0.0% |
 Initialize Hamiltonian:                     0.000     0.000   0.0% |
 Poisson:                                   44.070    16.408   0.0% |
  Communicate from 1D:                       4.354     4.354   0.0% |
  Communicate from 2D:                       4.298     4.298   0.0% |
  Communicate to 1D:                         2.407     2.407   0.0% |
  Communicate to 2D:                         4.804     4.804   0.0% |
  FFT 1D:                                    5.678     5.678   0.0% |
  FFT 2D:                                    6.120     6.120   0.0% |
 XC 3D grid:                               830.397   132.205   0.4% |
  VdW-DF integral:                         698.193     5.582   0.0% |
   Convolution:                             61.894    61.894   0.2% |
   FFT:                                     26.495    26.495   0.1% |
   gather:                                 233.901   233.901   0.6% |
   hmm1:                                    23.718    23.718   0.1% |
   hmm2:                                    31.258    31.258   0.1% |
   iFFT:                                    27.233    27.233   0.1% |
   potential:                              284.529     7.404   0.0% |
    collect:                                43.499    43.499   0.1% |
    p1:                                    128.362   128.362   0.4% |
    p2:                                     47.972    47.972   0.1% |
    sum:                                    57.293    57.293   0.2% |
   splines:                                  3.582     3.582   0.0% |
 vbar:                                       0.734     0.734   0.0% |
LCAO initialization:                         1.299     0.183   0.0% |
 LCAO eigensolver:                           0.213     0.000   0.0% |
  Calculate projections:                     0.000     0.000   0.0% |
  DenseAtomicCorrection:                     0.000     0.000   0.0% |
  Distribute overlap matrix:                 0.192     0.192   0.0% |
  Orbital Layouts:                           0.019     0.019   0.0% |
  Potential matrix:                          0.001     0.001   0.0% |
  Sum over cells:                            0.001     0.001   0.0% |
 LCAO to grid:                               0.750     0.750   0.0% |
 Set positions (LCAO WFS):                   0.152     0.094   0.0% |
  Basic WFS set positions:                   0.001     0.001   0.0% |
  Basis functions set positions:             0.000     0.000   0.0% |
  P tci:                                     0.000     0.000   0.0% |
  ST tci:                                    0.026     0.026   0.0% |
  mktci:                                     0.031     0.031   0.0% |
Redistribute:                                0.087     0.087   0.0% |
SCF-cycle:                               35013.441   589.148   1.6% ||
 Davidson:                               10340.173  3047.488   8.4% |--|
  Apply hamiltonian:                       670.068   670.068   1.9% ||
  Subspace diag:                          1931.348     0.484   0.0% |
   calc_h_matrix:                         1017.388   340.297   0.9% |
    Apply hamiltonian:                     677.091   677.091   1.9% ||
   diagonalize:                             61.472    61.472   0.2% |
   rotate_psi:                             852.004   852.004   2.4% ||
  calc. matrices:                         3297.898  1697.192   4.7% |-|
   Apply hamiltonian:                     1600.706  1600.706   4.4% |-|
  diagonalize:                              29.923    29.923   0.1% |
  rotate_psi:                             1363.449  1363.449   3.8% |-|
 Density:                                  177.961     0.105   0.0% |
  Atomic density matrices:                  18.971    18.971   0.1% |
  Mix:                                      76.125    76.125   0.2% |
  Multipole moments:                        10.333    10.333   0.0% |
  Pseudo density:                           72.426    72.324   0.2% |
   Symmetrize density:                       0.102     0.102   0.0% |
 Hamiltonian:                            23874.185     0.543   0.0% |
  Atomic:                                    0.975     0.964   0.0% |
   XC Correction:                            0.011     0.011   0.0% |
  Calculate atomic Hamiltonians:             1.527     1.527   0.0% |
  Communicate:                             343.256   343.256   0.9% |
  Hartree integrate/restrict:               90.402    90.402   0.2% |
  Poisson:                                1190.020   442.842   1.2% |
   Communicate from 1D:                    117.367   117.367   0.3% |
   Communicate from 2D:                    116.499   116.499   0.3% |
   Communicate to 1D:                       65.571    65.571   0.2% |
   Communicate to 2D:                      130.760   130.760   0.4% |
   FFT 1D:                                 153.461   153.461   0.4% |
   FFT 2D:                                 163.521   163.521   0.5% |
  XC 3D grid:                            22226.346  3589.399   9.9% |---|
   VdW-DF integral:                      18636.947   150.586   0.4% |
    Convolution:                          1668.912  1668.912   4.6% |-|
    FFT:                                   712.989   712.989   2.0% ||
    gather:                               6208.051  6208.051  17.2% |------|
    hmm1:                                  637.896   637.896   1.8% ||
    hmm2:                                  844.229   844.229   2.3% ||
    iFFT:                                  736.655   736.655   2.0% ||
    potential:                            7677.594   202.152   0.6% |
     collect:                             1200.823  1200.823   3.3% ||
     p1:                                  3461.279  3461.279   9.6% |---|
     p2:                                  1292.460  1292.460   3.6% ||
     sum:                                 1520.880  1520.880   4.2% |-|
    splines:                                 0.036     0.036   0.0% |
  vbar:                                     21.116    21.116   0.1% |
 Orthonormalize:                            31.974     0.022   0.0% |
  calc_s_matrix:                             5.024     5.024   0.0% |
  inverse-cholesky:                          7.880     7.880   0.0% |
  projections:                               0.003     0.003   0.0% |
  rotate_psi_s:                             19.044    19.044   0.1% |
Set symmetry:                                0.002     0.002   0.0% |
Other:                                     178.301   178.301   0.5% |
-------------------------------------------------------------------
Total:                                             36170.905 100.0%

Memory usage: 1.22 GiB
Date: Sat Mar 11 07:54:17 2023
