
  ___ ___ ___ _ _ _  
 |   |   |_  | | | | 
 | | | | | . | | | | 
 |__ |  _|___|_____|  22.8.0
 |___|_|             

User:   vazumah@r482.ib.bridges2.psc.edu
Date:   Fri Mar 10 12:22:51 2023
Arch:   x86_64
Pid:    98194
CWD:    /jet/home/vazumah/Calcs/LiMEAS/proton_donors/ethanediol_z/bridge/8.085_1.617/N2_x
Python: 3.11.0
gpaw:   /jet/home/vazumah/.conda/envs/GPAW_mpich/lib/python3.11/site-packages/gpaw
_gpaw:  /jet/home/vazumah/.conda/envs/GPAW_mpich/lib/python3.11/site-packages/
        _gpaw.cpython-311-x86_64-linux-gnu.so
ase:    /jet/home/vazumah/.conda/envs/GPAW_mpich/lib/python3.11/site-packages/ase (version 3.22.1)
numpy:  /jet/home/vazumah/.conda/envs/GPAW_mpich/lib/python3.11/site-packages/numpy (version 1.24.2)
scipy:  /jet/home/vazumah/.conda/envs/GPAW_mpich/lib/python3.11/site-packages/scipy (version 1.10.1)
libxc:  5.2.3
units:  Angstrom and eV
cores: 128
OpenMP: True
OMP_NUM_THREADS: 1

Input parameters:
  h: 0.16
  kpts: {size: [4, 4, 1]}
  occupations: {name: fermi-dirac,
                width: 0.05}
  poissonsolver: {dipolelayer: xy}
  xc: BEEF-vdW

System changes: positions, numbers, cell, pbc, initial_charges, initial_magmoms 

Initialize ...

species:
  Li:
    name: Lithium
    id: 830b4218f175192f93f959cfc0aad614
    Z: 3.0
    valence: 1
    core: 2
    charge: 0.0
    file: /jet/home/vazumah/datasets/gpaw-setups-0.9.20000/Li.PBE.gz
    compensation charges: {type: gauss,
                           rc: 0.33,
                           lmax: 2}
    cutoffs: {filter: 1.91,
              core: 2.55}
    valence states:
      #              energy  rcut
      - 2s(1.00)    -2.874   1.058
      - 2p(0.00)    -1.090   1.058
      -  s          24.337   1.058
  
    # Using partial waves for Li as LCAO basis

  O:
    name: Oxygen
    id: 32ecd46bf208036f09c70b0ec9a88b78
    Z: 8.0
    valence: 6
    core: 2
    charge: 0.0
    file: /jet/home/vazumah/datasets/gpaw-setups-0.9.20000/O.PBE.gz
    compensation charges: {type: gauss,
                           rc: 0.21,
                           lmax: 2}
    cutoffs: {filter: 1.17,
              core: 0.83}
    valence states:
      #              energy  rcut
      - 2s(2.00)   -23.961   0.688
      - 2p(4.00)    -9.029   0.598
      -  s           3.251   0.688
      -  p          18.182   0.598
      -  d           0.000   0.619
  
    # Using partial waves for O as LCAO basis

  C:
    name: Carbon
    id: 4aa54d4b901d75f77cc0ea3eec22967b
    Z: 6.0
    valence: 4
    core: 2
    charge: 0.0
    file: /jet/home/vazumah/datasets/gpaw-setups-0.9.20000/C.PBE.gz
    compensation charges: {type: gauss,
                           rc: 0.20,
                           lmax: 2}
    cutoffs: {filter: 1.14,
              core: 1.14}
    valence states:
      #              energy  rcut
      - 2s(2.00)   -13.751   0.635
      - 2p(2.00)    -5.284   0.635
      -  s          13.461   0.635
      -  p          21.927   0.635
      -  d           0.000   0.635
  
    # Using partial waves for C as LCAO basis

  H:
    name: Hydrogen
    id: d65de229564ff8ea4db303e23b6d1ecf
    Z: 1.0
    valence: 1
    core: 0
    charge: 0.0
    file: /jet/home/vazumah/datasets/gpaw-setups-0.9.20000/H.PBE.gz
    compensation charges: {type: gauss,
                           rc: 0.15,
                           lmax: 2}
    cutoffs: {filter: 0.85,
              core: 0.53}
    valence states:
      #              energy  rcut
      - 1s(1.00)    -6.494   0.476
      -  s          20.717   0.476
      -  p           0.000   0.476
  
    # Using partial waves for H as LCAO basis

  N:
    name: Nitrogen
    id: f7500608b86eaa90eef8b1d9a670dc53
    Z: 7.0
    valence: 5
    core: 2
    charge: 0.0
    file: /jet/home/vazumah/datasets/gpaw-setups-0.9.20000/N.PBE.gz
    compensation charges: {type: gauss,
                           rc: 0.18,
                           lmax: 2}
    cutoffs: {filter: 1.11,
              core: 0.96}
    valence states:
      #              energy  rcut
      - 2s(2.00)   -18.583   0.603
      - 2p(3.00)    -7.089   0.529
      -  s           8.629   0.603
      -  p          20.123   0.529
      -  d           0.000   0.577
  
    # Using partial waves for N as LCAO basis

Reference energy: -16475.706344  # eV

Spin-paired calculation

Convergence criteria:
 Maximum [total energy] change in last 3 cyles: 0.0005 eV / electron
 Maximum integral of absolute [dens]ity change: 0.0001 electrons / valence electron
 Maximum integral of absolute [eigenst]ate change: 4e-08 eV^2 / valence electron
 Maximum number of scf [iter]ations: 333
 (Square brackets indicate name in SCF output, whereas a 'c' in
 the SCF output indicates the quantity has converged.)

Symmetries present (total): 1

  ( 1  0  0)
  ( 0  1  0)
  ( 0  0  1)

16 k-points: 4 x 4 x 1 Monkhorst-Pack grid
8 k-points in the irreducible part of the Brillouin zone
       k-points in crystal coordinates                weights
   0:     0.12500000   -0.37500000    0.00000000          2/16
   1:     0.12500000   -0.12500000    0.00000000          2/16
   2:     0.12500000    0.12500000    0.00000000          2/16
   3:     0.12500000    0.37500000    0.00000000          2/16
   4:     0.37500000   -0.37500000    0.00000000          2/16
   5:     0.37500000   -0.12500000    0.00000000          2/16
   6:     0.37500000    0.12500000    0.00000000          2/16
   7:     0.37500000    0.37500000    0.00000000          2/16

Wave functions: Uniform real-space grid
  Kinetic energy operator: 6*3+1=19 point O(h^6) finite-difference Laplacian
  ScaLapack parameters: grid=1x1, blocksize=None
  Wavefunction extrapolation:
    Improved wavefunction reuse through dual PAW basis 

Occupation numbers: Fermi-Dirac:
  width: 0.0500  # eV
 

Eigensolver
   Davidson(niter=2) 

Densities:
  Coarse grid: 60*60*164 grid
  Fine grid: 120*120*328 grid
  Total Charge: 0.000000 

Density mixing:
  Method: separate
  Backend: pulay
  Linear mixing parameter: 0.05
  old densities: 5
  Damping of long wavelength oscillations: 50 

Hamiltonian:
  XC and Coulomb potentials evaluated on a 120*120*328 grid
  Using the BEEF-vdW Exchange-Correlation functional
  Interpolation: tri-quintic (5. degree polynomial)
  Poisson solver: FastPoissonSolver using
    Stencil: 6*3+1=19 point O(h^6) finite-difference Laplacian
    FFT axes: [0, 1]
    FST axes: [2]

Dipole correction along z-axis 

XC parameters: BEEF-vdW with 2 nearest neighbor stencil

Memory estimate:
  Process memory now: 125.31 MiB
  Calculator: 84.78 MiB
    Density: 22.56 MiB
      Arrays: 7.22 MiB
      Localized functions: 12.59 MiB
      Mixer: 2.75 MiB
    Hamiltonian: 5.72 MiB
      Arrays: 4.72 MiB
      XC: 0.00 MiB
      Poisson: 0.00 MiB
      vbar: 0.99 MiB
    Wavefunctions: 56.50 MiB
      Arrays psit_nG: 26.37 MiB
      Eigensolver: 29.47 MiB
      Projections: 0.01 MiB
      Projectors: 0.66 MiB

Total number of cores used: 128
Parallelization over k-points: 8
Domain decomposition: 2 x 2 x 4

Number of atoms: 48
Number of atomic orbitals: 174
Number of bands in calculation: 48
Number of valence electrons: 72
Bands to converge: occupied

... initialized

Initializing position-dependent things.

Density initialized from atomic densities
Creating initial wave functions:
  48 bands from LCAO basis set

       .-----------------------.  
      /|                       |  
     / |                       |  
    /  |                       |  
   /   |                       |  
  /    |                       |  
 *     |                       |  
 |     |                       |  
 |     |                       |  
 |     |                       |  
 |     |               H       |  
 |     |             O C  H    |  
 |     |             H         |  
 |     |           H  CH       |  
 |     |                       |  
 |   Li|     Li      LO H      |  
 |     |           N  N        |  
 | Li  |  LLi     LLi     Li   |  
 |     |                       |  
 Li    |LLi     LLi     Li     |  
 |   Li|     Li      Li        |  
 |    Li  Li  Li  Li  Li  Li   |  
 | Li  |   Li      Li          |  
 |     |Li      Li      Li     |  
 Li    | Li      Li            |  
 |    Li      Li      Li       |  
 |     |                       |  
 |     |                       |  
 |     |                       |  
 |     |                       |  
 |     |                       |  
 |     |                       |  
 |     .-----------------------.  
 |    /                       /   
 |   /                       /    
 |  /                       /     
 | /                       /      
 |/                       /       
 *-----------------------*        

Positions:
   0 Li     1.617037    1.617037   10.000000    ( 0.0000,  0.0000,  0.0000)
   1 Li     4.851111    1.617037   10.000000    ( 0.0000,  0.0000,  0.0000)
   2 Li     8.085185    1.617037   10.000000    ( 0.0000,  0.0000,  0.0000)
   3 Li     1.617037    4.851111   10.000000    ( 0.0000,  0.0000,  0.0000)
   4 Li     4.851111    4.851111   10.000000    ( 0.0000,  0.0000,  0.0000)
   5 Li     8.085185    4.851111   10.000000    ( 0.0000,  0.0000,  0.0000)
   6 Li     1.617037    8.085185   10.000000    ( 0.0000,  0.0000,  0.0000)
   7 Li     4.851111    8.085185   10.000000    ( 0.0000,  0.0000,  0.0000)
   8 Li     8.085185    8.085185   10.000000    ( 0.0000,  0.0000,  0.0000)
   9 Li     0.000000    0.000000   11.617037    ( 0.0000,  0.0000,  0.0000)
  10 Li     3.234074    0.000000   11.617037    ( 0.0000,  0.0000,  0.0000)
  11 Li     6.468148    0.000000   11.617037    ( 0.0000,  0.0000,  0.0000)
  12 Li     0.000000    3.234074   11.617037    ( 0.0000,  0.0000,  0.0000)
  13 Li     3.234074    3.234074   11.617037    ( 0.0000,  0.0000,  0.0000)
  14 Li     6.468148    3.234074   11.617037    ( 0.0000,  0.0000,  0.0000)
  15 Li     0.000000    6.468148   11.617037    ( 0.0000,  0.0000,  0.0000)
  16 Li     3.234074    6.468148   11.617037    ( 0.0000,  0.0000,  0.0000)
  17 Li     6.468148    6.468148   11.617037    ( 0.0000,  0.0000,  0.0000)
  18 Li     1.617038    1.617038   13.469728    ( 0.0000,  0.0000,  0.0000)
  19 Li     4.851111    1.617038   13.469729    ( 0.0000,  0.0000,  0.0000)
  20 Li     8.085184    1.617038   13.469728    ( 0.0000,  0.0000,  0.0000)
  21 Li     1.617038    4.851111   13.469729    ( 0.0000,  0.0000,  0.0000)
  22 Li     4.851111    4.851111   13.469730    ( 0.0000,  0.0000,  0.0000)
  23 Li     8.085184    4.851111   13.469729    ( 0.0000,  0.0000,  0.0000)
  24 Li     1.617038    8.085184   13.469728    ( 0.0000,  0.0000,  0.0000)
  25 Li     4.851111    8.085184   13.469729    ( 0.0000,  0.0000,  0.0000)
  26 Li     8.085184    8.085184   13.469728    ( 0.0000,  0.0000,  0.0000)
  27 Li    -0.000000   -0.000000   15.445939    ( 0.0000,  0.0000,  0.0000)
  28 Li     3.234074    0.000000   15.445939    ( 0.0000,  0.0000,  0.0000)
  29 Li     6.468148    0.000000   15.445939    ( 0.0000,  0.0000,  0.0000)
  30 Li     0.000000    3.234074   15.445939    ( 0.0000,  0.0000,  0.0000)
  31 Li     3.234076    3.234076   15.445938    ( 0.0000,  0.0000,  0.0000)
  32 Li     6.468146    3.234076   15.445938    ( 0.0000,  0.0000,  0.0000)
  33 Li     0.000000    6.468148   15.445939    ( 0.0000,  0.0000,  0.0000)
  34 Li     3.234076    6.468146   15.445938    ( 0.0000,  0.0000,  0.0000)
  35 Li     6.468146    6.468146   15.445938    ( 0.0000,  0.0000,  0.0000)
  36 O      8.085185    1.617037   18.445939    ( 0.0000,  0.0000,  0.0000)
  37 O      7.852496    1.661030   21.344137    ( 0.0000,  0.0000,  0.0000)
  38 C      7.672808    2.788249   19.174500    ( 0.0000,  0.0000,  0.0000)
  39 C      8.241959    2.801939   20.583686    ( 0.0000,  0.0000,  0.0000)
  40 H      7.965641    3.702639   18.646375    ( 0.0000,  0.0000,  0.0000)
  41 H      6.583241    2.740951   19.207249    ( 0.0000,  0.0000,  0.0000)
  42 H      7.865478    3.676205   21.120404    ( 0.0000,  0.0000,  0.0000)
  43 H      9.341020    2.877440   20.533956    ( 0.0000,  0.0000,  0.0000)
  44 H      9.032506    1.691552   18.276515    ( 0.0000,  0.0000,  0.0000)
  45 H      7.948935    0.893910   20.764672    ( 0.0000,  0.0000,  0.0000)
  46 N      8.085000    1.617000   16.945939    ( 0.0000,  0.0000,  0.0000)
  47 N      6.988378    1.617000   16.945939    ( 0.0000,  0.0000,  0.0000)

Unit cell:
           periodic     x           y           z      points  spacing
  1. axis:    yes    9.702222    0.000000    0.000000    60     0.1617
  2. axis:    yes    0.000000    9.702222    0.000000    60     0.1617
  3. axis:    no     0.000000    0.000000   26.351111   164     0.1607

  Lengths:   9.702222   9.702222  26.351111
  Angles:   90.000000  90.000000  90.000000

Effective grid spacing dv^(1/3) = 0.1614

     iter     time        total  log10-change:
                         energy  eigst   dens
iter:   1 12:23:06  -670.525952
iter:   2 12:23:14    -9.131072  +2.64  +0.04
iter:   3 12:23:22    24.580465  +3.26  -0.16
iter:   4 12:23:29  -196.244459  +3.28  -0.25
Writing to output.gpw (mode='')

iter:   5 12:23:36  -269.690225  +2.87  -0.26
iter:   6 12:23:44  -317.310187  +2.48  -0.50
iter:   7 12:23:51  -330.828788  +2.16  -0.54
iter:   8 12:23:59  -356.282956  +2.03  -0.54
iter:   9 12:24:06  -437.360928  +2.33  -0.47
Writing to output.gpw (mode='')

iter:  10 12:24:14  -386.300366  +1.78  -0.41
iter:  11 12:24:21  -327.453973  +1.52  -0.45
iter:  12 12:24:28  -329.443514  +1.20  -0.74
iter:  13 12:24:44  -335.902451  +1.37  -0.72
iter:  14 12:24:51  -329.719741  +0.47  -0.62
Writing to output.gpw (mode='')

iter:  15 12:24:58  -328.794014  +1.11  -0.71
iter:  16 12:25:06  -329.159741  +0.81  -0.78
iter:  17 12:25:16  -324.866359  +0.51  -0.70
iter:  18 12:25:23  -322.911802  +0.53  -0.86
iter:  19 12:25:31  -322.119115  +0.40  -0.92
Writing to output.gpw (mode='')

iter:  20 12:25:38  -321.508981  +0.40  -0.96
iter:  21 12:25:47  -321.027133  -0.38  -1.09
iter:  22 12:26:00  -320.986117  -0.25  -1.25
iter:  23 12:26:10  -320.711663  +0.22  -1.43
iter:  24 12:26:18  -320.734042  -0.40  -1.52
Writing to output.gpw (mode='')

iter:  25 12:26:25  -320.693306  -0.75  -1.55
iter:  26 12:26:32  -320.682111  -0.84  -1.70
iter:  27 12:26:40  -320.686618c -0.99  -1.82
iter:  28 12:26:47  -320.690871c -1.34  -1.87
iter:  29 12:26:55  -320.699043c -1.36  -1.95
Writing to output.gpw (mode='')

iter:  30 12:27:02  -320.699735c -1.29  -2.07
iter:  31 12:27:09  -320.702158c -1.71  -2.16
iter:  32 12:27:17  -320.705592c -1.81  -2.19
iter:  33 12:27:24  -320.708892c -1.63  -2.16
iter:  34 12:27:32  -320.711545c -1.73  -2.21
Writing to output.gpw (mode='')

iter:  35 12:27:39  -320.714891c -1.93  -2.19
iter:  36 12:27:46  -320.716409c -1.82  -2.16
iter:  37 12:27:54  -320.720782c -1.84  -2.16
iter:  38 12:28:01  -320.722531c -2.01  -2.11
iter:  39 12:28:09  -320.726306c -1.85  -2.09
Writing to output.gpw (mode='')

iter:  40 12:28:16  -320.728964c -2.01  -2.07
iter:  41 12:28:24  -320.728061c -2.29  -2.06
iter:  42 12:28:31  -320.731539c -1.99  -2.06
iter:  43 12:28:38  -320.728358c -1.95  -2.02
iter:  44 12:28:46  -320.727416c -2.14  -2.05
Writing to output.gpw (mode='')

iter:  45 12:28:53  -320.727911c -2.15  -2.13
iter:  46 12:29:01  -320.724247c -2.60  -2.36
iter:  47 12:29:08  -320.724357c -2.83  -2.43
iter:  48 12:29:15  -320.724327c -2.67  -2.47
iter:  49 12:29:23  -320.724062c -2.83  -2.64
Writing to output.gpw (mode='')

iter:  50 12:29:30  -320.723943c -2.97  -2.73
iter:  51 12:29:43  -320.723771c -3.07  -2.89
iter:  52 12:29:51  -320.724143c -3.37  -2.98
iter:  53 12:29:58  -320.724005c -3.32  -3.03
iter:  54 12:30:05  -320.724029c -3.81  -3.20
Writing to output.gpw (mode='')

iter:  55 12:30:13  -320.723986c -3.59  -3.23
iter:  56 12:30:20  -320.724171c -3.63  -3.29
iter:  57 12:30:28  -320.724187c -3.77  -3.31
iter:  58 12:30:35  -320.724159c -4.04  -3.35
iter:  59 12:30:42  -320.724199c -3.79  -3.53
Writing to output.gpw (mode='')

iter:  60 12:30:50  -320.724199c -4.07  -3.76
iter:  61 12:30:57  -320.724226c -4.20  -3.78
iter:  62 12:31:05  -320.724277c -4.30  -3.84
iter:  63 12:31:12  -320.724279c -4.24  -4.02c
iter:  64 12:31:20  -320.724258c -4.52  -4.17c
Writing to output.gpw (mode='')

iter:  65 12:31:27  -320.724280c -4.51  -4.19c
iter:  66 12:31:34  -320.724281c -4.38  -4.26c
iter:  67 12:31:42  -320.724302c -4.65  -4.30c
iter:  68 12:31:49  -320.724304c -4.61  -4.34c
iter:  69 12:31:57  -320.724300c -4.80  -4.45c
Writing to output.gpw (mode='')

iter:  70 12:32:04  -320.724304c -4.93  -4.49c
iter:  71 12:32:12  -320.724307c -4.90  -4.57c
iter:  72 12:32:19  -320.724307c -5.08  -4.59c
iter:  73 12:32:27  -320.724311c -5.12  -4.61c
iter:  74 12:32:34  -320.724313c -5.01  -4.62c
Writing to output.gpw (mode='')

iter:  75 12:32:42  -320.724314c -5.05  -4.63c
iter:  76 12:32:49  -320.724314c -5.36  -4.63c
iter:  77 12:32:56  -320.724315c -5.27  -4.64c
iter:  78 12:33:04  -320.724305c -5.49  -4.62c
iter:  79 12:33:11  -320.724312c -5.54  -4.53c
Writing to output.gpw (mode='')

iter:  80 12:33:19  -320.724313c -5.47  -4.62c
iter:  81 12:33:26  -320.724326c -5.63  -4.66c
iter:  82 12:33:34  -320.724319c -5.62  -4.79c
iter:  83 12:33:41  -320.724322c -5.74  -5.00c
iter:  84 12:33:48  -320.724323c -5.52  -5.11c
Writing to output.gpw (mode='')

iter:  85 12:33:56  -320.724322c -5.58  -5.22c
iter:  86 12:34:03  -320.724324c -5.85  -5.29c
iter:  87 12:34:10  -320.724323c -5.94  -5.34c
iter:  88 12:34:18  -320.724324c -6.09  -5.52c
iter:  89 12:34:25  -320.724324c -6.07  -5.59c
Writing to output.gpw (mode='')

iter:  90 12:34:33  -320.724324c -6.15  -5.58c
iter:  91 12:34:47  -320.724324c -6.26  -5.61c
iter:  92 12:34:55  -320.724324c -6.32  -5.70c
iter:  93 12:35:02  -320.724325c -6.33  -5.78c
iter:  94 12:35:10  -320.724325c -6.37  -5.84c
Writing to output.gpw (mode='')

iter:  95 12:35:17  -320.724325c -6.48  -5.95c
iter:  96 12:35:24  -320.724325c -6.49  -5.95c
iter:  97 12:35:32  -320.724325c -6.57  -6.09c
iter:  98 12:35:39  -320.724325c -6.61  -6.11c
iter:  99 12:35:47  -320.724325c -6.63  -6.17c
Writing to output.gpw (mode='')

iter: 100 12:35:54  -320.724326c -6.64  -6.19c
iter: 101 12:36:02  -320.724326c -6.69  -6.26c
iter: 102 12:36:09  -320.724326c -6.76  -6.42c
iter: 103 12:36:16  -320.724326c -6.74  -6.46c
iter: 104 12:36:24  -320.724326c -6.81  -6.54c
Writing to output.gpw (mode='')

iter: 105 12:36:31  -320.724326c -6.91  -6.49c
iter: 106 12:36:38  -320.724326c -6.91  -6.39c
iter: 107 12:36:46  -320.724326c -6.98  -6.29c
iter: 108 12:36:53  -320.724326c -6.99  -6.28c
iter: 109 12:37:00  -320.724326c -7.16  -6.30c
Writing to output.gpw (mode='')

iter: 110 12:37:08  -320.724326c -7.14  -6.20c
iter: 111 12:37:15  -320.724326c -7.15  -6.17c
iter: 112 12:37:23  -320.724326c -7.25  -6.16c
iter: 113 12:37:30  -320.724326c -7.24  -6.12c
iter: 114 12:37:37  -320.724325c -7.38  -6.10c
Writing to output.gpw (mode='')

iter: 115 12:37:45  -320.724326c -7.42c -5.91c

Converged after 115 iterations.

Dipole moment: (1.049607, -3.687638, 0.163444) |e|*Ang

Energy contributions relative to reference atoms: (reference = -16475.706344)

Kinetic:       +193.535474
Potential:     -176.996069
External:        +0.000000
XC:            -338.272876
Entropy (-ST):   -0.168647
Local:           +1.093469
--------------------------
Free energy:   -320.808649
Extrapolated:  -320.724326

Dipole-layer corrected work functions: 3.374113, 3.059918 eV

Showing only first 2 kpts
 Kpt  Band  Eigenvalues  Occupancy
  0    34     -3.46520    1.98612
  0    35     -3.31853    1.76787
  0    36     -3.12554    0.27658
  0    37     -2.98895    0.02068

  1    34     -3.25621    1.37300
  1    35     -3.24118    1.23707
  1    36     -3.15979    0.48299
  1    37     -3.12849    0.29095


Fermi level: -3.21702

Gap: 0.038 eV
Transition (v -> c):
  (s=0, k=2, n=35, [0.12, 0.12, 0.00]) -> (s=0, k=4, n=36, [0.38, -0.38, 0.00])

Forces in eV/Ang:
  0 Li    0.01189   -0.00051   -0.26775
  1 Li   -0.02032   -0.00034   -0.27618
  2 Li    0.00885    0.00120   -0.28228
  3 Li   -0.00058   -0.00362   -0.27428
  4 Li    0.00760    0.01211   -0.27530
  5 Li   -0.00716    0.02193   -0.27547
  6 Li    0.00077    0.00444   -0.27167
  7 Li    0.00583   -0.01186   -0.27851
  8 Li   -0.00719   -0.02337   -0.27412
  9 Li    0.00727    0.00696    0.29542
 10 Li   -0.00880    0.00376    0.24731
 11 Li    0.00124    0.00704    0.31986
 12 Li    0.00762   -0.00636    0.29504
 13 Li   -0.01101   -0.00426    0.25047
 14 Li    0.00216   -0.00616    0.31774
 15 Li   -0.01675   -0.00040    0.24813
 16 Li    0.00624   -0.00027    0.28321
 17 Li    0.00861   -0.00047    0.22608
 18 Li    0.00751   -0.00157    0.06078
 19 Li   -0.05097    0.00274   -0.09149
 20 Li    0.01409   -0.00122   -0.23612
 21 Li   -0.01333   -0.00133    0.03338
 22 Li    0.02511   -0.03185    0.06331
 23 Li   -0.00915   -0.01131    0.04976
 24 Li   -0.01735    0.00298    0.04156
 25 Li    0.02607    0.02947    0.05541
 26 Li   -0.00702    0.01298    0.04192
 27 Li    0.12009   -0.04473   -0.04213
 28 Li   -0.06710   -0.02220   -0.02539
 29 Li   -0.06529    0.13307    0.08805
 30 Li    0.12545    0.05476   -0.06374
 31 Li   -0.06433    0.02430   -0.02096
 32 Li   -0.04720   -0.12165    0.05305
 33 Li   -0.03111   -0.00904   -0.00406
 34 Li    0.01947   -0.00200   -0.00405
 35 Li    0.01035   -0.00439   -0.02849
 36 O     6.07972   -0.48010   12.01231
 37 O    -0.07290    0.05400   -0.08373
 38 C    -0.76250    1.22915    0.89696
 39 C     0.23858   -0.28165    0.01261
 40 H     0.13110   -0.10260   -0.20680
 41 H     0.05832   -0.06015   -0.05140
 42 H    -0.01843    0.02242   -0.08238
 43 H    -0.08291    0.03385    0.00955
 44 H     1.72648   -0.14402    1.87652
 45 H     0.02416   -0.10396    0.12861
 46 N     4.62549    0.08832   -6.51446
 47 N   -11.87641   -0.26282   -7.97591

System changes: positions 

Initializing position-dependent things.

Density initialized from wave functions
       .-----------------------.  
      /|                       |  
     / |                       |  
    /  |                       |  
   /   |                       |  
  /    |                       |  
 *     |                       |  
 |     |                       |  
 |     |                       |  
 |     |                       |  
 |     |               H       |  
 |     |             O C  H    |  
 |     |             H         |  
 |     Li      Li  H  CH       |  
 |     |                       |  
 |     |     Li      LO H    Li|  
 |     |           N  N        |  
 | Li  |  LLi     LLi     Li   |  
 |     |                       |  
 |     |Li      LLi     Li     |  
 |   Li|     Li      Li        |  
 |    Li  Li  Li  Li  Li  Li   |  
 | Li  |   Li      Li          |  
 |     |Li      Li      Li     |  
 Li    | Li      Li            |  
 |    Li      Li      Li       |  
 |     |                       |  
 |     |                       |  
 |     |                       |  
 |     |                       |  
 |     |                       |  
 |     |                       |  
 |     .-----------------------.  
 |    /                       /   
 |   /                       /    
 |  /                       /     
 | /                       /      
 |/                       /       
 *-----------------------*        

Positions:
   0 Li     1.617037    1.617037   10.000000    ( 0.0000,  0.0000,  0.0000)
   1 Li     4.851111    1.617037   10.000000    ( 0.0000,  0.0000,  0.0000)
   2 Li     8.085185    1.617037   10.000000    ( 0.0000,  0.0000,  0.0000)
   3 Li     1.617037    4.851111   10.000000    ( 0.0000,  0.0000,  0.0000)
   4 Li     4.851111    4.851111   10.000000    ( 0.0000,  0.0000,  0.0000)
   5 Li     8.085185    4.851111   10.000000    ( 0.0000,  0.0000,  0.0000)
   6 Li     1.617037    8.085185   10.000000    ( 0.0000,  0.0000,  0.0000)
   7 Li     4.851111    8.085185   10.000000    ( 0.0000,  0.0000,  0.0000)
   8 Li     8.085185    8.085185   10.000000    ( 0.0000,  0.0000,  0.0000)
   9 Li     0.000000    0.000000   11.617037    ( 0.0000,  0.0000,  0.0000)
  10 Li     3.234074    0.000000   11.617037    ( 0.0000,  0.0000,  0.0000)
  11 Li     6.468148    0.000000   11.617037    ( 0.0000,  0.0000,  0.0000)
  12 Li     0.000000    3.234074   11.617037    ( 0.0000,  0.0000,  0.0000)
  13 Li     3.234074    3.234074   11.617037    ( 0.0000,  0.0000,  0.0000)
  14 Li     6.468148    3.234074   11.617037    ( 0.0000,  0.0000,  0.0000)
  15 Li     0.000000    6.468148   11.617037    ( 0.0000,  0.0000,  0.0000)
  16 Li     3.234074    6.468148   11.617037    ( 0.0000,  0.0000,  0.0000)
  17 Li     6.468148    6.468148   11.617037    ( 0.0000,  0.0000,  0.0000)
  18 Li     1.617059    1.617034   13.469898    ( 0.0000,  0.0000,  0.0000)
  19 Li     4.850969    1.617046   13.469474    ( 0.0000,  0.0000,  0.0000)
  20 Li     8.085223    1.617035   13.469068    ( 0.0000,  0.0000,  0.0000)
  21 Li     1.617001    4.851107   13.469823    ( 0.0000,  0.0000,  0.0000)
  22 Li     4.851181    4.851022   13.469907    ( 0.0000,  0.0000,  0.0000)
  23 Li     8.085158    4.851079   13.469869    ( 0.0000,  0.0000,  0.0000)
  24 Li     1.616990    8.085192   13.469844    ( 0.0000,  0.0000,  0.0000)
  25 Li     4.851184    8.085266   13.469884    ( 0.0000,  0.0000,  0.0000)
  26 Li     8.085164    8.085220   13.469845    ( 0.0000,  0.0000,  0.0000)
  27 Li     0.000336   -0.000125   15.445822    ( 0.0000,  0.0000,  0.0000)
  28 Li     3.233886   -0.000062   15.445868    ( 0.0000,  0.0000,  0.0000)
  29 Li     6.467966    0.000372   15.446185    ( 0.0000,  0.0000,  0.0000)
  30 Li     0.000351    3.234227   15.445761    ( 0.0000,  0.0000,  0.0000)
  31 Li     3.233897    3.234144   15.445879    ( 0.0000,  0.0000,  0.0000)
  32 Li     6.468014    3.233736   15.446086    ( 0.0000,  0.0000,  0.0000)
  33 Li    -0.000087    6.468123   15.445927    ( 0.0000,  0.0000,  0.0000)
  34 Li     3.234131    6.468140   15.445927    ( 0.0000,  0.0000,  0.0000)
  35 Li     6.468174    6.468133   15.445858    ( 0.0000,  0.0000,  0.0000)
  36 O      8.102181    1.615695   18.479520    ( 0.0000,  0.0000,  0.0000)
  37 O      7.852292    1.661181   21.343903    ( 0.0000,  0.0000,  0.0000)
  38 C      7.670676    2.791685   19.177008    ( 0.0000,  0.0000,  0.0000)
  39 C      8.242626    2.801152   20.583721    ( 0.0000,  0.0000,  0.0000)
  40 H      7.966008    3.702353   18.645796    ( 0.0000,  0.0000,  0.0000)
  41 H      6.583404    2.740782   19.207106    ( 0.0000,  0.0000,  0.0000)
  42 H      7.865427    3.676267   21.120174    ( 0.0000,  0.0000,  0.0000)
  43 H      9.340788    2.877535   20.533983    ( 0.0000,  0.0000,  0.0000)
  44 H      9.037333    1.691149   18.281761    ( 0.0000,  0.0000,  0.0000)
  45 H      7.949002    0.893620   20.765031    ( 0.0000,  0.0000,  0.0000)
  46 N      8.097931    1.617247   16.927728    ( 0.0000,  0.0000,  0.0000)
  47 N      6.955177    1.616265   16.923642    ( 0.0000,  0.0000,  0.0000)

Unit cell:
           periodic     x           y           z      points  spacing
  1. axis:    yes    9.702222    0.000000    0.000000    60     0.1617
  2. axis:    yes    0.000000    9.702222    0.000000    60     0.1617
  3. axis:    no     0.000000    0.000000   26.351111   164     0.1607

  Lengths:   9.702222   9.702222  26.351111
  Angles:   90.000000  90.000000  90.000000

Effective grid spacing dv^(1/3) = 0.1614

     iter     time        total  log10-change:
                         energy  eigst   dens
iter:   1 12:37:54  -323.047016  -0.38
iter:   2 12:38:02  -322.208452  -0.49  -1.33
iter:   3 12:38:09  -322.078805  -0.86  -1.32
iter:   4 12:38:17  -321.961667  -0.71  -1.44
Writing to output.gpw (mode='')

iter:   5 12:38:24  -321.811165  -1.30  -1.73
iter:   6 12:38:32  -322.300013  -0.59  -1.98
iter:   7 12:38:39  -321.823363  -1.21  -1.41
iter:   8 12:38:47  -321.843513  -1.58  -2.03
iter:   9 12:38:55  -321.832706c -1.95  -2.01
Writing to output.gpw (mode='')

iter:  10 12:39:02  -321.792562  -2.10  -2.05
iter:  11 12:39:10  -321.790830  -2.47  -2.54
iter:  12 12:39:17  -321.810462c -2.31  -2.56
iter:  13 12:39:25  -321.790635c -2.58  -2.22
iter:  14 12:39:32  -321.790978c -3.29  -2.79
Writing to output.gpw (mode='')

iter:  15 12:39:45  -321.790275c -3.06  -2.87
iter:  16 12:39:53  -321.791625c -3.21  -2.87
iter:  17 12:40:00  -321.790928c -3.80  -2.97
iter:  18 12:40:08  -321.791130c -3.76  -3.21
iter:  19 12:40:15  -321.791079c -4.05  -3.31
Writing to output.gpw (mode='')

iter:  20 12:40:23  -321.791069c -4.14  -3.51
iter:  21 12:40:30  -321.791031c -4.15  -3.55
iter:  22 12:40:38  -321.791221c -4.42  -3.48
iter:  23 12:40:45  -321.791104c -4.65  -3.50
iter:  24 12:40:53  -321.791081c -4.93  -3.59
Writing to output.gpw (mode='')

iter:  25 12:41:00  -321.791046c -4.70  -3.61
iter:  26 12:41:08  -321.791068c -5.09  -3.68
iter:  27 12:41:18  -321.791066c -5.04  -3.81
iter:  28 12:41:25  -321.791099c -5.16  -3.90
iter:  29 12:41:33  -321.791082c -5.36  -3.88
Writing to output.gpw (mode='')

iter:  30 12:41:40  -321.791066c -5.40  -4.01c
iter:  31 12:41:48  -321.791070c -5.43  -4.09c
iter:  32 12:41:55  -321.791079c -5.87  -4.11c
iter:  33 12:42:03  -321.791056c -5.74  -4.19c
iter:  34 12:42:10  -321.791074c -5.93  -4.32c
Writing to output.gpw (mode='')

iter:  35 12:42:17  -321.791083c -6.22  -4.57c
iter:  36 12:42:25  -321.791077c -6.16  -4.56c
iter:  37 12:42:33  -321.791077c -6.46  -4.88c
iter:  38 12:42:40  -321.791078c -6.51  -4.94c
iter:  39 12:42:47  -321.791074c -6.50  -5.02c
Writing to output.gpw (mode='')

iter:  40 12:42:55  -321.791075c -6.79  -5.05c
iter:  41 12:43:03  -321.791075c -6.76  -5.06c
iter:  42 12:43:10  -321.791074c -6.81  -5.02c
iter:  43 12:43:17  -321.791076c -6.77  -5.01c
iter:  44 12:43:25  -321.791076c -7.26  -5.10c
Writing to output.gpw (mode='')

iter:  45 12:43:33  -321.791076c -7.06  -5.09c
iter:  46 12:43:40  -321.791077c -6.99  -5.10c
iter:  47 12:43:47  -321.791076c -7.29  -5.08c
iter:  48 12:43:55  -321.791077c -7.27  -5.11c
iter:  49 12:44:02  -321.791079c -7.41c -5.08c

Converged after 49 iterations.

Dipole moment: (0.871121, -3.505625, 0.104012) |e|*Ang

Energy contributions relative to reference atoms: (reference = -16475.706344)

Kinetic:       +184.316663
Potential:     -170.131966
External:        +0.000000
XC:            -336.988413
Entropy (-ST):   -0.175341
Local:           +1.100307
--------------------------
Free energy:   -321.878749
Extrapolated:  -321.791079

Dipole-layer corrected work functions: 3.379139, 3.179193 eV

Showing only first 2 kpts
 Kpt  Band  Eigenvalues  Occupancy
  0    34     -3.52592    1.98572
  0    35     -3.36840    1.71255
  0    36     -3.21020    0.40225
  0    37     -3.04988    0.02019

  1    34     -3.31711    1.36222
  1    35     -3.30345    1.23813
  1    36     -3.21476    0.43238
  1    37     -3.18424    0.26054


Fermi level: -3.27917

Gap: 0.048 eV
Transition (v -> c):
  (s=0, k=2, n=35, [0.12, 0.12, 0.00]) -> (s=0, k=7, n=36, [0.38, 0.38, 0.00])
Writing to output.gpw (mode='')


Forces in eV/Ang:
  0 Li    0.01168   -0.00042   -0.26803
  1 Li   -0.01950   -0.00010   -0.27712
  2 Li    0.00836    0.00114   -0.28344
  3 Li   -0.00018   -0.00245   -0.27478
  4 Li    0.00673    0.01320   -0.27662
  5 Li   -0.00711    0.02240   -0.27647
  6 Li    0.00093    0.00317   -0.27237
  7 Li    0.00516   -0.01313   -0.27948
  8 Li   -0.00696   -0.02375   -0.27539
  9 Li    0.00612    0.00770    0.29818
 10 Li   -0.00821    0.00386    0.24754
 11 Li    0.00123    0.00654    0.32270
 12 Li    0.00622   -0.00716    0.29811
 13 Li   -0.00999   -0.00424    0.25026
 14 Li    0.00209   -0.00567    0.32038
 15 Li   -0.01560   -0.00030    0.24650
 16 Li    0.00575   -0.00034    0.28163
 17 Li    0.00833   -0.00047    0.22570
 18 Li    0.01120   -0.00133    0.05672
 19 Li   -0.05384    0.00248   -0.10077
 20 Li    0.01172   -0.00103   -0.22684
 21 Li   -0.01449   -0.00357    0.03583
 22 Li    0.02620   -0.03070    0.06038
 23 Li   -0.00831   -0.00507    0.04089
 24 Li   -0.01798    0.00485    0.04284
 25 Li    0.02670    0.02863    0.05284
 26 Li   -0.00640    0.00665    0.03255
 27 Li    0.08486   -0.01972   -0.00030
 28 Li   -0.06507   -0.02691   -0.02652
 29 Li   -0.02590    0.17147    0.16440
 30 Li    0.08935    0.02750   -0.02311
 31 Li   -0.06244    0.02923   -0.02336
 32 Li   -0.00798   -0.16282    0.13058
 33 Li   -0.02482   -0.00901   -0.01020
 34 Li    0.01742   -0.00223   -0.00560
 35 Li    0.00544   -0.00401   -0.03509
 36 O     4.56558   -0.56039    9.80552
 37 O    -0.06703    0.04422   -0.07677
 38 C    -0.46001    0.97770    0.87606
 39 C     0.10997   -0.07582    0.12649
 40 H     0.12523   -0.06817   -0.20572
 41 H    -0.00506   -0.08007   -0.05615
 42 H     0.01344   -0.00040   -0.04594
 43 H    -0.05763    0.02668   -0.00463
 44 H     1.72310   -0.01078    1.65225
 45 H     0.02246   -0.09114    0.11040
 46 N    -0.21607    0.03258   -5.85413
 47 N    -5.76832   -0.19397   -6.56086

System changes: positions 

Initializing position-dependent things.

Density initialized from wave functions
       .-----------------------.  
      /|                       |  
     / |                       |  
    /  |                       |  
   /   |                       |  
  /    |                       |  
 *     |                       |  
 |     |                       |  
 |     |                       |  
 |     |                       |  
 |     |               H       |  
 |     |             O C  H    |  
 |     |             H         |  
 |     Li      Li  H  CH       |  
 |     |                       |  
 |     |     Li      LO H    Li|  
 |     |           N  N        |  
 | Li  |  LLi     LLi     Li   |  
 |     |                       |  
 |     |Li      LLi     Li     |  
 |   Li|     Li      Li        |  
 |    Li  Li  Li  Li  Li  Li   |  
 | Li  |   Li      Li          |  
 |     |Li      Li      Li     |  
 Li    | Li      Li            |  
 |    Li      Li      Li       |  
 |     |                       |  
 |     |                       |  
 |     |                       |  
 |     |                       |  
 |     |                       |  
 |     |                       |  
 |     .-----------------------.  
 |    /                       /   
 |   /                       /    
 |  /                       /     
 | /                       /      
 |/                       /       
 *-----------------------*        

Positions:
   0 Li     1.617037    1.617037   10.000000    ( 0.0000,  0.0000,  0.0000)
   1 Li     4.851111    1.617037   10.000000    ( 0.0000,  0.0000,  0.0000)
   2 Li     8.085185    1.617037   10.000000    ( 0.0000,  0.0000,  0.0000)
   3 Li     1.617037    4.851111   10.000000    ( 0.0000,  0.0000,  0.0000)
   4 Li     4.851111    4.851111   10.000000    ( 0.0000,  0.0000,  0.0000)
   5 Li     8.085185    4.851111   10.000000    ( 0.0000,  0.0000,  0.0000)
   6 Li     1.617037    8.085185   10.000000    ( 0.0000,  0.0000,  0.0000)
   7 Li     4.851111    8.085185   10.000000    ( 0.0000,  0.0000,  0.0000)
   8 Li     8.085185    8.085185   10.000000    ( 0.0000,  0.0000,  0.0000)
   9 Li     0.000000    0.000000   11.617037    ( 0.0000,  0.0000,  0.0000)
  10 Li     3.234074    0.000000   11.617037    ( 0.0000,  0.0000,  0.0000)
  11 Li     6.468148    0.000000   11.617037    ( 0.0000,  0.0000,  0.0000)
  12 Li     0.000000    3.234074   11.617037    ( 0.0000,  0.0000,  0.0000)
  13 Li     3.234074    3.234074   11.617037    ( 0.0000,  0.0000,  0.0000)
  14 Li     6.468148    3.234074   11.617037    ( 0.0000,  0.0000,  0.0000)
  15 Li     0.000000    6.468148   11.617037    ( 0.0000,  0.0000,  0.0000)
  16 Li     3.234074    6.468148   11.617037    ( 0.0000,  0.0000,  0.0000)
  17 Li     6.468148    6.468148   11.617037    ( 0.0000,  0.0000,  0.0000)
  18 Li     1.617118    1.617029   13.470134    ( 0.0000,  0.0000,  0.0000)
  19 Li     4.850726    1.617056   13.469009    ( 0.0000,  0.0000,  0.0000)
  20 Li     8.085268    1.617031   13.468104    ( 0.0000,  0.0000,  0.0000)
  21 Li     1.616935    4.851086   13.469986    ( 0.0000,  0.0000,  0.0000)
  22 Li     4.851298    4.850891   13.470162    ( 0.0000,  0.0000,  0.0000)
  23 Li     8.085124    4.851074   13.470022    ( 0.0000,  0.0000,  0.0000)
  24 Li     1.616909    8.085219   13.470034    ( 0.0000,  0.0000,  0.0000)
  25 Li     4.851302    8.085388   13.470108    ( 0.0000,  0.0000,  0.0000)
  26 Li     8.085138    8.085232   13.469961    ( 0.0000,  0.0000,  0.0000)
  27 Li     0.000609   -0.000142   15.445936    ( 0.0000,  0.0000,  0.0000)
  28 Li     3.233608   -0.000192   15.445749    ( 0.0000,  0.0000,  0.0000)
  29 Li     6.467961    0.001225   15.447112    ( 0.0000,  0.0000,  0.0000)
  30 Li     0.000641    3.234272   15.445772    ( 0.0000,  0.0000,  0.0000)
  31 Li     3.233630    3.234285   15.445771    ( 0.0000,  0.0000,  0.0000)
  32 Li     6.468087    3.232913   15.446869    ( 0.0000,  0.0000,  0.0000)
  33 Li    -0.000178    6.468084   15.445866    ( 0.0000,  0.0000,  0.0000)
  34 Li     3.234201    6.468130   15.445898    ( 0.0000,  0.0000,  0.0000)
  35 Li     6.468185    6.468117   15.445687    ( 0.0000,  0.0000,  0.0000)
  36 O      8.117918    1.613030   18.516198    ( 0.0000,  0.0000,  0.0000)
  37 O      7.852016    1.661347   21.343588    ( 0.0000,  0.0000,  0.0000)
  38 C      7.669504    2.795256   19.180770    ( 0.0000,  0.0000,  0.0000)
  39 C      8.242751    2.801388   20.584586    ( 0.0000,  0.0000,  0.0000)
  40 H      7.966538    3.702150   18.644902    ( 0.0000,  0.0000,  0.0000)
  41 H      6.583208    2.740378   19.206848    ( 0.0000,  0.0000,  0.0000)
  42 H      7.865573    3.676203   21.120074    ( 0.0000,  0.0000,  0.0000)
  43 H      9.340606    2.877632   20.533923    ( 0.0000,  0.0000,  0.0000)
  44 H      9.044837    1.691469   18.288348    ( 0.0000,  0.0000,  0.0000)
  45 H      7.949096    0.893257   20.765462    ( 0.0000,  0.0000,  0.0000)
  46 N      8.083651    1.617235   16.904020    ( 0.0000,  0.0000,  0.0000)
  47 N      6.946851    1.615609   16.898932    ( 0.0000,  0.0000,  0.0000)

Unit cell:
           periodic     x           y           z      points  spacing
  1. axis:    yes    9.702222    0.000000    0.000000    60     0.1617
  2. axis:    yes    0.000000    9.702222    0.000000    60     0.1617
  3. axis:    no     0.000000    0.000000   26.351111   164     0.1607

  Lengths:   9.702222   9.702222  26.351111
  Angles:   90.000000  90.000000  90.000000

Effective grid spacing dv^(1/3) = 0.1614

     iter     time        total  log10-change:
                         energy  eigst   dens
iter:   1 12:44:12  -322.706032  -0.82
iter:   2 12:44:19  -322.612714  -0.92  -1.62
iter:   3 12:44:27  -322.583971  -1.60  -1.69
iter:   4 12:44:40  -322.561391  -1.58  -2.00
Writing to output.gpw (mode='')

iter:   5 12:44:50  -322.561553c -2.08  -2.16
iter:   6 12:44:57  -322.636157  -1.62  -2.33
iter:   7 12:45:05  -322.559406  -1.79  -1.86
iter:   8 12:45:12  -322.558484  -1.36  -2.26
iter:   9 12:45:20  -322.559578c -2.56  -2.08
Writing to output.gpw (mode='')

iter:  10 12:45:27  -322.568351c -2.58  -2.34
iter:  11 12:45:35  -322.553365c -2.38  -2.21
iter:  12 12:45:42  -322.550993c -2.47  -2.68
iter:  13 12:45:50  -322.550951c -3.06  -2.78
iter:  14 12:45:57  -322.552258c -3.31  -2.89
Writing to output.gpw (mode='')

iter:  15 12:46:05  -322.551189c -3.57  -2.98
iter:  16 12:46:12  -322.551217c -3.51  -3.24
iter:  17 12:46:20  -322.551234c -3.79  -3.21
iter:  18 12:46:27  -322.551716c -3.73  -3.35
iter:  19 12:46:35  -322.551279c -4.12  -3.26
Writing to output.gpw (mode='')

iter:  20 12:46:42  -322.551315c -4.22  -3.45
iter:  21 12:46:50  -322.551462c -4.50  -3.62
iter:  22 12:46:57  -322.551461c -4.55  -3.78
iter:  23 12:47:05  -322.551413c -4.64  -3.93
iter:  24 12:47:12  -322.551467c -5.04  -4.10c
Writing to output.gpw (mode='')

iter:  25 12:47:20  -322.551456c -5.01  -4.15c
iter:  26 12:47:27  -322.551459c -5.04  -4.26c
iter:  27 12:47:34  -322.551474c -5.33  -4.40c
iter:  28 12:47:42  -322.551463c -5.31  -4.34c
iter:  29 12:47:50  -322.551465c -5.28  -4.40c
Writing to output.gpw (mode='')

iter:  30 12:47:57  -322.551469c -5.51  -4.45c
iter:  31 12:48:04  -322.551479c -5.57  -4.59c
iter:  32 12:48:12  -322.551472c -5.99  -4.60c
iter:  33 12:48:20  -322.551474c -5.99  -4.74c
iter:  34 12:48:27  -322.551482c -6.15  -4.76c
Writing to output.gpw (mode='')

iter:  35 12:48:34  -322.551474c -6.23  -4.81c
iter:  36 12:48:42  -322.551474c -6.10  -4.98c
iter:  37 12:48:49  -322.551476c -6.24  -5.04c
iter:  38 12:48:57  -322.551478c -6.37  -5.10c
iter:  39 12:49:04  -322.551477c -6.71  -5.10c
Writing to output.gpw (mode='')

iter:  40 12:49:12  -322.551479c -6.61  -5.13c
iter:  41 12:49:19  -322.551478c -6.49  -5.25c
iter:  42 12:49:27  -322.551477c -6.71  -5.33c
iter:  43 12:49:41  -322.551478c -6.83  -5.43c
iter:  44 12:49:50  -322.551479c -7.05  -5.57c
Writing to output.gpw (mode='')

iter:  45 12:49:58  -322.551479c -7.03  -5.61c
iter:  46 12:50:05  -322.551479c -7.12  -5.70c
iter:  47 12:50:13  -322.551479c -7.20  -5.73c
iter:  48 12:50:20  -322.551479c -7.38  -5.85c
iter:  49 12:50:28  -322.551479c -7.57c -5.94c

Converged after 49 iterations.

Dipole moment: (0.788696, -3.489356, 0.062152) |e|*Ang

Energy contributions relative to reference atoms: (reference = -16475.706344)

Kinetic:       +182.932242
Potential:     -169.558282
External:        +0.000000
XC:            -336.943035
Entropy (-ST):   -0.174275
Local:           +1.104734
--------------------------
Free energy:   -322.638616
Extrapolated:  -322.551479

Dipole-layer corrected work functions: 3.380339, 3.260862 eV

Showing only first 2 kpts
 Kpt  Band  Eigenvalues  Occupancy
  0    34     -3.56785    1.98586
  0    35     -3.40955    1.71116
  0    36     -3.24797    0.37922
  0    37     -3.09069    0.01994

  1    34     -3.36018    1.37638
  1    35     -3.34413    1.23105
  1    36     -3.25906    0.45205
  1    37     -3.22445    0.25504


Fermi level: -3.32060

Gap: 0.045 eV
Transition (v -> c):
  (s=0, k=2, n=35, [0.12, 0.12, 0.00]) -> (s=0, k=4, n=36, [0.38, -0.38, 0.00])
Writing to output.gpw (mode='')


Forces in eV/Ang:
  0 Li    0.01276   -0.00038   -0.26802
  1 Li   -0.02049   -0.00006   -0.27726
  2 Li    0.00873    0.00102   -0.28334
  3 Li   -0.00021   -0.00256   -0.27493
  4 Li    0.00644    0.01312   -0.27680
  5 Li   -0.00730    0.02323   -0.27610
  6 Li    0.00081    0.00324   -0.27289
  7 Li    0.00506   -0.01297   -0.27923
  8 Li   -0.00710   -0.02442   -0.27522
  9 Li    0.00636    0.00757    0.29742
 10 Li   -0.00944    0.00375    0.24647
 11 Li    0.00119    0.00718    0.32375
 12 Li    0.00627   -0.00718    0.29731
 13 Li   -0.01095   -0.00395    0.24896
 14 Li    0.00227   -0.00636    0.32175
 15 Li   -0.01571   -0.00011    0.24637
 16 Li    0.00628   -0.00054    0.28030
 17 Li    0.00883   -0.00045    0.22567
 18 Li    0.00992   -0.00117    0.05659
 19 Li   -0.05333    0.00216   -0.09810
 20 Li    0.01480   -0.00100   -0.23016
 21 Li   -0.01429   -0.00324    0.03649
 22 Li    0.02694   -0.03171    0.06122
 23 Li   -0.00847   -0.00712    0.04296
 24 Li   -0.01732    0.00418    0.04213
 25 Li    0.02742    0.02984    0.05467
 26 Li   -0.00693    0.00851    0.03434
 27 Li    0.08670   -0.02321   -0.00500
 28 Li   -0.06229   -0.02470   -0.02728
 29 Li   -0.02951    0.11970    0.13202
 30 Li    0.09181    0.03009   -0.02952
 31 Li   -0.06033    0.02719   -0.02455
 32 Li   -0.01484   -0.11290    0.09977
 33 Li   -0.02543   -0.00894   -0.01008
 34 Li    0.01715   -0.00230   -0.00583
 35 Li    0.00576   -0.00398   -0.03493
 36 O     3.64984   -0.58630    8.43972
 37 O    -0.07032    0.05185   -0.06601
 38 C    -0.15783    0.68025    0.85966
 39 C     0.01169    0.11206    0.25721
 40 H     0.11889   -0.04066   -0.19638
 41 H    -0.04946   -0.09187   -0.04906
 42 H     0.03031    0.01154    0.02455
 43 H    -0.05339    0.02375   -0.01994
 44 H     1.45726    0.09107    1.41984
 45 H     0.02988   -0.07226    0.08330
 46 N     0.03180   -0.03799   -5.46819
 47 N    -4.94792   -0.13898   -5.28990

System changes: positions 

Initializing position-dependent things.

Density initialized from wave functions
       .-----------------------.  
      /|                       |  
     / |                       |  
    /  |                       |  
   /   |                       |  
  /    |                       |  
 *     |                       |  
 |     |                       |  
 |     |                       |  
 |     |                       |  
 |     |               H       |  
 |     |             O C  H    |  
 |     |             H         |  
 |     Li      Li  H  CH       |  
 |     |              O        |  
 |     |     Li      Li H    Li|  
 |     |                       |  
 | Li  |  LLi     LNi N   Li   |  
 |     |                       |  
 |     |Li      LLi     Li     |  
 |   Li|     Li      Li        |  
 |    Li  Li  Li  Li  Li  Li   |  
 | Li  |   Li      Li          |  
 |     |Li      Li      Li     |  
 Li    | Li      Li            |  
 |    Li      Li      Li       |  
 |     |                       |  
 |     |                       |  
 |     |                       |  
 |     |                       |  
 |     |                       |  
 |     |                       |  
 |     .-----------------------.  
 |    /                       /   
 |   /                       /    
 |  /                       /     
 | /                       /      
 |/                       /       
 *-----------------------*        

Positions:
   0 Li     1.617037    1.617037   10.000000    ( 0.0000,  0.0000,  0.0000)
   1 Li     4.851111    1.617037   10.000000    ( 0.0000,  0.0000,  0.0000)
   2 Li     8.085185    1.617037   10.000000    ( 0.0000,  0.0000,  0.0000)
   3 Li     1.617037    4.851111   10.000000    ( 0.0000,  0.0000,  0.0000)
   4 Li     4.851111    4.851111   10.000000    ( 0.0000,  0.0000,  0.0000)
   5 Li     8.085185    4.851111   10.000000    ( 0.0000,  0.0000,  0.0000)
   6 Li     1.617037    8.085185   10.000000    ( 0.0000,  0.0000,  0.0000)
   7 Li     4.851111    8.085185   10.000000    ( 0.0000,  0.0000,  0.0000)
   8 Li     8.085185    8.085185   10.000000    ( 0.0000,  0.0000,  0.0000)
   9 Li     0.000000    0.000000   11.617037    ( 0.0000,  0.0000,  0.0000)
  10 Li     3.234074    0.000000   11.617037    ( 0.0000,  0.0000,  0.0000)
  11 Li     6.468148    0.000000   11.617037    ( 0.0000,  0.0000,  0.0000)
  12 Li     0.000000    3.234074   11.617037    ( 0.0000,  0.0000,  0.0000)
  13 Li     3.234074    3.234074   11.617037    ( 0.0000,  0.0000,  0.0000)
  14 Li     6.468148    3.234074   11.617037    ( 0.0000,  0.0000,  0.0000)
  15 Li     0.000000    6.468148   11.617037    ( 0.0000,  0.0000,  0.0000)
  16 Li     3.234074    6.468148   11.617037    ( 0.0000,  0.0000,  0.0000)
  17 Li     6.468148    6.468148   11.617037    ( 0.0000,  0.0000,  0.0000)
  18 Li     1.617184    1.617023   13.470499    ( 0.0000,  0.0000,  0.0000)
  19 Li     4.850366    1.617067   13.468350    ( 0.0000,  0.0000,  0.0000)
  20 Li     8.085387    1.617025   13.466564    ( 0.0000,  0.0000,  0.0000)
  21 Li     1.616838    4.851060   13.470242    ( 0.0000,  0.0000,  0.0000)
  22 Li     4.851488    4.850674   13.470570    ( 0.0000,  0.0000,  0.0000)
  23 Li     8.085068    4.851027   13.470302    ( 0.0000,  0.0000,  0.0000)
  24 Li     1.616798    8.085246   13.470313    ( 0.0000,  0.0000,  0.0000)
  25 Li     4.851493    8.085596   13.470482    ( 0.0000,  0.0000,  0.0000)
  26 Li     8.085089    8.085287   13.470179    ( 0.0000,  0.0000,  0.0000)
  27 Li     0.001102   -0.000256   15.445981    ( 0.0000,  0.0000,  0.0000)
  28 Li     3.233222   -0.000351   15.445557    ( 0.0000,  0.0000,  0.0000)
  29 Li     6.467846    0.001678   15.447928    ( 0.0000,  0.0000,  0.0000)
  30 Li     0.001172    3.234417   15.445635    ( 0.0000,  0.0000,  0.0000)
  31 Li     3.233251    3.234463   15.445590    ( 0.0000,  0.0000,  0.0000)
  32 Li     6.468040    3.232481   15.447487    ( 0.0000,  0.0000,  0.0000)
  33 Li    -0.000335    6.468025   15.445782    ( 0.0000,  0.0000,  0.0000)
  34 Li     3.234307    6.468113   15.445853    ( 0.0000,  0.0000,  0.0000)
  35 Li     6.468212    6.468092   15.445436    ( 0.0000,  0.0000,  0.0000)
  36 O      8.129834    1.608653   18.554130    ( 0.0000,  0.0000,  0.0000)
  37 O      7.851534    1.661733   21.343262    ( 0.0000,  0.0000,  0.0000)
  38 C      7.671993    2.796445   19.186307    ( 0.0000,  0.0000,  0.0000)
  39 C      8.241590    2.804391   20.587788    ( 0.0000,  0.0000,  0.0000)
  40 H      7.967259    3.702221   18.643676    ( 0.0000,  0.0000,  0.0000)
  41 H      6.582302    2.739603   19.206569    ( 0.0000,  0.0000,  0.0000)
  42 H      7.866016    3.676319   21.120966    ( 0.0000,  0.0000,  0.0000)
  43 H      9.340360    2.877743   20.533614    ( 0.0000,  0.0000,  0.0000)
  44 H      9.052211    1.693362   18.295130    ( 0.0000,  0.0000,  0.0000)
  45 H      7.949356    0.892979   20.765727    ( 0.0000,  0.0000,  0.0000)
  46 N      8.072080    1.616197   16.872812    ( 0.0000,  0.0000,  0.0000)
  47 N      6.938682    1.615366   16.878915    ( 0.0000,  0.0000,  0.0000)

Unit cell:
           periodic     x           y           z      points  spacing
  1. axis:    yes    9.702222    0.000000    0.000000    60     0.1617
  2. axis:    yes    0.000000    9.702222    0.000000    60     0.1617
  3. axis:    no     0.000000    0.000000   26.351111   164     0.1607

  Lengths:   9.702222   9.702222  26.351111
  Angles:   90.000000  90.000000  90.000000

Effective grid spacing dv^(1/3) = 0.1614

     iter     time        total  log10-change:
                         energy  eigst   dens
iter:   1 12:50:37  -323.296363  -0.83
iter:   2 12:50:44  -323.254803  -1.07  -1.74
iter:   3 12:50:52  -323.235058  -1.71  -1.77
iter:   4 12:50:59  -323.236001c -1.94  -2.12
Writing to output.gpw (mode='')

iter:   5 12:51:07  -323.228909c -1.78  -2.12
iter:   6 12:51:14  -323.225677c -1.82  -2.05
iter:   7 12:51:22  -323.257985c -1.81  -2.07
iter:   8 12:51:29  -323.239366c -2.24  -2.01
iter:   9 12:51:36  -323.596313  -0.96  -2.11
Writing to output.gpw (mode='')

iter:  10 12:51:44  -323.213185  -1.19  -1.42
iter:  11 12:51:51  -323.214217  -1.02  -2.05
iter:  12 12:51:59  -323.214069c -1.78  -2.37
iter:  13 12:52:06  -323.211516c -2.12  -2.46
iter:  14 12:52:13  -323.212019c -2.36  -2.64
Writing to output.gpw (mode='')

iter:  15 12:52:21  -323.213184c -2.32  -2.63
iter:  16 12:52:28  -323.212228c -2.80  -2.68
iter:  17 12:52:35  -323.211485c -3.05  -2.81
iter:  18 12:52:43  -323.211929c -3.21  -2.85
iter:  19 12:52:50  -323.211444c -3.48  -3.11
Writing to output.gpw (mode='')

iter:  20 12:52:58  -323.211691c -3.98  -3.12
iter:  21 12:53:05  -323.211745c -3.93  -3.19
iter:  22 12:53:12  -323.211601c -3.92  -3.48
iter:  23 12:53:20  -323.211619c -4.37  -3.50
iter:  24 12:53:27  -323.211602c -4.41  -3.56
Writing to output.gpw (mode='')

iter:  25 12:53:34  -323.211628c -4.71  -3.76
iter:  26 12:53:42  -323.211629c -4.96  -3.81
iter:  27 12:53:49  -323.211631c -5.00  -3.85
iter:  28 12:53:57  -323.211610c -5.10  -3.94
iter:  29 12:54:04  -323.211632c -5.37  -4.11c
Writing to output.gpw (mode='')

iter:  30 12:54:11  -323.211632c -5.24  -4.20c
iter:  31 12:54:19  -323.211625c -5.23  -4.34c
iter:  32 12:54:26  -323.211622c -5.66  -4.33c
iter:  33 12:54:39  -323.211625c -6.02  -4.50c
iter:  34 12:54:48  -323.211625c -5.90  -4.52c
Writing to output.gpw (mode='')

iter:  35 12:54:56  -323.211626c -6.10  -4.51c
iter:  36 12:55:03  -323.211623c -6.11  -4.53c
iter:  37 12:55:10  -323.211623c -6.35  -4.67c
iter:  38 12:55:18  -323.211627c -6.15  -4.68c
iter:  39 12:55:25  -323.211622c -6.35  -4.66c
Writing to output.gpw (mode='')

iter:  40 12:55:33  -323.211624c -6.56  -4.81c
iter:  41 12:55:41  -323.211623c -6.57  -4.86c
iter:  42 12:55:50  -323.211623c -6.81  -4.86c
iter:  43 12:56:03  -323.211623c -6.77  -4.83c
iter:  44 12:56:12  -323.211624c -6.68  -4.85c
Writing to output.gpw (mode='')

iter:  45 12:56:19  -323.211625c -7.05  -4.93c
iter:  46 12:56:27  -323.211623c -6.99  -4.92c
iter:  47 12:56:34  -323.211623c -7.12  -4.96c
iter:  48 12:56:42  -323.211624c -7.39  -4.99c
iter:  49 12:56:49  -323.211623c -7.56c -4.99c

Converged after 49 iterations.

Dipole moment: (0.681444, -3.436824, 0.004183) |e|*Ang

Energy contributions relative to reference atoms: (reference = -16475.706344)

Kinetic:       +181.201769
Potential:     -168.626572
External:        +0.000000
XC:            -336.810222
Entropy (-ST):   -0.173759
Local:           +1.110282
--------------------------
Free energy:   -323.298503
Extrapolated:  -323.211623

Dipole-layer corrected work functions: 3.382628, 3.374588 eV

Showing only first 2 kpts
 Kpt  Band  Eigenvalues  Occupancy
  0    34     -3.62609    1.98593
  0    35     -3.46569    1.70178
  0    36     -3.30398    0.36710
  0    37     -3.14701    0.01928

  1    34     -3.42066    1.39735
  1    35     -3.39983    1.20910
  1    36     -3.31995    0.47260
  1    37     -3.27960    0.24262


Fermi level: -3.37861

Gap: 0.041 eV
Transition (v -> c):
  (s=0, k=2, n=35, [0.12, 0.12, 0.00]) -> (s=0, k=4, n=36, [0.38, -0.38, 0.00])
Writing to output.gpw (mode='')


Forces in eV/Ang:
  0 Li    0.01398   -0.00035   -0.26797
  1 Li   -0.02109   -0.00004   -0.27754
  2 Li    0.00888    0.00088   -0.28322
  3 Li   -0.00035   -0.00242   -0.27530
  4 Li    0.00588    0.01292   -0.27713
  5 Li   -0.00751    0.02393   -0.27592
  6 Li    0.00058    0.00306   -0.27355
  7 Li    0.00470   -0.01276   -0.27914
  8 Li   -0.00723   -0.02493   -0.27513
  9 Li    0.00646    0.00744    0.29643
 10 Li   -0.01090    0.00351    0.24539
 11 Li    0.00098    0.00775    0.32440
 12 Li    0.00622   -0.00721    0.29633
 13 Li   -0.01207   -0.00355    0.24768
 14 Li    0.00227   -0.00701    0.32275
 15 Li   -0.01557    0.00002    0.24634
 16 Li    0.00708   -0.00064    0.27836
 17 Li    0.00944   -0.00039    0.22576
 18 Li    0.00891   -0.00102    0.05494
 19 Li   -0.05198    0.00177   -0.09359
 20 Li    0.01630   -0.00105   -0.22711
 21 Li   -0.01386   -0.00300    0.03713
 22 Li    0.02755   -0.03195    0.06127
 23 Li   -0.00830   -0.00860    0.04372
 24 Li   -0.01629    0.00369    0.04146
 25 Li    0.02793    0.03035    0.05559
 26 Li   -0.00714    0.00988    0.03549
 27 Li    0.08367   -0.02252   -0.00502
 28 Li   -0.05771   -0.02273   -0.02808
 29 Li   -0.02842    0.07337    0.10787
 30 Li    0.08971    0.02905   -0.03141
 31 Li   -0.05675    0.02524   -0.02566
 32 Li   -0.01862   -0.06938    0.07734
 33 Li   -0.02535   -0.00850   -0.01044
 34 Li    0.01637   -0.00227   -0.00629
 35 Li    0.00549   -0.00385   -0.03503
 36 O     3.10567   -0.61323    7.05215
 37 O    -0.08132    0.06824   -0.02421
 38 C    -0.11501    0.53859    0.79705
 39 C     0.03149    0.14503    0.31493
 40 H     0.11554   -0.07604   -0.15806
 41 H     0.03020   -0.08659   -0.03014
 42 H     0.00475    0.09886    0.14002
 43 H    -0.07624    0.03384   -0.00901
 44 H     1.00449    0.12572    1.24066
 45 H     0.04140   -0.02865    0.05222
 46 N     0.15435   -0.07397   -5.05074
 47 N    -4.30222   -0.10082   -4.35403

System changes: positions 

Initializing position-dependent things.

Density initialized from wave functions
       .-----------------------.  
      /|                       |  
     / |                       |  
    /  |                       |  
   /   |                       |  
  /    |                       |  
 *     |                       |  
 |     |                       |  
 |     |                       |  
 |     |                       |  
 |     |               H       |  
 |     |             O C  H    |  
 |     |             H         |  
 |     Li      Li  H  CH       |  
 |     |              O        |  
 |     |     Li      Li H    Li|  
 |     |                       |  
 | Li  |  LLi     LNi N   Li   |  
 |     |                       |  
 |     |Li      LLi     Li     |  
 |   Li|     Li      Li        |  
 |    Li  Li  Li  Li  Li  Li   |  
 | Li  |   Li      Li          |  
 |     |Li      Li      Li     |  
 Li    | Li      Li            |  
 |    Li      Li      Li       |  
 |     |                       |  
 |     |                       |  
 |     |                       |  
 |     |                       |  
 |     |                       |  
 |     |                       |  
 |     .-----------------------.  
 |    /                       /   
 |   /                       /    
 |  /                       /     
 | /                       /      
 |/                       /       
 *-----------------------*        

Positions:
   0 Li     1.617037    1.617037   10.000000    ( 0.0000,  0.0000,  0.0000)
   1 Li     4.851111    1.617037   10.000000    ( 0.0000,  0.0000,  0.0000)
   2 Li     8.085185    1.617037   10.000000    ( 0.0000,  0.0000,  0.0000)
   3 Li     1.617037    4.851111   10.000000    ( 0.0000,  0.0000,  0.0000)
   4 Li     4.851111    4.851111   10.000000    ( 0.0000,  0.0000,  0.0000)
   5 Li     8.085185    4.851111   10.000000    ( 0.0000,  0.0000,  0.0000)
   6 Li     1.617037    8.085185   10.000000    ( 0.0000,  0.0000,  0.0000)
   7 Li     4.851111    8.085185   10.000000    ( 0.0000,  0.0000,  0.0000)
   8 Li     8.085185    8.085185   10.000000    ( 0.0000,  0.0000,  0.0000)
   9 Li     0.000000    0.000000   11.617037    ( 0.0000,  0.0000,  0.0000)
  10 Li     3.234074    0.000000   11.617037    ( 0.0000,  0.0000,  0.0000)
  11 Li     6.468148    0.000000   11.617037    ( 0.0000,  0.0000,  0.0000)
  12 Li     0.000000    3.234074   11.617037    ( 0.0000,  0.0000,  0.0000)
  13 Li     3.234074    3.234074   11.617037    ( 0.0000,  0.0000,  0.0000)
  14 Li     6.468148    3.234074   11.617037    ( 0.0000,  0.0000,  0.0000)
  15 Li     0.000000    6.468148   11.617037    ( 0.0000,  0.0000,  0.0000)
  16 Li     3.234074    6.468148   11.617037    ( 0.0000,  0.0000,  0.0000)
  17 Li     6.468148    6.468148   11.617037    ( 0.0000,  0.0000,  0.0000)
  18 Li     1.617260    1.617017   13.470983    ( 0.0000,  0.0000,  0.0000)
  19 Li     4.849889    1.617077   13.467508    ( 0.0000,  0.0000,  0.0000)
  20 Li     8.085568    1.617016   13.464481    ( 0.0000,  0.0000,  0.0000)
  21 Li     1.616710    4.851030   13.470605    ( 0.0000,  0.0000,  0.0000)
  22 Li     4.851758    4.850371   13.471137    ( 0.0000,  0.0000,  0.0000)
  23 Li     8.084994    4.850939   13.470703    ( 0.0000,  0.0000,  0.0000)
  24 Li     1.616658    8.085277   13.470691    ( 0.0000,  0.0000,  0.0000)
  25 Li     4.851764    8.085889   13.471011    ( 0.0000,  0.0000,  0.0000)
  26 Li     8.085019    8.085384   13.470502    ( 0.0000,  0.0000,  0.0000)
  27 Li     0.001762   -0.000411   15.446026    ( 0.0000,  0.0000,  0.0000)
  28 Li     3.232750   -0.000544   15.445281    ( 0.0000,  0.0000,  0.0000)
  29 Li     6.467683    0.001706   15.448720    ( 0.0000,  0.0000,  0.0000)
  30 Li     0.001896    3.234615   15.445404    ( 0.0000,  0.0000,  0.0000)
  31 Li     3.232774    3.234681   15.445326    ( 0.0000,  0.0000,  0.0000)
  32 Li     6.467905    3.232445   15.448025    ( 0.0000,  0.0000,  0.0000)
  33 Li    -0.000555    6.467950   15.445664    ( 0.0000,  0.0000,  0.0000)
  34 Li     3.234445    6.468091   15.445784    ( 0.0000,  0.0000,  0.0000)
  35 Li     6.468248    6.468058   15.445091    ( 0.0000,  0.0000,  0.0000)
  36 O      8.142171    1.602302   18.591011    ( 0.0000,  0.0000,  0.0000)
  37 O      7.850692    1.662517   21.343450    ( 0.0000,  0.0000,  0.0000)
  38 C      7.674759    2.797099   19.193043    ( 0.0000,  0.0000,  0.0000)
  39 C      8.240782    2.808220   20.592593    ( 0.0000,  0.0000,  0.0000)
  40 H      7.968233    3.701605   18.642568    ( 0.0000,  0.0000,  0.0000)
  41 H      6.582574    2.738675   19.206470    ( 0.0000,  0.0000,  0.0000)
  42 H      7.866122    3.677891   21.123806    ( 0.0000,  0.0000,  0.0000)
  43 H      9.339605    2.878082   20.533433    ( 0.0000,  0.0000,  0.0000)
  44 H      9.056009    1.696063   18.302665    ( 0.0000,  0.0000,  0.0000)
  45 H      7.949880    0.893226   20.765700    ( 0.0000,  0.0000,  0.0000)
  46 N      8.061282    1.614477   16.834336    ( 0.0000,  0.0000,  0.0000)
  47 N      6.929604    1.615389   16.860522    ( 0.0000,  0.0000,  0.0000)

Unit cell:
           periodic     x           y           z      points  spacing
  1. axis:    yes    9.702222    0.000000    0.000000    60     0.1617
  2. axis:    yes    0.000000    9.702222    0.000000    60     0.1617
  3. axis:    no     0.000000    0.000000   26.351111   164     0.1607

  Lengths:   9.702222   9.702222  26.351111
  Angles:   90.000000  90.000000  90.000000

Effective grid spacing dv^(1/3) = 0.1614

     iter     time        total  log10-change:
                         energy  eigst   dens
iter:   1 12:56:58  -323.861313  -0.84
iter:   2 12:57:06  -323.834451  -1.16  -1.77
iter:   3 12:57:15  -323.814302  -1.80  -1.80
iter:   4 12:57:22  -323.814023c -2.04  -2.21
Writing to output.gpw (mode='')

iter:   5 12:57:30  -323.812607c -2.19  -2.22
iter:   6 12:57:37  -323.843946c -1.91  -2.27
iter:   7 12:57:45  -323.818657c -2.12  -1.99
iter:   8 12:57:52  -323.797532  -1.74  -2.11
iter:   9 12:58:00  -323.800651c -2.91  -2.47
Writing to output.gpw (mode='')

iter:  10 12:58:07  -323.797867c -2.54  -2.55
iter:  11 12:58:15  -323.797264c -2.82  -2.85
iter:  12 12:58:22  -323.798335c -3.33  -2.82
iter:  13 12:58:30  -323.797717c -3.44  -2.93
iter:  14 12:58:37  -323.797599c -3.42  -3.06
Writing to output.gpw (mode='')

iter:  15 12:58:45  -323.798182c -3.61  -3.10
iter:  16 12:58:52  -323.797879c -3.91  -3.21
iter:  17 12:59:00  -323.797960c -4.22  -3.34
iter:  18 12:59:07  -323.797981c -4.14  -3.44
iter:  19 12:59:15  -323.797977c -4.41  -3.71
Writing to output.gpw (mode='')

iter:  20 12:59:22  -323.797991c -4.38  -3.75
iter:  21 12:59:30  -323.798004c -4.45  -3.80
iter:  22 12:59:43  -323.798047c -4.78  -3.83
iter:  23 12:59:51  -323.798033c -4.72  -3.97
iter:  24 12:59:58  -323.798049c -4.72  -3.97
Writing to output.gpw (mode='')

iter:  25 13:00:05  -323.798018c -5.07  -4.18c
iter:  26 13:00:13  -323.798039c -5.22  -4.23c
iter:  27 13:00:21  -323.798043c -5.25  -4.28c
iter:  28 13:00:28  -323.798048c -5.39  -4.29c
iter:  29 13:00:35  -323.798057c -5.42  -4.43c
Writing to output.gpw (mode='')

iter:  30 13:00:43  -323.798045c -5.69  -4.43c
iter:  31 13:00:50  -323.798050c -5.50  -4.48c
iter:  32 13:00:58  -323.798073c -5.72  -4.50c
iter:  33 13:01:05  -323.798058c -5.95  -4.46c
iter:  34 13:01:13  -323.798043c -5.66  -4.59c
Writing to output.gpw (mode='')

iter:  35 13:01:20  -323.798066c -5.99  -4.60c
iter:  36 13:01:28  -323.798054c -6.27  -4.72c
iter:  37 13:01:35  -323.798062c -6.02  -4.87c
iter:  38 13:01:43  -323.798059c -6.22  -4.96c
iter:  39 13:01:50  -323.798059c -6.31  -5.04c
Writing to output.gpw (mode='')

iter:  40 13:01:57  -323.798059c -6.63  -5.11c
iter:  41 13:02:05  -323.798061c -6.41  -5.17c
iter:  42 13:02:12  -323.798061c -6.89  -5.25c
iter:  43 13:02:20  -323.798061c -6.86  -5.32c
iter:  44 13:02:27  -323.798061c -6.74  -5.36c
Writing to output.gpw (mode='')

iter:  45 13:02:35  -323.798061c -6.77  -5.36c
iter:  46 13:02:42  -323.798061c -6.83  -5.42c
iter:  47 13:02:50  -323.798060c -6.95  -5.30c
iter:  48 13:02:57  -323.798060c -7.11  -5.28c
iter:  49 13:03:05  -323.798061c -7.17  -5.35c
Writing to output.gpw (mode='')

iter:  50 13:03:12  -323.798060c -7.33  -5.38c
iter:  51 13:03:20  -323.798062c -7.50c -5.28c

Converged after 51 iterations.

Dipole moment: (0.551751, -3.361169, -0.058667) |e|*Ang

Energy contributions relative to reference atoms: (reference = -16475.706344)

Kinetic:       +179.406028
Potential:     -167.551245
External:        +0.000000
XC:            -336.679940
Entropy (-ST):   -0.173491
Local:           +1.113840
--------------------------
Free energy:   -323.884808
Extrapolated:  -323.798062

Dipole-layer corrected work functions: 3.385292, 3.498070 eV

Showing only first 2 kpts
 Kpt  Band  Eigenvalues  Occupancy
  0    34     -3.68915    1.98592
  0    35     -3.52545    1.68456
  0    36     -3.36588    0.36010
  0    37     -3.20787    0.01846

  1    34     -3.48665    1.42167
  1    35     -3.46005    1.18169
  1    36     -3.38586    0.49335
  1    37     -3.33848    0.22528


Fermi level: -3.44168

Gap: 0.036 eV
Transition (v -> c):
  (s=0, k=2, n=35, [0.12, 0.12, 0.00]) -> (s=0, k=4, n=36, [0.38, -0.38, 0.00])
Writing to output.gpw (mode='')


Forces in eV/Ang:
  0 Li    0.01533   -0.00033   -0.26779
  1 Li   -0.02142   -0.00004   -0.27789
  2 Li    0.00882    0.00074   -0.28302
  3 Li   -0.00061   -0.00204   -0.27573
  4 Li    0.00508    0.01275   -0.27752
  5 Li   -0.00773    0.02460   -0.27591
  6 Li    0.00024    0.00263   -0.27420
  7 Li    0.00405   -0.01260   -0.27911
  8 Li   -0.00734   -0.02540   -0.27512
  9 Li    0.00652    0.00734    0.29566
 10 Li   -0.01253    0.00319    0.24445
 11 Li    0.00052    0.00816    0.32491
 12 Li    0.00614   -0.00728    0.29557
 13 Li   -0.01334   -0.00306    0.24661
 14 Li    0.00200   -0.00753    0.32366
 15 Li   -0.01524    0.00010    0.24659
 16 Li    0.00811   -0.00068    0.27631
 17 Li    0.01032   -0.00032    0.22607
 18 Li    0.00840   -0.00089    0.05194
 19 Li   -0.05052    0.00136   -0.08833
 20 Li    0.01667   -0.00124   -0.21882
 21 Li   -0.01320   -0.00299    0.03781
 22 Li    0.02803   -0.03145    0.06065
 23 Li   -0.00780   -0.00959    0.04356
 24 Li   -0.01498    0.00349    0.04095
 25 Li    0.02831    0.03017    0.05565
 26 Li   -0.00694    0.01080    0.03595
 27 Li    0.07596   -0.01779   -0.00156
 28 Li   -0.05228   -0.02102   -0.02890
 29 Li   -0.02309    0.03507    0.09074
 30 Li    0.08357    0.02467   -0.03024
 31 Li   -0.05250    0.02349   -0.02676
 32 Li   -0.01960   -0.03387    0.06142
 33 Li   -0.02477   -0.00798   -0.01094
 34 Li    0.01507   -0.00220   -0.00686
 35 Li    0.00480   -0.00375   -0.03546
 36 O     2.56190   -0.68919    5.73084
 37 O    -0.08789    0.06971    0.02064
 38 C    -0.06982    0.42159    0.70742
 39 C     0.02623    0.16050    0.34488
 40 H     0.11287   -0.12650   -0.11497
 41 H     0.08309   -0.08469   -0.00726
 42 H    -0.01257    0.16637    0.23957
 43 H    -0.07601    0.04868    0.01351
 44 H     0.74147    0.14940    1.04275
 45 H     0.05216    0.03384    0.03419
 46 N     0.31970   -0.08653   -4.47149
 47 N    -3.70660   -0.05410   -3.53824

System changes: positions 

Initializing position-dependent things.

Density initialized from wave functions
       .-----------------------.  
      /|                       |  
     / |                       |  
    /  |                       |  
   /   |                       |  
  /    |                       |  
 *     |                       |  
 |     |                       |  
 |     |                       |  
 |     |                       |  
 |     |               H       |  
 |     |             O C  H    |  
 |     |             H         |  
 |     Li      Li  H  CH       |  
 |     |              O        |  
 |     |     Li      Li H    Li|  
 |     |                       |  
 | Li  |  LLi     LNi N   Li   |  
 |     |                       |  
 |     |Li      LLi     Li     |  
 |   Li|     Li      Li        |  
 |    Li  Li  Li  Li  Li  Li   |  
 | Li  |   Li      Li          |  
 |     |Li      Li      Li     |  
 Li    | Li      Li            |  
 |    Li      Li      Li       |  
 |     |                       |  
 |     |                       |  
 |     |                       |  
 |     |                       |  
 |     |                       |  
 |     |                       |  
 |     .-----------------------.  
 |    /                       /   
 |   /                       /    
 |  /                       /     
 | /                       /      
 |/                       /       
 *-----------------------*        

Positions:
   0 Li     1.617037    1.617037   10.000000    ( 0.0000,  0.0000,  0.0000)
   1 Li     4.851111    1.617037   10.000000    ( 0.0000,  0.0000,  0.0000)
   2 Li     8.085185    1.617037   10.000000    ( 0.0000,  0.0000,  0.0000)
   3 Li     1.617037    4.851111   10.000000    ( 0.0000,  0.0000,  0.0000)
   4 Li     4.851111    4.851111   10.000000    ( 0.0000,  0.0000,  0.0000)
   5 Li     8.085185    4.851111   10.000000    ( 0.0000,  0.0000,  0.0000)
   6 Li     1.617037    8.085185   10.000000    ( 0.0000,  0.0000,  0.0000)
   7 Li     4.851111    8.085185   10.000000    ( 0.0000,  0.0000,  0.0000)
   8 Li     8.085185    8.085185   10.000000    ( 0.0000,  0.0000,  0.0000)
   9 Li     0.000000    0.000000   11.617037    ( 0.0000,  0.0000,  0.0000)
  10 Li     3.234074    0.000000   11.617037    ( 0.0000,  0.0000,  0.0000)
  11 Li     6.468148    0.000000   11.617037    ( 0.0000,  0.0000,  0.0000)
  12 Li     0.000000    3.234074   11.617037    ( 0.0000,  0.0000,  0.0000)
  13 Li     3.234074    3.234074   11.617037    ( 0.0000,  0.0000,  0.0000)
  14 Li     6.468148    3.234074   11.617037    ( 0.0000,  0.0000,  0.0000)
  15 Li     0.000000    6.468148   11.617037    ( 0.0000,  0.0000,  0.0000)
  16 Li     3.234074    6.468148   11.617037    ( 0.0000,  0.0000,  0.0000)
  17 Li     6.468148    6.468148   11.617037    ( 0.0000,  0.0000,  0.0000)
  18 Li     1.617346    1.617010   13.471515    ( 0.0000,  0.0000,  0.0000)
  19 Li     4.849345    1.617085   13.466582    ( 0.0000,  0.0000,  0.0000)
  20 Li     8.085776    1.617002   13.462143    ( 0.0000,  0.0000,  0.0000)
  21 Li     1.616569    4.850994   13.471038    ( 0.0000,  0.0000,  0.0000)
  22 Li     4.852079    4.850023   13.471796    ( 0.0000,  0.0000,  0.0000)
  23 Li     8.084913    4.850825   13.471171    ( 0.0000,  0.0000,  0.0000)
  24 Li     1.616508    8.085312   13.471132    ( 0.0000,  0.0000,  0.0000)
  25 Li     4.852086    8.086228   13.471632    ( 0.0000,  0.0000,  0.0000)
  26 Li     8.084940    8.085508   13.470889    ( 0.0000,  0.0000,  0.0000)
  27 Li     0.002446   -0.000529   15.446120    ( 0.0000,  0.0000,  0.0000)
  28 Li     3.232255   -0.000753   15.444947    ( 0.0000,  0.0000,  0.0000)
  29 Li     6.467556    0.001385   15.449494    ( 0.0000,  0.0000,  0.0000)
  30 Li     0.002678    3.234794   15.445146    ( 0.0000,  0.0000,  0.0000)
  31 Li     3.232260    3.234920   15.445005    ( 0.0000,  0.0000,  0.0000)
  32 Li     6.467736    3.232728   15.448509    ( 0.0000,  0.0000,  0.0000)
  33 Li    -0.000808    6.467868   15.445522    ( 0.0000,  0.0000,  0.0000)
  34 Li     3.234591    6.468066   15.445698    ( 0.0000,  0.0000,  0.0000)
  35 Li     6.468283    6.468020   15.444681    ( 0.0000,  0.0000,  0.0000)
  36 O      8.153145    1.593827   18.622791    ( 0.0000,  0.0000,  0.0000)
  37 O      7.849629    1.663412   21.344221    ( 0.0000,  0.0000,  0.0000)
  38 C      7.677616    2.797384   19.199844    ( 0.0000,  0.0000,  0.0000)
  39 C      8.240042    2.812269   20.598166    ( 0.0000,  0.0000,  0.0000)
  40 H      7.969373    3.700101   18.641797    ( 0.0000,  0.0000,  0.0000)
  41 H      6.583668    2.737638   19.206640    ( 0.0000,  0.0000,  0.0000)
  42 H      7.865979    3.680546   21.128185    ( 0.0000,  0.0000,  0.0000)
  43 H      9.338745    2.878695   20.533586    ( 0.0000,  0.0000,  0.0000)
  44 H      9.058295    1.699176   18.309746    ( 0.0000,  0.0000,  0.0000)
  45 H      7.950616    0.894305   20.765553    ( 0.0000,  0.0000,  0.0000)
  46 N      8.052934    1.612564   16.795263    ( 0.0000,  0.0000,  0.0000)
  47 N      6.920575    1.615846   16.844695    ( 0.0000,  0.0000,  0.0000)

Unit cell:
           periodic     x           y           z      points  spacing
  1. axis:    yes    9.702222    0.000000    0.000000    60     0.1617
  2. axis:    yes    0.000000    9.702222    0.000000    60     0.1617
  3. axis:    no     0.000000    0.000000   26.351111   164     0.1607

  Lengths:   9.702222   9.702222  26.351111
  Angles:   90.000000  90.000000  90.000000

Effective grid spacing dv^(1/3) = 0.1614

     iter     time        total  log10-change:
                         energy  eigst   dens
iter:   1 13:03:29  -324.279683  -0.95
iter:   2 13:03:36  -324.274546  -1.43  -1.95
iter:   3 13:03:44  -324.265734c -1.97  -1.97
iter:   4 13:03:51  -324.264814c -2.15  -2.44
Writing to output.gpw (mode='')

iter:   5 13:03:59  -324.259013c -2.02  -2.44
iter:   6 13:04:06  -324.259408c -2.65  -2.33
iter:   7 13:04:14  -324.260842c -2.50  -2.64
iter:   8 13:04:21  -324.258054c -2.91  -2.55
iter:   9 13:04:29  -324.258113c -3.06  -2.90
Writing to output.gpw (mode='')

iter:  10 13:04:42  -324.258120c -3.32  -3.00
iter:  11 13:04:51  -324.258456c -3.39  -3.06
iter:  12 13:04:58  -324.258293c -3.64  -3.14
iter:  13 13:05:06  -324.258335c -4.06  -3.31
iter:  14 13:05:13  -324.258338c -3.82  -3.35
Writing to output.gpw (mode='')

iter:  15 13:05:21  -324.258253c -4.07  -3.61
iter:  16 13:05:28  -324.258417c -4.23  -3.56
iter:  17 13:05:35  -324.258320c -4.45  -3.73
iter:  18 13:05:43  -324.258366c -4.56  -3.90
iter:  19 13:05:50  -324.258362c -4.78  -3.94
Writing to output.gpw (mode='')

iter:  20 13:05:58  -324.258364c -4.95  -3.96
iter:  21 13:06:05  -324.258380c -5.06  -3.99
iter:  22 13:06:13  -324.258383c -5.19  -4.16c
iter:  23 13:06:20  -324.258376c -5.26  -4.27c
iter:  24 13:06:28  -324.258376c -5.47  -4.31c
Writing to output.gpw (mode='')

iter:  25 13:06:35  -324.258380c -5.52  -4.40c
iter:  26 13:06:43  -324.258381c -5.60  -4.50c
iter:  27 13:06:50  -324.258374c -5.72  -4.58c
iter:  28 13:06:58  -324.258380c -6.01  -4.62c
iter:  29 13:07:05  -324.258383c -5.90  -4.68c
Writing to output.gpw (mode='')

iter:  30 13:07:13  -324.258387c -6.05  -4.84c
iter:  31 13:07:21  -324.258383c -6.02  -4.84c
iter:  32 13:07:28  -324.258382c -6.37  -4.93c
iter:  33 13:07:35  -324.258382c -6.19  -4.96c
iter:  34 13:07:43  -324.258385c -6.41  -5.01c
Writing to output.gpw (mode='')

iter:  35 13:07:50  -324.258383c -6.52  -5.27c
iter:  36 13:07:58  -324.258383c -6.62  -5.38c
iter:  37 13:08:05  -324.258384c -6.62  -5.39c
iter:  38 13:08:13  -324.258384c -6.55  -5.47c
iter:  39 13:08:20  -324.258384c -6.67  -5.52c
Writing to output.gpw (mode='')

iter:  40 13:08:28  -324.258385c -6.77  -5.60c
iter:  41 13:08:35  -324.258386c -6.94  -5.65c
iter:  42 13:08:43  -324.258385c -7.07  -5.54c
iter:  43 13:08:50  -324.258384c -6.87  -5.50c
iter:  44 13:08:58  -324.258385c -7.23  -5.49c
Writing to output.gpw (mode='')

iter:  45 13:09:05  -324.258384c -7.12  -5.50c
iter:  46 13:09:13  -324.258383c -7.13  -5.49c
iter:  47 13:09:20  -324.258386c -7.43c -5.43c

Converged after 47 iterations.

Dipole moment: (0.429772, -3.274875, -0.116211) |e|*Ang

Energy contributions relative to reference atoms: (reference = -16475.706344)

Kinetic:       +177.479312
Potential:     -166.267031
External:        +0.000000
XC:            -336.499914
Entropy (-ST):   -0.173509
Local:           +1.116002
--------------------------
Free energy:   -324.345140
Extrapolated:  -324.258386

Dipole-layer corrected work functions: 3.387817, 3.611215 eV

Showing only first 2 kpts
 Kpt  Band  Eigenvalues  Occupancy
  0    34     -3.74678    1.98587
  0    35     -3.57903    1.66131
  0    36     -3.42353    0.35903
  0    37     -3.26344    0.01765

  1    34     -3.54712    1.44303
  1    35     -3.51540    1.15753
  1    36     -3.44585    0.50958
  1    37     -3.39163    0.20723


Fermi level: -3.49952

Gap: 0.030 eV
Transition (v -> c):
  (s=0, k=2, n=35, [0.12, 0.12, 0.00]) -> (s=0, k=4, n=36, [0.38, -0.38, 0.00])
Writing to output.gpw (mode='')


Forces in eV/Ang:
  0 Li    0.01646   -0.00034   -0.26751
  1 Li   -0.02124   -0.00009   -0.27825
  2 Li    0.00845    0.00063   -0.28272
  3 Li   -0.00096   -0.00154   -0.27628
  4 Li    0.00430    0.01254   -0.27800
  5 Li   -0.00804    0.02497   -0.27611
  6 Li   -0.00015    0.00207   -0.27490
  7 Li    0.00335   -0.01244   -0.27926
  8 Li   -0.00756   -0.02561   -0.27523
  9 Li    0.00639    0.00737    0.29521
 10 Li   -0.01395    0.00280    0.24364
 11 Li    0.00000    0.00841    0.32511
 12 Li    0.00588   -0.00747    0.29517
 13 Li   -0.01441   -0.00252    0.24579
 14 Li    0.00162   -0.00789    0.32427
 15 Li   -0.01480    0.00014    0.24686
 16 Li    0.00919   -0.00063    0.27449
 17 Li    0.01133   -0.00026    0.22632
 18 Li    0.00854   -0.00083    0.04800
 19 Li   -0.04931    0.00097   -0.08361
 20 Li    0.01599   -0.00155   -0.20672
 21 Li   -0.01255   -0.00333    0.03828
 22 Li    0.02849   -0.03045    0.05940
 23 Li   -0.00718   -0.01000    0.04240
 24 Li   -0.01375    0.00376    0.04058
 25 Li    0.02869    0.02951    0.05483
 26 Li   -0.00650    0.01120    0.03548
 27 Li    0.06390   -0.00894    0.00538
 28 Li   -0.04700   -0.01967   -0.02935
 29 Li   -0.01342    0.01163    0.08307
 30 Li    0.07379    0.01695   -0.02568
 31 Li   -0.04844    0.02200   -0.02736
 32 Li   -0.01709   -0.01219    0.05420
 33 Li   -0.02386   -0.00750   -0.01133
 34 Li    0.01364   -0.00210   -0.00720
 35 Li    0.00381   -0.00376   -0.03597
 36 O     2.11999   -0.69307    4.63258
 37 O    -0.09259    0.07771    0.06868
 38 C    -0.05812    0.30203    0.60773
 39 C     0.02535    0.16476    0.35322
 40 H     0.11829   -0.17403   -0.08342
 41 H     0.12018   -0.08343    0.01385
 42 H    -0.02128    0.20634    0.30704
 43 H    -0.07196    0.06434    0.04365
 44 H     0.55415    0.14105    0.87305
 45 H     0.06209    0.08759    0.01991
 46 N     0.28816   -0.07671   -4.01104
 47 N    -3.04483   -0.01218   -2.88213

System changes: positions 

Initializing position-dependent things.

Density initialized from wave functions
       .-----------------------.  
      /|                       |  
     / |                       |  
    /  |                       |  
   /   |                       |  
  /    |                       |  
 *     |                       |  
 |     |                       |  
 |     |                       |  
 |     |                       |  
 |     |               H       |  
 |     |             O C  H    |  
 |     |             H         |  
 |     Li      Li  H  CH       |  
 |     |              O        |  
 |     |     Li      Li H    Li|  
 |     |                       |  
 | Li  |  LLi     LNi N   Li   |  
 |     |                       |  
 |     |Li      LLi     Li     |  
 |   Li|     Li      Li        |  
 |    Li  Li  Li  Li  Li  Li   |  
 | Li  |   Li      Li          |  
 |     |Li      Li      Li     |  
 Li    | Li      Li            |  
 |    Li      Li      Li       |  
 |     |                       |  
 |     |                       |  
 |     |                       |  
 |     |                       |  
 |     |                       |  
 |     |                       |  
 |     .-----------------------.  
 |    /                       /   
 |   /                       /    
 |  /                       /     
 | /                       /      
 |/                       /       
 *-----------------------*        

Positions:
   0 Li     1.617037    1.617037   10.000000    ( 0.0000,  0.0000,  0.0000)
   1 Li     4.851111    1.617037   10.000000    ( 0.0000,  0.0000,  0.0000)
   2 Li     8.085185    1.617037   10.000000    ( 0.0000,  0.0000,  0.0000)
   3 Li     1.617037    4.851111   10.000000    ( 0.0000,  0.0000,  0.0000)
   4 Li     4.851111    4.851111   10.000000    ( 0.0000,  0.0000,  0.0000)
   5 Li     8.085185    4.851111   10.000000    ( 0.0000,  0.0000,  0.0000)
   6 Li     1.617037    8.085185   10.000000    ( 0.0000,  0.0000,  0.0000)
   7 Li     4.851111    8.085185   10.000000    ( 0.0000,  0.0000,  0.0000)
   8 Li     8.085185    8.085185   10.000000    ( 0.0000,  0.0000,  0.0000)
   9 Li     0.000000    0.000000   11.617037    ( 0.0000,  0.0000,  0.0000)
  10 Li     3.234074    0.000000   11.617037    ( 0.0000,  0.0000,  0.0000)
  11 Li     6.468148    0.000000   11.617037    ( 0.0000,  0.0000,  0.0000)
[...]
Energy contributions relative to reference atoms: (reference = -16475.706344)

Kinetic:       +158.983594
Potential:     -151.644357
External:        +0.000000
XC:            -335.626342
Entropy (-ST):   -0.179203
Local:           +1.143156
--------------------------
Free energy:   -327.323152
Extrapolated:  -327.233551

Dipole-layer corrected work functions: 3.397547, 3.848599 eV

Showing only first 2 kpts
 Kpt  Band  Eigenvalues  Occupancy
  0    34     -3.86238    1.98345
  0    35     -3.62732    1.04239
  0    36     -3.57425    0.54721
  0    37     -3.39516    0.02074

  1    34     -3.76281    1.88478
  1    35     -3.61905    0.95979
  1    36     -3.57055    0.51825
  1    37     -3.45424    0.06606


Fermi level: -3.62307

No gap

Forces in eV/Ang:
  0 Li   -0.00052   -0.00127   -0.27851
  1 Li   -0.00295   -0.00148   -0.27773
  2 Li    0.00472   -0.00180   -0.26383
  3 Li    0.01348    0.00784   -0.27832
  4 Li    0.01864    0.01029   -0.28602
  5 Li    0.01534    0.01237   -0.29760
  6 Li    0.01533   -0.01176   -0.27954
  7 Li    0.01765   -0.01412   -0.28742
  8 Li    0.01518   -0.01424   -0.28853
  9 Li   -0.01987    0.02907    0.27326
 10 Li   -0.03347   -0.01246    0.25425
 11 Li   -0.00395    0.02616    0.31361
 12 Li   -0.02650   -0.02841    0.29506
 13 Li   -0.03397    0.01836    0.25932
 14 Li    0.01140   -0.02864    0.32910
 15 Li   -0.02592    0.02152    0.24528
 16 Li   -0.07467    0.01807    0.31045
 17 Li   -0.06342    0.02745    0.24858
 18 Li    0.01791   -0.01102    0.00414
 19 Li   -0.00265   -0.01012   -0.00031
 20 Li   -0.00070    0.00673    0.02560
 21 Li    0.00793    0.01028   -0.00258
 22 Li   -0.00710    0.00643    0.00046
 23 Li    0.00083   -0.01043    0.00092
 24 Li    0.00123   -0.01277    0.00173
 25 Li    0.00673   -0.00298   -0.00162
 26 Li    0.00565   -0.00290   -0.01155
 27 Li   -0.00282    0.00541   -0.00701
 28 Li    0.00336   -0.00356    0.00292
 29 Li   -0.00445   -0.01552    0.00913
 30 Li    0.00735   -0.00971   -0.01634
 31 Li    0.00576    0.01112    0.01293
 32 Li   -0.01635   -0.00173    0.00774
 33 Li   -0.00402   -0.00059    0.01738
 34 Li   -0.00442   -0.00073   -0.00256
 35 Li    0.00275   -0.00199    0.00016
 36 O     0.02865    0.00413    0.00453
 37 O     0.01926   -0.01151    0.00024
 38 C     0.01296   -0.00929   -0.00616
 39 C    -0.00837   -0.02639   -0.01794
 40 H     0.02596   -0.00546    0.01404
 41 H     0.02283   -0.00285   -0.02881
 42 H     0.00539   -0.00298   -0.00534
 43 H    -0.00459   -0.00364    0.00010
 44 H     0.00279    0.02409    0.01965
 45 H     0.01631    0.00737    0.01694
 46 N     0.02685   -0.03593    0.03734
 47 N    -0.01931   -0.01414   -0.01486

System changes: positions 

Initializing position-dependent things.

Density initialized from wave functions
       .-----------------------.  
      /|                       |  
     / |                       |  
    /  |                       |  
   /   |                       |  
  /    |                       |  
 *     |                       |  
 |     |                       |  
 |     |                       |  
 |     |                       |  
 |     |              H   H    |  
 |     |             OHC       |  
 |     |                       |  
 |     |      Li    H  CH      |  
 |H    |                O      |  
 |     |     Li      Li      Li|  
 |     |                       |  
 |     |  LLi     LNi     Li   |  
 |     |             N         |  
 |     |Li      Li      Li     |  
 |   Li|     Li      Li        |  
 |    Li  Li  Li  Li  Li  Li   |  
 | Li  |   Li      Li          |  
 |     |Li      Li      Li     |  
 Li    | Li      Li            |  
 |    Li      Li      Li       |  
 |     |                       |  
 |     |                       |  
 |     |                       |  
 |     |                       |  
 |     |                       |  
 |     |                       |  
 |     .-----------------------.  
 |    /                       /   
 |   /                       /    
 |  /                       /     
 | /                       /      
 |/                       /       
 *-----------------------*        

Positions:
   0 Li     1.617037    1.617037   10.000000    ( 0.0000,  0.0000,  0.0000)
   1 Li     4.851111    1.617037   10.000000    ( 0.0000,  0.0000,  0.0000)
   2 Li     8.085185    1.617037   10.000000    ( 0.0000,  0.0000,  0.0000)
   3 Li     1.617037    4.851111   10.000000    ( 0.0000,  0.0000,  0.0000)
   4 Li     4.851111    4.851111   10.000000    ( 0.0000,  0.0000,  0.0000)
   5 Li     8.085185    4.851111   10.000000    ( 0.0000,  0.0000,  0.0000)
   6 Li     1.617037    8.085185   10.000000    ( 0.0000,  0.0000,  0.0000)
   7 Li     4.851111    8.085185   10.000000    ( 0.0000,  0.0000,  0.0000)
   8 Li     8.085185    8.085185   10.000000    ( 0.0000,  0.0000,  0.0000)
   9 Li     0.000000    0.000000   11.617037    ( 0.0000,  0.0000,  0.0000)
  10 Li     3.234074    0.000000   11.617037    ( 0.0000,  0.0000,  0.0000)
  11 Li     6.468148    0.000000   11.617037    ( 0.0000,  0.0000,  0.0000)
  12 Li     0.000000    3.234074   11.617037    ( 0.0000,  0.0000,  0.0000)
  13 Li     3.234074    3.234074   11.617037    ( 0.0000,  0.0000,  0.0000)
  14 Li     6.468148    3.234074   11.617037    ( 0.0000,  0.0000,  0.0000)
  15 Li     0.000000    6.468148   11.617037    ( 0.0000,  0.0000,  0.0000)
  16 Li     3.234074    6.468148   11.617037    ( 0.0000,  0.0000,  0.0000)
  17 Li     6.468148    6.468148   11.617037    ( 0.0000,  0.0000,  0.0000)
  18 Li     1.583713    1.618466   13.491421    ( 0.0000,  0.0000,  0.0000)
  19 Li     4.760983    1.626119   13.455060    ( 0.0000,  0.0000,  0.0000)
  20 Li     8.113686    1.597312   13.529026    ( 0.0000,  0.0000,  0.0000)
  21 Li     1.529377    4.840187   13.521469    ( 0.0000,  0.0000,  0.0000)
  22 Li     4.801674    4.839221   13.488895    ( 0.0000,  0.0000,  0.0000)
  23 Li     8.036092    4.894638   13.441637    ( 0.0000,  0.0000,  0.0000)
  24 Li     1.518560    8.123044   13.535388    ( 0.0000,  0.0000,  0.0000)
  25 Li     4.792260    8.124109   13.508396    ( 0.0000,  0.0000,  0.0000)
  26 Li     8.034384    8.103012   13.483282    ( 0.0000,  0.0000,  0.0000)
  27 Li    -0.348603    0.137679   15.557847    ( 0.0000,  0.0000,  0.0000)
  28 Li     3.036075   -0.018214   15.483332    ( 0.0000,  0.0000,  0.0000)
  29 Li     6.369515   -0.008429   15.522233    ( 0.0000,  0.0000,  0.0000)
  30 Li    -0.331569    3.162321   15.412418    ( 0.0000,  0.0000,  0.0000)
  31 Li     3.041839    3.246416   15.456048    ( 0.0000,  0.0000,  0.0000)
  32 Li     6.407481    3.330602   15.454240    ( 0.0000,  0.0000,  0.0000)
  33 Li    -0.014469    6.472435   15.446169    ( 0.0000,  0.0000,  0.0000)
  34 Li     3.264188    6.464376   15.453960    ( 0.0000,  0.0000,  0.0000)
  35 Li     6.457985    6.494390   15.398691    ( 0.0000,  0.0000,  0.0000)
  36 O      8.883298    1.421166   18.984628    ( 0.0000,  0.0000,  0.0000)
  37 O      7.794806    1.809762   21.697005    ( 0.0000,  0.0000,  0.0000)
  38 C      8.057211    2.539072   19.375307    ( 0.0000,  0.0000,  0.0000)
  39 C      8.216432    2.876191   20.848629    ( 0.0000,  0.0000,  0.0000)
  40 H      8.276128    3.422076   18.758325    ( 0.0000,  0.0000,  0.0000)
  41 H      7.033437    2.220885   19.175024    ( 0.0000,  0.0000,  0.0000)
  42 H      7.588878    3.736172   21.098484    ( 0.0000,  0.0000,  0.0000)
  43 H      9.262279    3.154073   21.058065    ( 0.0000,  0.0000,  0.0000)
  44 H      9.808001    1.694135   19.047276    ( 0.0000,  0.0000,  0.0000)
  45 H      8.188499    0.998082   21.349386    ( 0.0000,  0.0000,  0.0000)
  46 N      7.775160    1.646066   15.451279    ( 0.0000,  0.0000,  0.0000)
  47 N      6.990967    1.671978   16.395313    ( 0.0000,  0.0000,  0.0000)

Unit cell:
           periodic     x           y           z      points  spacing
  1. axis:    yes    9.702222    0.000000    0.000000    60     0.1617
  2. axis:    yes    0.000000    9.702222    0.000000    60     0.1617
  3. axis:    no     0.000000    0.000000   26.351111   164     0.1607

  Lengths:   9.702222   9.702222  26.351111
  Angles:   90.000000  90.000000  90.000000

Effective grid spacing dv^(1/3) = 0.1614

     iter     time        total  log10-change:
                         energy  eigst   dens
iter:   1 19:12:51  -327.266618  -1.65
iter:   2 19:12:58  -327.263622  -1.83  -1.85
iter:   3 19:13:05  -327.236731c -3.03  -1.91
iter:   4 19:13:13  -327.235711c -3.34  -2.47
Writing to output.gpw (mode='')

iter:   5 19:13:20  -327.234184c -2.57  -2.59
iter:   6 19:13:28  -327.234324c -3.67  -2.88
iter:   7 19:13:35  -327.234306c -3.34  -3.05
iter:   8 19:13:42  -327.234159c -3.32  -3.17
iter:   9 19:13:50  -327.234174c -4.19  -3.19
Writing to output.gpw (mode='')

iter:  10 19:13:57  -327.234192c -4.36  -3.46
iter:  11 19:14:05  -327.234162c -4.18  -3.48
iter:  12 19:14:12  -327.234191c -4.86  -3.58
iter:  13 19:14:19  -327.234194c -5.13  -3.68
iter:  14 19:14:27  -327.234193c -5.16  -3.69
Writing to output.gpw (mode='')

iter:  15 19:14:40  -327.234179c -5.05  -3.86
iter:  16 19:14:48  -327.234185c -5.66  -3.97
iter:  17 19:14:56  -327.234190c -5.68  -4.04c
iter:  18 19:15:03  -327.234188c -5.79  -4.17c
iter:  19 19:15:11  -327.234185c -6.08  -4.37c
Writing to output.gpw (mode='')

iter:  20 19:15:18  -327.234187c -6.43  -4.45c
iter:  21 19:15:25  -327.234187c -6.52  -4.62c
iter:  22 19:15:33  -327.234187c -6.80  -4.71c
iter:  23 19:15:40  -327.234187c -6.98  -4.82c
iter:  24 19:15:48  -327.234188c -7.20  -4.87c
Writing to output.gpw (mode='')

iter:  25 19:15:55  -327.234187c -7.33  -4.92c
iter:  26 19:16:02  -327.234186c -7.34  -4.97c
iter:  27 19:16:10  -327.234187c -7.68c -5.22c

Converged after 27 iterations.

Dipole moment: (4.075934, -3.673483, -0.234490) |e|*Ang

Energy contributions relative to reference atoms: (reference = -16475.706344)

Kinetic:       +158.915977
Potential:     -151.604488
External:        +0.000000
XC:            -335.599052
Entropy (-ST):   -0.179315
Local:           +1.143033
--------------------------
Free energy:   -327.323844
Extrapolated:  -327.234187

Dipole-layer corrected work functions: 3.397332, 3.848102 eV

Showing only first 2 kpts
 Kpt  Band  Eigenvalues  Occupancy
  0    34     -3.86143    1.98325
  0    35     -3.62643    1.03716
  0    36     -3.57402    0.54823
  0    37     -3.39512    0.02087

  1    34     -3.76270    1.88532
  1    35     -3.61922    0.96506
  1    36     -3.57081    0.52304
  1    37     -3.45415    0.06640


Fermi level: -3.62272

No gap
Writing to output.gpw (mode='')


Forces in eV/Ang:
  0 Li   -0.00057   -0.00125   -0.27810
  1 Li   -0.00306   -0.00146   -0.27831
  2 Li    0.00483   -0.00180   -0.26404
  3 Li    0.01324    0.00779   -0.27892
  4 Li    0.01875    0.01028   -0.28567
  5 Li    0.01526    0.01256   -0.29760
  6 Li    0.01528   -0.01181   -0.27982
  7 Li    0.01768   -0.01418   -0.28745
  8 Li    0.01510   -0.01442   -0.28868
  9 Li   -0.02081    0.02886    0.27267
 10 Li   -0.03387   -0.01200    0.25624
 11 Li   -0.00196    0.02650    0.31534
 12 Li   -0.02779   -0.02760    0.29508
 13 Li   -0.03434    0.01906    0.26072
 14 Li    0.01459   -0.02898    0.32996
 15 Li   -0.02684    0.02196    0.24693
 16 Li   -0.07460    0.01737    0.31319
 17 Li   -0.06150    0.02754    0.24890
 18 Li    0.02168   -0.01263    0.00333
 19 Li   -0.00482   -0.01091   -0.00022
 20 Li   -0.00349    0.00818    0.03030
 21 Li    0.00884    0.01093   -0.00303
 22 Li   -0.00877    0.00766    0.00005
 23 Li    0.00039   -0.01117    0.00060
 24 Li    0.00182   -0.01399    0.00195
 25 Li    0.00696   -0.00301   -0.00163
 26 Li    0.00625   -0.00400   -0.01310
 27 Li   -0.00152    0.00437   -0.00844
 28 Li    0.00217   -0.00408    0.00322
 29 Li   -0.00568   -0.01979    0.00993
 30 Li    0.00677   -0.01222   -0.01831
 31 Li    0.00494    0.01258    0.01428
 32 Li   -0.01438   -0.00765    0.01004
 33 Li   -0.00450   -0.00078    0.01777
 34 Li   -0.00414   -0.00071   -0.00248
 35 Li    0.00247   -0.00147   -0.00275
 36 O     0.01509   -0.00525    0.02751
 37 O     0.02602   -0.00641    0.01249
 38 C     0.00486   -0.01555   -0.01114
 39 C    -0.00187   -0.01787   -0.01315
 40 H     0.01076   -0.00037    0.01446
 41 H     0.02488    0.01177   -0.03088
 42 H     0.00610   -0.01264   -0.01189
 43 H    -0.00500   -0.01331   -0.00000
 44 H     0.01892    0.03053    0.02468
 45 H     0.01412    0.01948    0.01504
 46 N     0.00776   -0.02436   -0.00815
 47 N    -0.01554    0.01536   -0.00856

Timing:                                      incl.     excl.
-------------------------------------------------------------------
Density initialized from wave functions:     6.157     6.155   0.0% |
 Symmetrize density:                         0.002     0.002   0.0% |
Forces:                                     42.007    42.007   0.2% |
Hamiltonian:                               569.334     0.013   0.0% |
 Atomic:                                     0.022     0.022   0.0% |
  XC Correction:                             0.000     0.000   0.0% |
 Calculate atomic Hamiltonians:              0.037     0.037   0.0% |
 Communicate:                                5.810     5.810   0.0% |
 Hartree integrate/restrict:                 1.843     1.843   0.0% |
 Initialize Hamiltonian:                     0.000     0.000   0.0% |
 Poisson:                                   28.285    10.882   0.0% |
  Communicate from 1D:                       2.593     2.593   0.0% |
  Communicate from 2D:                       2.855     2.855   0.0% |
  Communicate to 1D:                         1.539     1.539   0.0% |
  Communicate to 2D:                         3.359     3.359   0.0% |
  FFT 1D:                                    3.685     3.685   0.0% |
  FFT 2D:                                    3.373     3.373   0.0% |
 XC 3D grid:                               532.857    80.234   0.3% |
  VdW-DF integral:                         452.623     3.668   0.0% |
   Convolution:                             41.440    41.440   0.2% |
   FFT:                                     17.214    17.214   0.1% |
   gather:                                 159.072   159.072   0.6% |
   hmm1:                                    14.028    14.028   0.1% |
   hmm2:                                    18.744    18.744   0.1% |
   iFFT:                                    18.035    18.035   0.1% |
   potential:                              176.822     5.156   0.0% |
    collect:                                26.471    26.471   0.1% |
    p1:                                     77.864    77.864   0.3% |
    p2:                                     29.094    29.094   0.1% |
    sum:                                    38.238    38.238   0.2% |
   splines:                                  3.601     3.601   0.0% |
 vbar:                                       0.468     0.468   0.0% |
LCAO initialization:                         1.149     0.183   0.0% |
 LCAO eigensolver:                           0.232     0.000   0.0% |
  Calculate projections:                     0.000     0.000   0.0% |
  DenseAtomicCorrection:                     0.000     0.000   0.0% |
  Distribute overlap matrix:                 0.211     0.211   0.0% |
  Orbital Layouts:                           0.019     0.019   0.0% |
  Potential matrix:                          0.001     0.001   0.0% |
  Sum over cells:                            0.001     0.001   0.0% |
 LCAO to grid:                               0.626     0.626   0.0% |
 Set positions (LCAO WFS):                   0.107     0.064   0.0% |
  Basic WFS set positions:                   0.001     0.001   0.0% |
  Basis functions set positions:             0.000     0.000   0.0% |
  P tci:                                     0.000     0.000   0.0% |
  ST tci:                                    0.012     0.012   0.0% |
  mktci:                                     0.030     0.030   0.0% |
Redistribute:                                0.065     0.065   0.0% |
SCF-cycle:                               24064.058   431.114   1.7% ||
 Davidson:                                6487.830  1945.092   7.8% |--|
  Apply hamiltonian:                       402.875   402.875   1.6% ||
  Subspace diag:                          1203.131     0.375   0.0% |
   calc_h_matrix:                          596.089   186.445   0.8% |
    Apply hamiltonian:                     409.644   409.644   1.7% ||
   diagonalize:                             65.496    65.496   0.3% |
   rotate_psi:                             541.171   541.171   2.2% ||
  calc. matrices:                         2064.033  1062.417   4.3% |-|
   Apply hamiltonian:                     1001.616  1001.616   4.0% |-|
  diagonalize:                              19.030    19.030   0.1% |
  rotate_psi:                              853.668   853.668   3.4% ||
 Density:                                  117.746     0.075   0.0% |
  Atomic density matrices:                  12.668    12.668   0.1% |
  Mix:                                      48.972    48.972   0.2% |
  Multipole moments:                         6.567     6.567   0.0% |
  Pseudo density:                           49.463    49.402   0.2% |
   Symmetrize density:                       0.061     0.061   0.0% |
 Hamiltonian:                            17008.288     0.401   0.0% |
  Atomic:                                    0.753     0.745   0.0% |
   XC Correction:                            0.008     0.008   0.0% |
  Calculate atomic Hamiltonians:             1.289     1.289   0.0% |
  Communicate:                             229.887   229.887   0.9% |
  Hartree integrate/restrict:               60.082    60.082   0.2% |
  Poisson:                                 811.337   299.270   1.2% |
   Communicate from 1D:                     80.349    80.349   0.3% |
   Communicate from 2D:                     83.200    83.200   0.3% |
   Communicate to 1D:                       45.596    45.596   0.2% |
   Communicate to 2D:                       93.810    93.810   0.4% |
   FFT 1D:                                 104.371   104.371   0.4% |
   FFT 2D:                                 104.741   104.741   0.4% |
  XC 3D grid:                            15889.803  2407.776   9.7% |---|
   VdW-DF integral:                      13482.027   114.855   0.5% |
    Convolution:                          1258.053  1258.053   5.1% |-|
    FFT:                                   533.515   533.515   2.2% ||
    gather:                               4715.574  4715.574  19.0% |-------|
    hmm1:                                  431.892   431.892   1.7% ||
    hmm2:                                  578.998   578.998   2.3% ||
    iFFT:                                  551.559   551.559   2.2% ||
    potential:                            5297.552   152.889   0.6% |
     collect:                              825.920   825.920   3.3% ||
     p1:                                  2408.648  2408.648   9.7% |---|
     p2:                                   871.234   871.234   3.5% ||
     sum:                                 1038.861  1038.861   4.2% |-|
    splines:                                 0.028     0.028   0.0% |
  vbar:                                     14.736    14.736   0.1% |
 Orthonormalize:                            19.079     0.013   0.0% |
  calc_s_matrix:                             2.741     2.741   0.0% |
  inverse-cholesky:                          5.702     5.702   0.0% |
  projections:                               0.002     0.002   0.0% |
  rotate_psi_s:                             10.621    10.621   0.0% |
Set symmetry:                                0.002     0.002   0.0% |
Other:                                     116.104   116.104   0.5% |
-------------------------------------------------------------------
Total:                                             24798.875 100.0%

Memory usage: 1.12 GiB
Date: Fri Mar 10 19:16:10 2023
