
  ___ ___ ___ _ _ _  
 |   |   |_  | | | | 
 | | | | | . | | | | 
 |__ |  _|___|_____|  22.8.0
 |___|_|             

User:   vazumah@r262.ib.bridges2.psc.edu
Date:   Fri Mar 10 11:26:31 2023
Arch:   x86_64
Pid:    15828
CWD:    /jet/home/vazumah/Calcs/LiMEAS/proton_donors/methanol_x/ontop/9.702_9.702/N2_z
Python: 3.11.0
gpaw:   /jet/home/vazumah/.conda/envs/GPAW_mpich/lib/python3.11/site-packages/gpaw
_gpaw:  /jet/home/vazumah/.conda/envs/GPAW_mpich/lib/python3.11/site-packages/
        _gpaw.cpython-311-x86_64-linux-gnu.so
ase:    /jet/home/vazumah/.conda/envs/GPAW_mpich/lib/python3.11/site-packages/ase (version 3.22.1)
numpy:  /jet/home/vazumah/.conda/envs/GPAW_mpich/lib/python3.11/site-packages/numpy (version 1.24.2)
scipy:  /jet/home/vazumah/.conda/envs/GPAW_mpich/lib/python3.11/site-packages/scipy (version 1.10.1)
libxc:  5.2.3
units:  Angstrom and eV
cores: 128
OpenMP: True
OMP_NUM_THREADS: 1

Input parameters:
  h: 0.16
  kpts: {size: [4, 4, 1]}
  occupations: {name: fermi-dirac,
                width: 0.05}
  poissonsolver: {dipolelayer: xy}
  xc: BEEF-vdW

System changes: positions, numbers, cell, pbc, initial_charges, initial_magmoms 

Initialize ...

species:
  Li:
    name: Lithium
    id: 830b4218f175192f93f959cfc0aad614
    Z: 3.0
    valence: 1
    core: 2
    charge: 0.0
    file: /jet/home/vazumah/datasets/gpaw-setups-0.9.20000/Li.PBE.gz
    compensation charges: {type: gauss,
                           rc: 0.33,
                           lmax: 2}
    cutoffs: {filter: 1.91,
              core: 2.55}
    valence states:
      #              energy  rcut
      - 2s(1.00)    -2.874   1.058
      - 2p(0.00)    -1.090   1.058
      -  s          24.337   1.058
  
    # Using partial waves for Li as LCAO basis

  O:
    name: Oxygen
    id: 32ecd46bf208036f09c70b0ec9a88b78
    Z: 8.0
    valence: 6
    core: 2
    charge: 0.0
    file: /jet/home/vazumah/datasets/gpaw-setups-0.9.20000/O.PBE.gz
    compensation charges: {type: gauss,
                           rc: 0.21,
                           lmax: 2}
    cutoffs: {filter: 1.17,
              core: 0.83}
    valence states:
      #              energy  rcut
      - 2s(2.00)   -23.961   0.688
      - 2p(4.00)    -9.029   0.598
      -  s           3.251   0.688
      -  p          18.182   0.598
      -  d           0.000   0.619
  
    # Using partial waves for O as LCAO basis

  C:
    name: Carbon
    id: 4aa54d4b901d75f77cc0ea3eec22967b
    Z: 6.0
    valence: 4
    core: 2
    charge: 0.0
    file: /jet/home/vazumah/datasets/gpaw-setups-0.9.20000/C.PBE.gz
    compensation charges: {type: gauss,
                           rc: 0.20,
                           lmax: 2}
    cutoffs: {filter: 1.14,
              core: 1.14}
    valence states:
      #              energy  rcut
      - 2s(2.00)   -13.751   0.635
      - 2p(2.00)    -5.284   0.635
      -  s          13.461   0.635
      -  p          21.927   0.635
      -  d           0.000   0.635
  
    # Using partial waves for C as LCAO basis

  H:
    name: Hydrogen
    id: d65de229564ff8ea4db303e23b6d1ecf
    Z: 1.0
    valence: 1
    core: 0
    charge: 0.0
    file: /jet/home/vazumah/datasets/gpaw-setups-0.9.20000/H.PBE.gz
    compensation charges: {type: gauss,
                           rc: 0.15,
                           lmax: 2}
    cutoffs: {filter: 0.85,
              core: 0.53}
    valence states:
      #              energy  rcut
      - 1s(1.00)    -6.494   0.476
      -  s          20.717   0.476
      -  p           0.000   0.476
  
    # Using partial waves for H as LCAO basis

  N:
    name: Nitrogen
    id: f7500608b86eaa90eef8b1d9a670dc53
    Z: 7.0
    valence: 5
    core: 2
    charge: 0.0
    file: /jet/home/vazumah/datasets/gpaw-setups-0.9.20000/N.PBE.gz
    compensation charges: {type: gauss,
                           rc: 0.18,
                           lmax: 2}
    cutoffs: {filter: 1.11,
              core: 0.96}
    valence states:
      #              energy  rcut
      - 2s(2.00)   -18.583   0.603
      - 2p(3.00)    -7.089   0.529
      -  s           8.629   0.603
      -  p          20.123   0.529
      -  d           0.000   0.577
  
    # Using partial waves for N as LCAO basis

Reference energy: -13382.245603  # eV

Spin-paired calculation

Convergence criteria:
 Maximum [total energy] change in last 3 cyles: 0.0005 eV / electron
 Maximum integral of absolute [dens]ity change: 0.0001 electrons / valence electron
 Maximum integral of absolute [eigenst]ate change: 4e-08 eV^2 / valence electron
 Maximum number of scf [iter]ations: 333
 (Square brackets indicate name in SCF output, whereas a 'c' in
 the SCF output indicates the quantity has converged.)

Symmetries present (total): 1

  ( 1  0  0)
  ( 0  1  0)
  ( 0  0  1)

16 k-points: 4 x 4 x 1 Monkhorst-Pack grid
8 k-points in the irreducible part of the Brillouin zone
       k-points in crystal coordinates                weights
   0:     0.12500000   -0.37500000    0.00000000          2/16
   1:     0.12500000   -0.12500000    0.00000000          2/16
   2:     0.12500000    0.12500000    0.00000000          2/16
   3:     0.12500000    0.37500000    0.00000000          2/16
   4:     0.37500000   -0.37500000    0.00000000          2/16
   5:     0.37500000   -0.12500000    0.00000000          2/16
   6:     0.37500000    0.12500000    0.00000000          2/16
   7:     0.37500000    0.37500000    0.00000000          2/16

Wave functions: Uniform real-space grid
  Kinetic energy operator: 6*3+1=19 point O(h^6) finite-difference Laplacian
  ScaLapack parameters: grid=1x1, blocksize=None
  Wavefunction extrapolation:
    Improved wavefunction reuse through dual PAW basis 

Occupation numbers: Fermi-Dirac:
  width: 0.0500  # eV
 

Eigensolver
   Davidson(niter=2) 

Densities:
  Coarse grid: 60*60*168 grid
  Fine grid: 120*120*336 grid
  Total Charge: 0.000000 

Density mixing:
  Method: separate
  Backend: pulay
  Linear mixing parameter: 0.05
  old densities: 5
  Damping of long wavelength oscillations: 50 

Hamiltonian:
  XC and Coulomb potentials evaluated on a 120*120*336 grid
  Using the BEEF-vdW Exchange-Correlation functional
  Interpolation: tri-quintic (5. degree polynomial)
  Poisson solver: FastPoissonSolver using
    Stencil: 6*3+1=19 point O(h^6) finite-difference Laplacian
    FFT axes: [0, 1]
    FST axes: [2]

Dipole correction along z-axis 

XC parameters: BEEF-vdW with 2 nearest neighbor stencil

Memory estimate:
  Process memory now: 125.33 MiB
  Calculator: 77.36 MiB
    Density: 22.77 MiB
      Arrays: 7.40 MiB
      Localized functions: 12.55 MiB
      Mixer: 2.82 MiB
    Hamiltonian: 5.83 MiB
      Arrays: 4.84 MiB
      XC: 0.00 MiB
      Poisson: 0.00 MiB
      vbar: 0.99 MiB
    Wavefunctions: 48.76 MiB
      Arrays psit_nG: 22.52 MiB
      Eigensolver: 25.58 MiB
      Projections: 0.01 MiB
      Projectors: 0.64 MiB

Total number of cores used: 128
Parallelization over k-points: 8
Domain decomposition: 2 x 2 x 4

Number of atoms: 44
Number of atomic orbitals: 164
Number of bands in calculation: 40
Number of valence electrons: 60
Bands to converge: occupied

... initialized

Initializing position-dependent things.

Density initialized from atomic densities
Creating initial wave functions:
  40 bands from LCAO basis set

       .-----------------------.  
      /|                       |  
     / |                       |  
    /  |                       |  
   /   |                       |  
  /    |                       |  
 *     |                       |  
 |     |   H                   |  
 |     |                       |  
 |     |   C                  H|  
 |     |   H                   N  
 |     |                       |  
 |     |                       N  
 |     |                       |  
 |    H|                       |  
 O     |                       |  
 |   Li|     Li      Li        |  
 |     |  Li      Li      Li   |  
 | Li  |   Li      Li          |  
 |     |Li      Li      Li     |  
 Li    | Li      Li            |  
 |   LLi     LLi     LLi       |  
 |     |  Li      Li      Li   |  
 | Li  |   Li      Li          |  
 |     |Li      Li      Li     |  
 Li    | Li      Li            |  
 |    Li      Li      Li       |  
 |     |                       |  
 |     |                       |  
 |     |                       |  
 |     |                       |  
 |     |                       |  
 |     |                       |  
 |     .-----------------------.  
 |    /                       /   
 |   /                       /    
 |  /                       /     
 | /                       /      
 |/                       /       
 *-----------------------*        

Positions:
   0 Li     1.617037    1.617037   10.000000    ( 0.0000,  0.0000,  0.0000)
   1 Li     4.851111    1.617037   10.000000    ( 0.0000,  0.0000,  0.0000)
   2 Li     8.085185    1.617037   10.000000    ( 0.0000,  0.0000,  0.0000)
   3 Li     1.617037    4.851111   10.000000    ( 0.0000,  0.0000,  0.0000)
   4 Li     4.851111    4.851111   10.000000    ( 0.0000,  0.0000,  0.0000)
   5 Li     8.085185    4.851111   10.000000    ( 0.0000,  0.0000,  0.0000)
   6 Li     1.617037    8.085185   10.000000    ( 0.0000,  0.0000,  0.0000)
   7 Li     4.851111    8.085185   10.000000    ( 0.0000,  0.0000,  0.0000)
   8 Li     8.085185    8.085185   10.000000    ( 0.0000,  0.0000,  0.0000)
   9 Li     0.000000    0.000000   11.617037    ( 0.0000,  0.0000,  0.0000)
  10 Li     3.234074    0.000000   11.617037    ( 0.0000,  0.0000,  0.0000)
  11 Li     6.468148    0.000000   11.617037    ( 0.0000,  0.0000,  0.0000)
  12 Li     0.000000    3.234074   11.617037    ( 0.0000,  0.0000,  0.0000)
  13 Li     3.234074    3.234074   11.617037    ( 0.0000,  0.0000,  0.0000)
  14 Li     6.468148    3.234074   11.617037    ( 0.0000,  0.0000,  0.0000)
  15 Li     0.000000    6.468148   11.617037    ( 0.0000,  0.0000,  0.0000)
  16 Li     3.234074    6.468148   11.617037    ( 0.0000,  0.0000,  0.0000)
  17 Li     6.468148    6.468148   11.617037    ( 0.0000,  0.0000,  0.0000)
  18 Li     1.617038    1.617038   13.469728    ( 0.0000,  0.0000,  0.0000)
  19 Li     4.851111    1.617038   13.469729    ( 0.0000,  0.0000,  0.0000)
  20 Li     8.085184    1.617038   13.469728    ( 0.0000,  0.0000,  0.0000)
  21 Li     1.617038    4.851111   13.469729    ( 0.0000,  0.0000,  0.0000)
  22 Li     4.851111    4.851111   13.469730    ( 0.0000,  0.0000,  0.0000)
  23 Li     8.085184    4.851111   13.469729    ( 0.0000,  0.0000,  0.0000)
  24 Li     1.617038    8.085184   13.469728    ( 0.0000,  0.0000,  0.0000)
  25 Li     4.851111    8.085184   13.469729    ( 0.0000,  0.0000,  0.0000)
  26 Li     8.085184    8.085184   13.469728    ( 0.0000,  0.0000,  0.0000)
  27 Li    -0.000000   -0.000000   15.445939    ( 0.0000,  0.0000,  0.0000)
  28 Li     3.234074    0.000000   15.445939    ( 0.0000,  0.0000,  0.0000)
  29 Li     6.468148    0.000000   15.445939    ( 0.0000,  0.0000,  0.0000)
  30 Li     0.000000    3.234074   15.445939    ( 0.0000,  0.0000,  0.0000)
  31 Li     3.234076    3.234076   15.445938    ( 0.0000,  0.0000,  0.0000)
  32 Li     6.468146    3.234076   15.445938    ( 0.0000,  0.0000,  0.0000)
  33 Li     0.000000    6.468148   15.445939    ( 0.0000,  0.0000,  0.0000)
  34 Li     3.234076    6.468146   15.445938    ( 0.0000,  0.0000,  0.0000)
  35 Li     6.468146    6.468146   15.445938    ( 0.0000,  0.0000,  0.0000)
  36 O      9.702222    9.702222   19.645939    ( 0.0000,  0.0000,  0.0000)
  37 C     11.132184    9.687148   19.651439    ( 0.0000,  0.0000,  0.0000)
  38 H     11.536456    8.937195   18.964289    ( 0.0000,  0.0000,  0.0000)
  39 H     11.535697    9.508739   20.653228    ( 0.0000,  0.0000,  0.0000)
  40 H     11.451628   10.672863   19.318510    ( 0.0000,  0.0000,  0.0000)
  41 H      9.390567    8.839093   19.936944    ( 0.0000,  0.0000,  0.0000)
  42 N      9.702000    9.702000   17.195939    ( 0.0000,  0.0000,  0.0000)
  43 N      9.702000    9.702000   18.292561    ( 0.0000,  0.0000,  0.0000)

Unit cell:
           periodic     x           y           z      points  spacing
  1. axis:    yes    9.702222    0.000000    0.000000    60     0.1617
  2. axis:    yes    0.000000    9.702222    0.000000    60     0.1617
  3. axis:    no     0.000000    0.000000   26.601111   168     0.1583

  Lengths:   9.702222   9.702222  26.601111
  Angles:   90.000000  90.000000  90.000000

Effective grid spacing dv^(1/3) = 0.1606

     iter     time        total  log10-change:
                         energy  eigst   dens
iter:   1 11:26:45  -482.353027
iter:   2 11:26:52  -127.303768  +2.42  -0.04
iter:   3 11:26:59   -74.399775  +3.31  -0.20
iter:   4 11:27:06  -179.098091  +3.04  -0.19
Writing to output.gpw (mode='')

iter:   5 11:27:13  -175.749253  +2.70  -0.21
iter:   6 11:27:20  -230.642017  +2.65  -0.59
iter:   7 11:27:27  -269.860619  +2.34  -0.66
iter:   8 11:27:34  -289.317432  +2.03  -0.68
iter:   9 11:27:41  -314.631019  +1.96  -0.63
Writing to output.gpw (mode='')

iter:  10 11:27:49  -289.085196  +1.48  -0.60
iter:  11 11:27:56  -281.617088  +1.61  -0.61
iter:  12 11:28:03  -275.823161  +1.01  -0.71
iter:  13 11:28:10  -281.855213  +1.04  -0.84
iter:  14 11:28:17  -274.995425  +0.90  -0.71
Writing to output.gpw (mode='')

iter:  15 11:28:24  -271.921402  +0.76  -0.90
iter:  16 11:28:31  -272.913455  +1.01  -1.05
iter:  17 11:28:38  -272.624153  +0.41  -1.07
iter:  18 11:28:45  -273.787750  +0.75  -1.11
iter:  19 11:28:52  -274.700204  +0.77  -1.02
Writing to output.gpw (mode='')

iter:  20 11:28:59  -273.772738  +0.34  -0.94
iter:  21 11:29:06  -274.045288  +0.21  -1.00
iter:  22 11:29:13  -275.030123  +0.20  -0.94
iter:  23 11:29:20  -273.213767  -0.21  -1.05
iter:  24 11:29:27  -272.694691  +0.40  -1.14
Writing to output.gpw (mode='')

iter:  25 11:29:34  -274.167070  -0.19  -1.29
iter:  26 11:29:48  -273.316208  -0.52  -1.16
iter:  27 11:29:56  -273.555416  -0.50  -1.26
iter:  28 11:30:03  -276.769803  +0.80  -1.21
iter:  29 11:30:10  -273.171294  +0.26  -1.09
Writing to output.gpw (mode='')

iter:  30 11:30:17  -273.253331  +0.19  -1.32
iter:  31 11:30:24  -273.327287  -0.55  -1.27
iter:  32 11:30:31  -272.913093  -0.65  -1.26
iter:  33 11:30:38  -272.699953  -0.80  -1.38
iter:  34 11:30:45  -272.688241  -1.13  -1.62
Writing to output.gpw (mode='')

iter:  35 11:30:52  -272.697908c -1.32  -1.68
iter:  36 11:30:59  -272.698605c -1.20  -1.65
iter:  37 11:31:06  -272.685554c -1.41  -1.74
iter:  38 11:31:13  -272.676565c -1.44  -1.83
iter:  39 11:31:20  -272.678360c -1.69  -1.94
Writing to output.gpw (mode='')

iter:  40 11:31:27  -272.683970c -1.47  -1.96
iter:  41 11:31:34  -272.679374c -1.98  -2.11
iter:  42 11:31:41  -272.679189c -1.71  -2.20
iter:  43 11:31:48  -272.677776c -2.00  -2.28
iter:  44 11:31:55  -272.678307c -2.15  -2.30
Writing to output.gpw (mode='')

iter:  45 11:32:03  -272.678644c -2.08  -2.45
iter:  46 11:32:10  -272.679577c -2.18  -2.52
iter:  47 11:32:17  -272.680348c -2.38  -2.58
iter:  48 11:32:24  -272.680834c -2.56  -2.76
iter:  49 11:32:31  -272.681102c -2.61  -2.75
Writing to output.gpw (mode='')

iter:  50 11:32:38  -272.681441c -2.66  -2.78
iter:  51 11:32:45  -272.681690c -2.72  -2.80
iter:  52 11:32:52  -272.681916c -2.81  -2.74
iter:  53 11:32:59  -272.682395c -3.01  -2.86
iter:  54 11:33:06  -272.681935c -3.00  -2.84
Writing to output.gpw (mode='')

iter:  55 11:33:13  -272.682068c -3.06  -2.86
iter:  56 11:33:20  -272.682158c -3.27  -2.90
iter:  57 11:33:27  -272.682173c -3.28  -2.90
iter:  58 11:33:34  -272.682256c -3.21  -2.86
iter:  59 11:33:41  -272.682333c -3.37  -2.86
Writing to output.gpw (mode='')

iter:  60 11:33:48  -272.682414c -3.54  -2.83
iter:  61 11:33:55  -272.682402c -3.46  -2.87
iter:  62 11:34:03  -272.682486c -3.51  -2.95
iter:  63 11:34:10  -272.682430c -3.50  -2.97
iter:  64 11:34:17  -272.682579c -3.39  -3.04
Writing to output.gpw (mode='')

iter:  65 11:34:24  -272.682416c -3.70  -3.07
iter:  66 11:34:31  -272.682428c -3.82  -3.25
iter:  67 11:34:43  -272.682493c -3.74  -3.28
iter:  68 11:34:51  -272.682518c -4.12  -3.54
iter:  69 11:34:58  -272.682516c -4.10  -3.56
Writing to output.gpw (mode='')

iter:  70 11:35:05  -272.682526c -4.21  -3.60
iter:  71 11:35:12  -272.682537c -4.02  -3.62
iter:  72 11:35:19  -272.682514c -4.47  -3.63
iter:  73 11:35:26  -272.682510c -3.99  -3.73
iter:  74 11:35:33  -272.682500c -4.46  -3.81
Writing to output.gpw (mode='')

iter:  75 11:35:40  -272.682525c -4.79  -3.84
iter:  76 11:35:47  -272.682518c -4.78  -3.89
iter:  77 11:35:54  -272.682504c -4.38  -3.94
iter:  78 11:36:01  -272.682526c -4.85  -4.03c
iter:  79 11:36:08  -272.682508c -5.02  -4.26c
Writing to output.gpw (mode='')

iter:  80 11:36:15  -272.682522c -5.03  -4.25c
iter:  81 11:36:22  -272.682521c -4.83  -4.41c
iter:  82 11:36:29  -272.682523c -5.18  -4.66c
iter:  83 11:36:36  -272.682524c -5.24  -4.68c
iter:  84 11:36:43  -272.682525c -5.08  -4.73c
Writing to output.gpw (mode='')

iter:  85 11:36:51  -272.682526c -5.16  -4.85c
iter:  86 11:36:58  -272.682525c -5.46  -4.83c
iter:  87 11:37:07  -272.682526c -5.27  -4.82c
iter:  88 11:37:14  -272.682525c -5.52  -4.77c
iter:  89 11:37:21  -272.682525c -5.53  -4.79c
Writing to output.gpw (mode='')

iter:  90 11:37:28  -272.682525c -5.64  -4.76c
iter:  91 11:37:35  -272.682525c -5.41  -4.73c
iter:  92 11:37:42  -272.682526c -5.82  -4.70c
iter:  93 11:37:49  -272.682526c -5.74  -4.71c
iter:  94 11:37:57  -272.682524c -5.51  -4.68c
Writing to output.gpw (mode='')

iter:  95 11:38:04  -272.682524c -5.83  -4.67c
iter:  96 11:38:11  -272.682524c -6.04  -4.66c
iter:  97 11:38:18  -272.682524c -5.87  -4.67c
iter:  98 11:38:25  -272.682525c -6.05  -4.65c
iter:  99 11:38:32  -272.682522c -6.05  -4.57c
Writing to output.gpw (mode='')

iter: 100 11:38:39  -272.682522c -6.09  -4.68c
iter: 101 11:38:46  -272.682523c -6.13  -4.57c
iter: 102 11:38:53  -272.682525c -5.97  -4.73c
iter: 103 11:39:01  -272.682524c -5.96  -4.79c
iter: 104 11:39:08  -272.682524c -6.24  -4.76c
Writing to output.gpw (mode='')

iter: 105 11:39:15  -272.682526c -5.90  -4.81c
iter: 106 11:39:22  -272.682525c -6.35  -4.84c
iter: 107 11:39:29  -272.682526c -6.44  -4.83c
iter: 108 11:39:42  -272.682527c -6.41  -4.81c
iter: 109 11:39:51  -272.682526c -6.16  -4.85c
Writing to output.gpw (mode='')

iter: 110 11:39:58  -272.682527c -6.23  -4.90c
iter: 111 11:40:05  -272.682525c -6.32  -4.90c
iter: 112 11:40:12  -272.682525c -6.45  -4.94c
iter: 113 11:40:19  -272.682526c -6.75  -5.07c
iter: 114 11:40:27  -272.682525c -6.55  -5.12c
Writing to output.gpw (mode='')

iter: 115 11:40:34  -272.682526c -6.41  -5.24c
iter: 116 11:40:41  -272.682526c -6.54  -5.42c
iter: 117 11:40:48  -272.682526c -6.59  -5.44c
iter: 118 11:40:55  -272.682526c -6.94  -5.45c
iter: 119 11:41:02  -272.682526c -6.94  -5.53c
Writing to output.gpw (mode='')

iter: 120 11:41:09  -272.682526c -6.95  -5.56c
iter: 121 11:41:16  -272.682526c -7.13  -5.73c
iter: 122 11:41:23  -272.682525c -6.73  -5.77c
iter: 123 11:41:30  -272.682526c -6.91  -5.85c
iter: 124 11:41:37  -272.682526c -7.14  -5.98c
Writing to output.gpw (mode='')

iter: 125 11:41:44  -272.682526c -7.20  -6.08c
iter: 126 11:41:51  -272.682526c -7.08  -6.06c
iter: 127 11:41:58  -272.682526c -7.08  -6.06c
iter: 128 11:42:05  -272.682526c -7.29  -6.04c
iter: 129 11:42:12  -272.682526c -7.29  -6.03c
Writing to output.gpw (mode='')

iter: 130 11:42:19  -272.682525c -7.39  -6.01c
iter: 131 11:42:26  -272.682525c -7.34  -5.99c
iter: 132 11:42:33  -272.682525c -7.24  -5.95c
iter: 133 11:42:40  -272.682525c -7.45c -5.98c

Converged after 133 iterations.

Dipole moment: (-13.396622, -12.978408, 0.237917) |e|*Ang

Energy contributions relative to reference atoms: (reference = -13382.245603)

Kinetic:       +162.348449
Potential:     -143.535298
External:        +0.000000
XC:            -292.069105
Entropy (-ST):   -0.182131
Local:           +0.664494
--------------------------
Free energy:   -272.773591
Extrapolated:  -272.682525

Dipole-layer corrected work functions: 3.384067, 2.926708 eV

Showing only first 2 kpts
 Kpt  Band  Eigenvalues  Occupancy
  0    28     -3.35949    1.96681
  0    29     -3.22776    1.61921
  0    30     -3.02754    0.14393
  0    31     -2.98189    0.06036

  1    28     -3.23475    1.66047
  1    29     -3.15150    0.96117
  1    30     -3.13746    0.82260
  1    31     -3.05434    0.23403


Fermi level: -3.15539

No gap
Writing to output.gpw (mode='')


Forces in eV/Ang:
  0 Li    0.00919    0.00728   -0.26994
  1 Li   -0.00479    0.00373   -0.27755
  2 Li   -0.00554    0.01570   -0.26608
  3 Li    0.00236   -0.00287   -0.27655
  4 Li    0.00087   -0.00082   -0.28784
  5 Li   -0.00364   -0.00644   -0.27301
  6 Li    0.01428   -0.00489   -0.26917
  7 Li   -0.00827   -0.00291   -0.27341
  8 Li   -0.00688   -0.00973   -0.26500
  9 Li   -0.00171   -0.00175    0.31520
 10 Li    0.01050    0.00127    0.25732
 11 Li   -0.00867    0.00042    0.27914
 12 Li   -0.00004    0.00961    0.25818
 13 Li   -0.00318   -0.00554    0.26230
 14 Li    0.00510    0.00448    0.25006
 15 Li    0.00038   -0.00769    0.27711
 16 Li    0.00321    0.00518    0.25489
 17 Li   -0.00351   -0.00524    0.26070
 18 Li   -0.00779   -0.00547    0.02821
 19 Li    0.00752   -0.00043    0.03035
 20 Li    0.00083    0.00809    0.00550
 21 Li   -0.00141    0.00444    0.02759
 22 Li   -0.00025   -0.00046    0.04556
 23 Li    0.00256   -0.00145    0.03381
 24 Li    0.00720   -0.00056    0.01018
 25 Li    0.00051    0.00124    0.03389
 26 Li   -0.00271   -0.00331   -0.00547
 27 Li    0.00962   -0.02013   -1.42526
 28 Li   -0.02022    0.00105   -0.01348
 29 Li    0.02799    0.00050    0.01876
 30 Li    0.00404   -0.03301    0.00900
 31 Li   -0.00228   -0.00644   -0.01561
 32 Li   -0.00061    0.00238   -0.01947
 33 Li    0.00439    0.03910    0.02545
 34 Li   -0.00011    0.00878   -0.01429
 35 Li   -0.00816   -0.00674   -0.01499
 36 O    -0.85962    0.44806   10.55758
 37 C     4.30356    0.43574    1.62618
 38 H    -0.23179   -0.02939    0.24194
 39 H    -0.59360   -0.03515    0.12527
 40 H    -0.08576   -0.06787    0.04694
 41 H    -1.35308   -2.86506    2.28871
 42 N    -1.54995   -1.31097   -8.17619
 43 N     0.34529    3.42526   -5.40524

System changes: positions 

Initializing position-dependent things.

Density initialized from wave functions
       .-----------------------.  
      /|                       |  
     / |                       |  
    /  |                       |  
   /   |                       |  
  /    |                       |  
 *     |                       |  
 |     |   H                   |  
 |     |                       |  
 |     |   C                  H|  
 |     |   H                   |  
 |     |                       |  
 |     |                       N  
 |     |                       |  
 |    HLi                      |  
 |     |                 O     |  
 N   Li|     Li      Li        |  
 |     |  Li      Li      Li   |  
 | Li  |   Li      Li          |  
 |     |Li      Li      Li     |  
 |     | Li      Li            |  
 |   LLi     LLi     LLi       |  
 |     |  Li      Li      Li   |  
 | Li  |   Li      Li          |  
 |     |Li      Li      Li     |  
 Li    | Li      Li            |  
 |    Li      Li      Li       |  
 |     |                       |  
 |     |                       |  
 |     |                       |  
 |     |                       |  
 |     |                       |  
 |     |                       |  
 |     .-----------------------.  
 |    /                       /   
 |   /                       /    
 |  /                       /     
 | /                       /      
 |/                       /       
 *-----------------------*        

Positions:
   0 Li     1.617037    1.617037   10.000000    ( 0.0000,  0.0000,  0.0000)
   1 Li     4.851111    1.617037   10.000000    ( 0.0000,  0.0000,  0.0000)
   2 Li     8.085185    1.617037   10.000000    ( 0.0000,  0.0000,  0.0000)
   3 Li     1.617037    4.851111   10.000000    ( 0.0000,  0.0000,  0.0000)
   4 Li     4.851111    4.851111   10.000000    ( 0.0000,  0.0000,  0.0000)
   5 Li     8.085185    4.851111   10.000000    ( 0.0000,  0.0000,  0.0000)
   6 Li     1.617037    8.085185   10.000000    ( 0.0000,  0.0000,  0.0000)
   7 Li     4.851111    8.085185   10.000000    ( 0.0000,  0.0000,  0.0000)
   8 Li     8.085185    8.085185   10.000000    ( 0.0000,  0.0000,  0.0000)
   9 Li     0.000000    0.000000   11.617037    ( 0.0000,  0.0000,  0.0000)
  10 Li     3.234074    0.000000   11.617037    ( 0.0000,  0.0000,  0.0000)
  11 Li     6.468148    0.000000   11.617037    ( 0.0000,  0.0000,  0.0000)
  12 Li     0.000000    3.234074   11.617037    ( 0.0000,  0.0000,  0.0000)
  13 Li     3.234074    3.234074   11.617037    ( 0.0000,  0.0000,  0.0000)
  14 Li     6.468148    3.234074   11.617037    ( 0.0000,  0.0000,  0.0000)
  15 Li     0.000000    6.468148   11.617037    ( 0.0000,  0.0000,  0.0000)
  16 Li     3.234074    6.468148   11.617037    ( 0.0000,  0.0000,  0.0000)
  17 Li     6.468148    6.468148   11.617037    ( 0.0000,  0.0000,  0.0000)
  18 Li     1.617009    1.617017   13.469834    ( 0.0000,  0.0000,  0.0000)
  19 Li     4.851139    1.617037   13.469844    ( 0.0000,  0.0000,  0.0000)
  20 Li     8.085187    1.617069   13.469749    ( 0.0000,  0.0000,  0.0000)
  21 Li     1.617033    4.851128   13.469834    ( 0.0000,  0.0000,  0.0000)
  22 Li     4.851110    4.851109   13.469902    ( 0.0000,  0.0000,  0.0000)
  23 Li     8.085193    4.851106   13.469857    ( 0.0000,  0.0000,  0.0000)
  24 Li     1.617065    8.085182   13.469766    ( 0.0000,  0.0000,  0.0000)
  25 Li     4.851113    8.085188   13.469857    ( 0.0000,  0.0000,  0.0000)
  26 Li     8.085174    8.085171   13.469707    ( 0.0000,  0.0000,  0.0000)
  27 Li     0.000036   -0.000076   15.440562    ( 0.0000,  0.0000,  0.0000)
  28 Li     3.233997    0.000004   15.445888    ( 0.0000,  0.0000,  0.0000)
  29 Li     6.468254    0.000002   15.446010    ( 0.0000,  0.0000,  0.0000)
  30 Li     0.000015    3.233949   15.445973    ( 0.0000,  0.0000,  0.0000)
  31 Li     3.234068    3.234052   15.445879    ( 0.0000,  0.0000,  0.0000)
  32 Li     6.468143    3.234085   15.445865    ( 0.0000,  0.0000,  0.0000)
  33 Li     0.000017    6.468296   15.446035    ( 0.0000,  0.0000,  0.0000)
  34 Li     3.234076    6.468179   15.445884    ( 0.0000,  0.0000,  0.0000)
  35 Li     6.468115    6.468120   15.445881    ( 0.0000,  0.0000,  0.0000)
  36 O      9.698979    9.703912   19.685772    ( 0.0000,  0.0000,  0.0000)
  37 C     11.148421    9.688792   19.657574    ( 0.0000,  0.0000,  0.0000)
  38 H     11.535581    8.937084   18.965202    ( 0.0000,  0.0000,  0.0000)
  39 H     11.533457    9.508607   20.653700    ( 0.0000,  0.0000,  0.0000)
  40 H     11.451305   10.672607   19.318687    ( 0.0000,  0.0000,  0.0000)
  41 H      9.385462    8.828284   19.945579    ( 0.0000,  0.0000,  0.0000)
  42 N      9.696152    9.697054   17.165092    ( 0.0000,  0.0000,  0.0000)
  43 N      9.703303    9.714923   18.272168    ( 0.0000,  0.0000,  0.0000)

Unit cell:
           periodic     x           y           z      points  spacing
  1. axis:    yes    9.702222    0.000000    0.000000    60     0.1617
  2. axis:    yes    0.000000    9.702222    0.000000    60     0.1617
  3. axis:    no     0.000000    0.000000   26.601111   168     0.1583

  Lengths:   9.702222   9.702222  26.601111
  Angles:   90.000000  90.000000  90.000000

Effective grid spacing dv^(1/3) = 0.1606

     iter     time        total  log10-change:
                         energy  eigst   dens
iter:   1 11:42:49  -274.742176  -0.08
iter:   2 11:42:56  -274.554642  -0.10  -1.21
iter:   3 11:43:03  -273.985176  -0.35  -1.12
iter:   4 11:43:10  -274.037165  -0.66  -1.57
Writing to output.gpw (mode='')

iter:   5 11:43:17  -273.904607  -0.56  -1.54
iter:   6 11:43:24  -273.794382  -0.67  -1.51
iter:   7 11:43:31  -273.960856  -0.88  -1.74
iter:   8 11:43:38  -273.868799  -1.43  -1.62
iter:   9 11:43:45  -273.775029  -1.08  -1.67
Writing to output.gpw (mode='')

iter:  10 11:43:52  -273.790205  -1.08  -1.87
iter:  11 11:43:59  -273.771662c -1.65  -1.78
iter:  12 11:44:06  -273.774030c -1.75  -2.05
iter:  13 11:44:13  -273.766791c -1.96  -2.10
iter:  14 11:44:21  -273.764479c -2.10  -2.25
Writing to output.gpw (mode='')

iter:  15 11:44:28  -273.764226c -1.97  -2.31
iter:  16 11:44:35  -273.763964c -2.43  -2.45
iter:  17 11:44:49  -273.762522c -2.80  -2.47
iter:  18 11:44:56  -273.763000c -2.75  -2.59
iter:  19 11:45:03  -273.762559c -2.72  -2.65
Writing to output.gpw (mode='')

iter:  20 11:45:10  -273.762061c -3.60  -2.86
iter:  21 11:45:17  -273.762201c -3.74  -3.01
iter:  22 11:45:24  -273.762201c -4.12  -3.11
iter:  23 11:45:32  -273.762070c -3.64  -3.15
iter:  24 11:45:39  -273.762186c -3.84  -3.26
Writing to output.gpw (mode='')

iter:  25 11:45:46  -273.762165c -4.45  -3.48
iter:  26 11:45:53  -273.762171c -4.19  -3.60
iter:  27 11:46:00  -273.762161c -4.44  -3.59
iter:  28 11:46:07  -273.762191c -4.40  -3.69
iter:  29 11:46:14  -273.762189c -4.75  -3.84
Writing to output.gpw (mode='')

iter:  30 11:46:21  -273.762183c -4.84  -3.84
iter:  31 11:46:28  -273.762188c -4.82  -3.92
iter:  32 11:46:35  -273.762196c -4.90  -4.13c
iter:  33 11:46:42  -273.762195c -4.95  -4.21c
iter:  34 11:46:49  -273.762212c -5.00  -4.26c
Writing to output.gpw (mode='')

iter:  35 11:46:56  -273.762212c -5.33  -4.40c
iter:  36 11:47:04  -273.762213c -5.11  -4.45c
iter:  37 11:47:11  -273.762213c -5.23  -4.45c
iter:  38 11:47:20  -273.762214c -5.56  -4.56c
iter:  39 11:47:27  -273.762216c -5.54  -4.57c
Writing to output.gpw (mode='')

iter:  40 11:47:39  -273.762216c -5.51  -4.59c
iter:  41 11:47:48  -273.762216c -5.66  -4.60c
iter:  42 11:47:55  -273.762220c -5.91  -4.58c
iter:  43 11:48:02  -273.762219c -5.84  -4.67c
iter:  44 11:48:09  -273.762220c -5.73  -4.68c
Writing to output.gpw (mode='')

iter:  45 11:48:16  -273.762219c -5.88  -4.69c
iter:  46 11:48:23  -273.762217c -6.04  -4.61c
iter:  47 11:48:30  -273.762218c -5.75  -4.56c
iter:  48 11:48:37  -273.762219c -6.31  -4.48c
iter:  49 11:48:45  -273.762222c -6.12  -4.49c
Writing to output.gpw (mode='')

iter:  50 11:48:52  -273.762223c -6.23  -4.51c
iter:  51 11:48:59  -273.762222c -6.41  -4.39c
iter:  52 11:49:06  -273.762221c -6.27  -4.40c
iter:  53 11:49:13  -273.762224c -6.63  -4.87c
iter:  54 11:49:20  -273.762223c -6.76  -4.96c
Writing to output.gpw (mode='')

iter:  55 11:49:27  -273.762223c -6.61  -4.97c
iter:  56 11:49:34  -273.762224c -6.60  -5.04c
iter:  57 11:49:47  -273.762224c -6.81  -5.11c
iter:  58 11:49:54  -273.762224c -6.72  -5.10c
iter:  59 11:50:01  -273.762224c -6.77  -5.10c
Writing to output.gpw (mode='')

iter:  60 11:50:08  -273.762224c -6.88  -5.07c
iter:  61 11:50:15  -273.762225c -6.78  -5.07c
iter:  62 11:50:22  -273.762225c -6.82  -5.01c
iter:  63 11:50:29  -273.762225c -7.20  -5.00c
iter:  64 11:50:36  -273.762223c -6.84  -5.01c
Writing to output.gpw (mode='')

iter:  65 11:50:43  -273.762224c -7.10  -5.02c
iter:  66 11:50:51  -273.762223c -7.12  -5.02c
iter:  67 11:50:58  -273.762223c -7.14  -4.95c
iter:  68 11:51:05  -273.762224c -7.34  -5.02c
iter:  69 11:51:12  -273.762224c -7.23  -5.16c
Writing to output.gpw (mode='')

iter:  70 11:51:19  -273.762225c -7.19  -5.26c
iter:  71 11:51:26  -273.762226c -7.59c -5.30c

Converged after 71 iterations.

Dipole moment: (-12.544559, -13.811591, 0.203156) |e|*Ang

Energy contributions relative to reference atoms: (reference = -13382.245603)

Kinetic:       +164.316352
Potential:     -146.262299
External:        +0.000000
XC:            -292.387512
Entropy (-ST):   -0.163409
Local:           +0.652937
--------------------------
Free energy:   -273.843930
Extrapolated:  -273.762226

Dipole-layer corrected work functions: 3.391659, 3.001124 eV

Showing only first 2 kpts
 Kpt  Band  Eigenvalues  Occupancy
  0    28     -3.39671    1.96425
  0    29     -3.31673    1.83470
  0    30     -3.04199    0.08721
  0    31     -2.99575    0.03553

  1    28     -3.26407    1.58941
  1    29     -3.18866    0.92283
  1    30     -3.17548    0.79385
  1    31     -3.09124    0.21761


Fermi level: -3.19639

No gap
Writing to output.gpw (mode='')


Forces in eV/Ang:
  0 Li    0.00945    0.00760   -0.27049
  1 Li   -0.00504    0.00236   -0.27499
  2 Li   -0.00552    0.01490   -0.26706
  3 Li    0.00087   -0.00291   -0.27419
  4 Li    0.00088   -0.00052   -0.28995
  5 Li   -0.00224   -0.00502   -0.27046
  6 Li    0.01340   -0.00519   -0.26993
  7 Li   -0.00706   -0.00174   -0.27131
  8 Li   -0.00714   -0.01035   -0.26664
  9 Li   -0.00217   -0.00242    0.31644
 10 Li    0.01307    0.00110    0.25400
 11 Li   -0.01097    0.00057    0.27528
 12 Li   -0.00011    0.01242    0.25555
 13 Li   -0.00166   -0.00358    0.25973
 14 Li    0.00347    0.00683    0.25113
 15 Li    0.00034   -0.00970    0.27202
 16 Li    0.00513    0.00325    0.25537
 17 Li   -0.00520   -0.00751    0.25819
 18 Li   -0.00597   -0.00372    0.02447
 19 Li    0.00685   -0.00027    0.03628
 20 Li    0.00041    0.00933    0.00023
 21 Li   -0.00149    0.00376    0.03437
 22 Li   -0.00042   -0.00073    0.03943
 23 Li    0.00279   -0.00012    0.04052
 24 Li    0.00802   -0.00052    0.00718
 25 Li    0.00188    0.00120    0.03930
 26 Li   -0.00587   -0.00647   -0.01013
 27 Li    0.00834   -0.02436   -1.89416
 28 Li   -0.00124    0.00133   -0.02498
 29 Li    0.01084   -0.00011    0.00574
 30 Li    0.00491   -0.01235   -0.00280
 31 Li   -0.00186   -0.00512   -0.01971
 32 Li   -0.00303    0.00648   -0.02325
 33 Li    0.00433    0.01989    0.00743
 34 Li    0.00254    0.00574   -0.01902
 35 Li   -0.00994   -0.00958   -0.02231
 36 O    -0.70679   -0.68240   14.36191
 37 C     2.59831    0.20126    1.35124
 38 H    -0.15350   -0.04166    0.21441
 39 H    -0.27549   -0.04170    0.34913
 40 H     0.01032    0.05263    0.03103
 41 H    -0.77964   -1.80801    1.84333
 42 N    -1.77906   -1.59680   -4.33918
 43 N     1.04365    3.93283  -11.92270

System changes: positions 

Initializing position-dependent things.

Density initialized from wave functions
       .-----------------------.  
      /|                       |  
     / |                       |  
    /  |                       |  
   /   |                       |  
  /    |                       |  
 *     |                       |  
 |     |   H                   |  
 |     |                       |  
 |     |   C                  H|  
 |     |   H                   |  
 |     |                       |  
 |     |                       N  
 |     |                       |  
 |    HLi                      |  
 |     |                 O     |  
 N   Li|     Li      Li        |  
 |     |  Li      Li      Li   |  
 | Li  |   Li      Li          |  
 |     |Li      Li      Li     |  
 |     | Li      Li            |  
 |   LLi     LLi     LLi       |  
 |     |  Li      Li      Li   |  
 | Li  |   Li      Li          |  
 |     |Li      Li      Li     |  
 Li    | Li      Li            |  
 |    Li      Li      Li       |  
 |     |                       |  
 |     |                       |  
 |     |                       |  
 |     |                       |  
 |     |                       |  
 |     |                       |  
 |     .-----------------------.  
 |    /                       /   
 |   /                       /    
 |  /                       /     
 | /                       /      
 |/                       /       
 *-----------------------*        

Positions:
   0 Li     1.617037    1.617037   10.000000    ( 0.0000,  0.0000,  0.0000)
   1 Li     4.851111    1.617037   10.000000    ( 0.0000,  0.0000,  0.0000)
   2 Li     8.085185    1.617037   10.000000    ( 0.0000,  0.0000,  0.0000)
   3 Li     1.617037    4.851111   10.000000    ( 0.0000,  0.0000,  0.0000)
   4 Li     4.851111    4.851111   10.000000    ( 0.0000,  0.0000,  0.0000)
   5 Li     8.085185    4.851111   10.000000    ( 0.0000,  0.0000,  0.0000)
   6 Li     1.617037    8.085185   10.000000    ( 0.0000,  0.0000,  0.0000)
   7 Li     4.851111    8.085185   10.000000    ( 0.0000,  0.0000,  0.0000)
   8 Li     8.085185    8.085185   10.000000    ( 0.0000,  0.0000,  0.0000)
   9 Li     0.000000    0.000000   11.617037    ( 0.0000,  0.0000,  0.0000)
  10 Li     3.234074    0.000000   11.617037    ( 0.0000,  0.0000,  0.0000)
  11 Li     6.468148    0.000000   11.617037    ( 0.0000,  0.0000,  0.0000)
  12 Li     0.000000    3.234074   11.617037    ( 0.0000,  0.0000,  0.0000)
  13 Li     3.234074    3.234074   11.617037    ( 0.0000,  0.0000,  0.0000)
  14 Li     6.468148    3.234074   11.617037    ( 0.0000,  0.0000,  0.0000)
  15 Li     0.000000    6.468148   11.617037    ( 0.0000,  0.0000,  0.0000)
  16 Li     3.234074    6.468148   11.617037    ( 0.0000,  0.0000,  0.0000)
  17 Li     6.468148    6.468148   11.617037    ( 0.0000,  0.0000,  0.0000)
  18 Li     1.616975    1.616993   13.469952    ( 0.0000,  0.0000,  0.0000)
  19 Li     4.851170    1.617035   13.469953    ( 0.0000,  0.0000,  0.0000)
  20 Li     8.085191    1.617098   13.469780    ( 0.0000,  0.0000,  0.0000)
  21 Li     1.617028    4.851147   13.469930    ( 0.0000,  0.0000,  0.0000)
  22 Li     4.851109    4.851108   13.470093    ( 0.0000,  0.0000,  0.0000)
  23 Li     8.085203    4.851097   13.469978    ( 0.0000,  0.0000,  0.0000)
  24 Li     1.617092    8.085179   13.469812    ( 0.0000,  0.0000,  0.0000)
  25 Li     4.851112    8.085193   13.469981    ( 0.0000,  0.0000,  0.0000)
  26 Li     8.085169    8.085164   13.469694    ( 0.0000,  0.0000,  0.0000)
  27 Li     0.000077   -0.000148   15.435807    ( 0.0000,  0.0000,  0.0000)
  28 Li     3.233883    0.000008   15.445856    ( 0.0000,  0.0000,  0.0000)
  29 Li     6.468396    0.000005   15.446108    ( 0.0000,  0.0000,  0.0000)
  30 Li     0.000030    3.233781   15.446030    ( 0.0000,  0.0000,  0.0000)
  31 Li     3.234058    3.234024   15.445825    ( 0.0000,  0.0000,  0.0000)
  32 Li     6.468145    3.234087   15.445795    ( 0.0000,  0.0000,  0.0000)
  33 Li     0.000034    6.468485   15.446168    ( 0.0000,  0.0000,  0.0000)
  34 Li     3.234071    6.468219   15.445837    ( 0.0000,  0.0000,  0.0000)
  35 Li     6.468086    6.468099   15.445836    ( 0.0000,  0.0000,  0.0000)
  36 O      9.695307    9.707765   19.720385    ( 0.0000,  0.0000,  0.0000)
  37 C     11.168538    9.690943   19.664494    ( 0.0000,  0.0000,  0.0000)
  38 H     11.534523    8.936991   18.966207    ( 0.0000,  0.0000,  0.0000)
  39 H     11.530529    9.508480   20.653781    ( 0.0000,  0.0000,  0.0000)
  40 H     11.450789   10.672117   19.318902    ( 0.0000,  0.0000,  0.0000)
  41 H      9.379068    8.815036   19.955426    ( 0.0000,  0.0000,  0.0000)
  42 N      9.690463    9.692412   17.125771    ( 0.0000,  0.0000,  0.0000)
  43 N      9.703376    9.727493   18.262878    ( 0.0000,  0.0000,  0.0000)

Unit cell:
           periodic     x           y           z      points  spacing
  1. axis:    yes    9.702222    0.000000    0.000000    60     0.1617
  2. axis:    yes    0.000000    9.702222    0.000000    60     0.1617
  3. axis:    no     0.000000    0.000000   26.601111   168     0.1583

  Lengths:   9.702222   9.702222  26.601111
  Angles:   90.000000  90.000000  90.000000

Effective grid spacing dv^(1/3) = 0.1606

     iter     time        total  log10-change:
                         energy  eigst   dens
iter:   1 11:51:34  -275.976892  -0.04
iter:   2 11:51:41  -275.864507  +0.15  -1.11
iter:   3 11:51:48  -274.788799  -0.39  -0.97
iter:   4 11:51:55  -274.739265  -0.75  -1.63
Writing to output.gpw (mode='')

iter:   5 11:52:02  -274.649226  -0.94  -1.69
iter:   6 11:52:09  -274.652216  -1.09  -1.95
iter:   7 11:52:17  -274.645465c -1.24  -1.95
iter:   8 11:52:24  -274.646202c -1.21  -2.17
iter:   9 11:52:31  -274.649680c -1.26  -2.14
Writing to output.gpw (mode='')

iter:  10 11:52:38  -274.642476c -1.96  -2.04
iter:  11 11:52:45  -274.642188c -2.20  -2.36
iter:  12 11:52:52  -274.642797c -2.10  -2.51
iter:  13 11:53:02  -274.643028c -2.52  -2.53
iter:  14 11:53:09  -274.642846c -2.61  -2.67
Writing to output.gpw (mode='')

iter:  15 11:53:16  -274.643169c -2.69  -2.83
iter:  16 11:53:23  -274.643330c -2.94  -2.88
iter:  17 11:53:30  -274.643363c -2.97  -2.88
iter:  18 11:53:37  -274.643407c -3.27  -2.98
iter:  19 11:53:44  -274.643749c -3.29  -3.01
Writing to output.gpw (mode='')

iter:  20 11:53:51  -274.643638c -3.44  -3.06
iter:  21 11:53:58  -274.643701c -3.79  -3.23
iter:  22 11:54:05  -274.643677c -3.83  -3.27
iter:  23 11:54:12  -274.643693c -3.95  -3.32
iter:  24 11:54:19  -274.643762c -4.14  -3.36
Writing to output.gpw (mode='')

iter:  25 11:54:27  -274.643747c -4.27  -3.63
iter:  26 11:54:34  -274.643717c -4.34  -3.65
iter:  27 11:54:46  -274.643788c -4.50  -3.64
iter:  28 11:54:53  -274.643756c -4.51  -3.63
iter:  29 11:55:00  -274.643738c -4.40  -3.80
Writing to output.gpw (mode='')

iter:  30 11:55:07  -274.643741c -4.44  -3.99
iter:  31 11:55:14  -274.643755c -4.90  -4.19c
iter:  32 11:55:21  -274.643756c -4.96  -4.24c
iter:  33 11:55:28  -274.643757c -4.88  -4.27c
iter:  34 11:55:35  -274.643763c -5.13  -4.35c
Writing to output.gpw (mode='')

iter:  35 11:55:42  -274.643757c -5.20  -4.32c
iter:  36 11:55:50  -274.643759c -5.47  -4.46c
iter:  37 11:55:57  -274.643760c -5.26  -4.48c
iter:  38 11:56:04  -274.643762c -5.34  -4.50c
iter:  39 11:56:11  -274.643762c -5.51  -4.56c
Writing to output.gpw (mode='')

iter:  40 11:56:18  -274.643763c -5.61  -4.60c
iter:  41 11:56:25  -274.643763c -5.64  -4.63c
iter:  42 11:56:32  -274.643766c -5.63  -4.66c
iter:  43 11:56:39  -274.643763c -5.61  -4.69c
iter:  44 11:56:46  -274.643767c -5.83  -4.72c
Writing to output.gpw (mode='')

iter:  45 11:56:53  -274.643766c -5.97  -4.81c
iter:  46 11:57:00  -274.643766c -5.94  -4.90c
iter:  47 11:57:07  -274.643766c -6.10  -4.98c
iter:  48 11:57:14  -274.643766c -6.09  -4.99c
iter:  49 11:57:21  -274.643767c -6.20  -4.98c
Writing to output.gpw (mode='')

iter:  50 11:57:28  -274.643767c -6.13  -4.91c
iter:  51 11:57:35  -274.643767c -6.49  -4.89c
iter:  52 11:57:42  -274.643767c -6.43  -4.85c
iter:  53 11:57:49  -274.643767c -6.58  -4.91c
iter:  54 11:57:56  -274.643767c -6.50  -4.93c
Writing to output.gpw (mode='')

iter:  55 11:58:03  -274.643767c -6.72  -5.02c
iter:  56 11:58:10  -274.643766c -6.62  -4.98c
iter:  57 11:58:17  -274.643766c -6.63  -5.01c
iter:  58 11:58:25  -274.643767c -6.61  -5.11c
iter:  59 11:58:32  -274.643767c -6.78  -5.18c
Writing to output.gpw (mode='')

iter:  60 11:58:39  -274.643767c -6.79  -5.17c
iter:  61 11:58:46  -274.643768c -7.09  -5.26c
iter:  62 11:58:53  -274.643768c -7.17  -5.25c
iter:  63 11:59:00  -274.643768c -7.09  -5.25c
iter:  64 11:59:07  -274.643768c -7.00  -5.26c
Writing to output.gpw (mode='')

iter:  65 11:59:14  -274.643767c -7.22  -5.36c
iter:  66 11:59:21  -274.643768c -7.40c -5.29c

Converged after 66 iterations.

Dipole moment: (-11.612772, -14.885847, 0.175229) |e|*Ang

Energy contributions relative to reference atoms: (reference = -13382.245603)

Kinetic:       +160.743924
Potential:     -144.007927
External:        +0.000000
XC:            -291.956293
Entropy (-ST):   -0.154449
Local:           +0.653754
--------------------------
Free energy:   -274.720992
Extrapolated:  -274.643768

Dipole-layer corrected work functions: 3.394307, 3.057457 eV

Showing only first 2 kpts
 Kpt  Band  Eigenvalues  Occupancy
  0    28     -3.43473    1.96977
  0    29     -3.37696    1.90708
  0    30     -3.06026    0.07029
  0    31     -3.01830    0.03099

  1    28     -3.28013    1.49484
  1    29     -3.21753    0.91666
  1    30     -3.20315    0.77654
  1    31     -3.11801    0.20726


Fermi level: -3.22588

No gap
Writing to output.gpw (mode='')


Forces in eV/Ang:
  0 Li    0.00920    0.00757   -0.27097
  1 Li   -0.00435    0.00133   -0.27371
  2 Li   -0.00574    0.01436   -0.26828
  3 Li   -0.00018   -0.00247   -0.27291
  4 Li    0.00095   -0.00038   -0.29008
  5 Li   -0.00121   -0.00475   -0.26946
  6 Li    0.01284   -0.00547   -0.27090
  7 Li   -0.00655   -0.00074   -0.27028
  8 Li   -0.00721   -0.01029   -0.26794
  9 Li   -0.00240   -0.00302    0.31737
 10 Li    0.01377    0.00119    0.25342
 11 Li   -0.01138    0.00079    0.27341
 12 Li    0.00006    0.01331    0.25472
 13 Li   -0.00148   -0.00285    0.25934
 14 Li    0.00279    0.00777    0.25209
 15 Li    0.00053   -0.00979    0.27028
 16 Li    0.00620    0.00214    0.25607
 17 Li   -0.00616   -0.00833    0.25750
 18 Li   -0.00433   -0.00190    0.01714
 19 Li    0.00623   -0.00045    0.04048
 20 Li   -0.00065    0.01087   -0.00602
 21 Li   -0.00189    0.00336    0.03907
 22 Li   -0.00078   -0.00118    0.03565
 23 Li    0.00342    0.00121    0.04524
 24 Li    0.00995   -0.00171    0.00108
 25 Li    0.00307    0.00169    0.04360
 26 Li   -0.00897   -0.00904   -0.01855
 27 Li    0.01380   -0.02603   -2.38122
 28 Li    0.00484    0.00060   -0.02658
 29 Li    0.00559    0.00073    0.00232
 30 Li    0.00422   -0.00609   -0.00431
 31 Li    0.00123   -0.00136   -0.02326
 32 Li   -0.00561    0.00978   -0.02581
 33 Li    0.00522    0.01447    0.00165
 34 Li    0.00564    0.00237   -0.02244
 35 Li   -0.01423   -0.01416   -0.02771
 36 O    -0.49054   -1.61093   14.79582
 37 C     1.16659    0.01784    0.92974
 38 H    -0.07513   -0.05967    0.19704
 39 H     0.06223   -0.08906    0.72971
 40 H     0.11464    0.21477    0.00484
 41 H    -0.33467   -0.93023    1.51237
 42 N    -1.76987   -1.70414    0.27917
 43 N     1.25559    4.20732  -16.01188

System changes: positions 

Initializing position-dependent things.

Density initialized from wave functions
       .-----------------------.  
      /|                       |  
     / |                       |  
    /  |                       |  
   /   |                       |  
  /    |                       |  
 *     |                       |  
 |     |   H                   |  
 |     |                       |  
 |     |   C                  H|  
 |     |   H                   |  
 |     |                       |  
 |     |                       N  
 |     |                       |  
 |    HLi      Li        O     |  
 |     |                       |  
 |   Li|     Li      Li  N     |  
 |     |  Li      Li      Li   |  
 | Li  |   Li      Li          |  
 |     |Li      Li      Li     |  
 |     |         Li            |  
 |   LLi     LLi     LLi       |  
 |     |  Li      Li      Li   |  
 | Li  |   Li      Li          |  
 |     |Li      Li      Li     |  
 Li    | Li      Li            |  
 |    Li      Li      Li       |  
 |     |                       |  
 |     |                       |  
 |     |                       |  
 |     |                       |  
 |     |                       |  
 |     |                       |  
 |     .-----------------------.  
 |    /                       /   
 |   /                       /    
 |  /                       /     
 | /                       /      
 |/                       /       
 *-----------------------*        

Positions:
   0 Li     1.617037    1.617037   10.000000    ( 0.0000,  0.0000,  0.0000)
   1 Li     4.851111    1.617037   10.000000    ( 0.0000,  0.0000,  0.0000)
   2 Li     8.085185    1.617037   10.000000    ( 0.0000,  0.0000,  0.0000)
   3 Li     1.617037    4.851111   10.000000    ( 0.0000,  0.0000,  0.0000)
   4 Li     4.851111    4.851111   10.000000    ( 0.0000,  0.0000,  0.0000)
   5 Li     8.085185    4.851111   10.000000    ( 0.0000,  0.0000,  0.0000)
   6 Li     1.617037    8.085185   10.000000    ( 0.0000,  0.0000,  0.0000)
   7 Li     4.851111    8.085185   10.000000    ( 0.0000,  0.0000,  0.0000)
   8 Li     8.085185    8.085185   10.000000    ( 0.0000,  0.0000,  0.0000)
   9 Li     0.000000    0.000000   11.617037    ( 0.0000,  0.0000,  0.0000)
  10 Li     3.234074    0.000000   11.617037    ( 0.0000,  0.0000,  0.0000)
  11 Li     6.468148    0.000000   11.617037    ( 0.0000,  0.0000,  0.0000)
  12 Li     0.000000    3.234074   11.617037    ( 0.0000,  0.0000,  0.0000)
  13 Li     3.234074    3.234074   11.617037    ( 0.0000,  0.0000,  0.0000)
  14 Li     6.468148    3.234074   11.617037    ( 0.0000,  0.0000,  0.0000)
  15 Li     0.000000    6.468148   11.617037    ( 0.0000,  0.0000,  0.0000)
  16 Li     3.234074    6.468148   11.617037    ( 0.0000,  0.0000,  0.0000)
  17 Li     6.468148    6.468148   11.617037    ( 0.0000,  0.0000,  0.0000)
  18 Li     1.616906    1.616953   13.470098    ( 0.0000,  0.0000,  0.0000)
  19 Li     4.851240    1.617022   13.470237    ( 0.0000,  0.0000,  0.0000)
  20 Li     8.085178    1.617193   13.469770    ( 0.0000,  0.0000,  0.0000)
  21 Li     1.617004    4.851193   13.470183    ( 0.0000,  0.0000,  0.0000)
  22 Li     4.851100    4.851096   13.470562    ( 0.0000,  0.0000,  0.0000)
  23 Li     8.085241    4.851092   13.470293    ( 0.0000,  0.0000,  0.0000)
  24 Li     1.617199    8.085139   13.469801    ( 0.0000,  0.0000,  0.0000)
  25 Li     4.851121    8.085220   13.470314    ( 0.0000,  0.0000,  0.0000)
  26 Li     8.085123    8.085128   13.469501    ( 0.0000,  0.0000,  0.0000)
  27 Li     0.000356   -0.000297   15.418315    ( 0.0000,  0.0000,  0.0000)
  28 Li     3.233440   -0.000009   15.445934    ( 0.0000,  0.0000,  0.0000)
  29 Li     6.468897    0.000048   15.446480    ( 0.0000,  0.0000,  0.0000)
  30 Li     0.000030    3.233183   15.446336    ( 0.0000,  0.0000,  0.0000)
  31 Li     3.234116    3.234041   15.445662    ( 0.0000,  0.0000,  0.0000)
  32 Li     6.468119    3.234115   15.445616    ( 0.0000,  0.0000,  0.0000)
  33 Li     0.000104    6.469135   15.446649    ( 0.0000,  0.0000,  0.0000)
  34 Li     3.234100    6.468275   15.445704    ( 0.0000,  0.0000,  0.0000)
  35 Li     6.467923    6.467964   15.445697    ( 0.0000,  0.0000,  0.0000)
  36 O      9.689818    9.710391   19.750911    ( 0.0000,  0.0000,  0.0000)
  37 C     11.206810    9.695081   19.674205    ( 0.0000,  0.0000,  0.0000)
  38 H     11.532799    8.936458   18.968664    ( 0.0000,  0.0000,  0.0000)
  39 H     11.527461    9.506916   20.661021    ( 0.0000,  0.0000,  0.0000)
  40 H     11.450837   10.673467   19.318954    ( 0.0000,  0.0000,  0.0000)
  41 H      9.366058    8.789116   19.977968    ( 0.0000,  0.0000,  0.0000)
  42 N      9.680773    9.682933   17.094637    ( 0.0000,  0.0000,  0.0000)
  43 N      9.697343    9.757396   18.237005    ( 0.0000,  0.0000,  0.0000)

Unit cell:
           periodic     x           y           z      points  spacing
  1. axis:    yes    9.702222    0.000000    0.000000    60     0.1617
  2. axis:    yes    0.000000    9.702222    0.000000    60     0.1617
  3. axis:    no     0.000000    0.000000   26.601111   168     0.1583

  Lengths:   9.702222   9.702222  26.601111
  Angles:   90.000000  90.000000  90.000000

Effective grid spacing dv^(1/3) = 0.1606

     iter     time        total  log10-change:
                         energy  eigst   dens
iter:   1 11:59:29  -275.883941  -0.40
iter:   2 11:59:42  -275.846301  -0.89  -1.76
iter:   3 11:59:51  -275.807770  -1.19  -1.66
iter:   4 11:59:58  -275.760144  -1.20  -1.90
Writing to output.gpw (mode='')

iter:   5 12:00:05  -275.765876  -1.90  -2.00
iter:   6 12:00:12  -275.756392c -1.80  -2.08
iter:   7 12:00:19  -275.744619c -1.36  -2.15
iter:   8 12:00:26  -275.744525c -2.08  -2.36
iter:   9 12:00:33  -275.743706c -1.98  -2.37
Writing to output.gpw (mode='')

iter:  10 12:00:40  -275.744008c -2.26  -2.58
iter:  11 12:00:48  -275.743868c -2.46  -2.63
iter:  12 12:00:55  -275.743785c -2.96  -2.78
iter:  13 12:01:02  -275.743807c -3.37  -2.85
iter:  14 12:01:09  -275.743954c -3.06  -2.90
Writing to output.gpw (mode='')

iter:  15 12:01:16  -275.743938c -3.49  -2.97
iter:  16 12:01:23  -275.743916c -3.43  -3.13
iter:  17 12:01:30  -275.743924c -3.82  -3.19
iter:  18 12:01:37  -275.743931c -3.84  -3.39
iter:  19 12:01:44  -275.743926c -4.17  -3.50
Writing to output.gpw (mode='')

iter:  20 12:01:51  -275.743929c -4.20  -3.58
iter:  21 12:01:59  -275.743932c -4.52  -3.64
iter:  22 12:02:06  -275.743943c -4.51  -3.72
iter:  23 12:02:13  -275.743944c -4.51  -3.82
iter:  24 12:02:20  -275.743948c -4.87  -3.82
Writing to output.gpw (mode='')

iter:  25 12:02:27  -275.743949c -4.96  -3.84
iter:  26 12:02:34  -275.743948c -5.01  -3.83
iter:  27 12:02:41  -275.743951c -4.94  -3.87
iter:  28 12:02:48  -275.743952c -5.21  -4.09c
iter:  29 12:02:55  -275.743953c -5.41  -4.16c
Writing to output.gpw (mode='')

iter:  30 12:03:02  -275.743951c -5.44  -4.21c
iter:  31 12:03:09  -275.743952c -5.66  -4.29c
iter:  32 12:03:17  -275.743954c -5.47  -4.34c
iter:  33 12:03:24  -275.743953c -5.60  -4.39c
iter:  34 12:03:31  -275.743953c -5.61  -4.48c
Writing to output.gpw (mode='')

iter:  35 12:03:38  -275.743954c -6.01  -4.53c
iter:  36 12:03:45  -275.743953c -6.07  -4.63c
iter:  37 12:03:52  -275.743954c -6.04  -4.70c
iter:  38 12:03:59  -275.743954c -6.33  -4.96c
iter:  39 12:04:06  -275.743954c -6.29  -5.00c
Writing to output.gpw (mode='')

iter:  40 12:04:13  -275.743954c -6.33  -5.13c
iter:  41 12:04:20  -275.743954c -6.35  -5.18c
iter:  42 12:04:28  -275.743954c -6.58  -5.21c
iter:  43 12:04:35  -275.743954c -6.60  -5.27c
iter:  44 12:04:48  -275.743954c -6.48  -5.40c
Writing to output.gpw (mode='')

iter:  45 12:04:55  -275.743954c -6.76  -5.43c
iter:  46 12:05:02  -275.743954c -6.85  -5.41c
iter:  47 12:05:09  -275.743954c -6.95  -5.32c
iter:  48 12:05:16  -275.743954c -6.92  -5.38c
iter:  49 12:05:23  -275.743954c -6.98  -5.45c
Writing to output.gpw (mode='')

iter:  50 12:05:30  -275.743955c -7.09  -5.71c
iter:  51 12:05:37  -275.743955c -7.08  -5.80c
iter:  52 12:05:44  -275.743955c -7.04  -5.87c
iter:  53 12:05:51  -275.743955c -7.10  -5.89c
iter:  54 12:05:59  -275.743955c -7.30  -5.90c
Writing to output.gpw (mode='')

iter:  55 12:06:06  -275.743955c -7.37  -5.89c
iter:  56 12:06:13  -275.743955c -7.52c -5.86c

Converged after 56 iterations.

Dipole moment: (-9.567620, -16.686538, 0.179020) |e|*Ang

Energy contributions relative to reference atoms: (reference = -13382.245603)

Kinetic:       +157.882772
Potential:     -142.590776
External:        +0.000000
XC:            -291.615877
Entropy (-ST):   -0.145875
Local:           +0.652864
--------------------------
Free energy:   -275.816892
Extrapolated:  -275.743955

Dipole-layer corrected work functions: 3.394000, 3.049863 eV

Showing only first 2 kpts
 Kpt  Band  Eigenvalues  Occupancy
  0    28     -3.46277    1.98394
  0    29     -3.39272    1.93638
  0    30     -3.05019    0.06245
  0    31     -2.99391    0.02070

  1    28     -3.26289    1.38816
  1    29     -3.21395    0.92033
  1    30     -3.19719    0.75750
  1    31     -3.11678    0.21762


Fermi level: -3.22193

No gap
Writing to output.gpw (mode='')


Forces in eV/Ang:
  0 Li    0.00827    0.00678   -0.27068
  1 Li   -0.00235   -0.00018   -0.27182
  2 Li   -0.00633    0.01249   -0.26928
  3 Li   -0.00128   -0.00157   -0.27075
  4 Li    0.00139   -0.00003   -0.28898
  5 Li   -0.00030   -0.00423   -0.26865
  6 Li    0.01162   -0.00541   -0.27155
  7 Li   -0.00492    0.00073   -0.26886
  8 Li   -0.00764   -0.00926   -0.26917
  9 Li   -0.00198   -0.00400    0.31777
 10 Li    0.01476    0.00153    0.25351
 11 Li   -0.01257    0.00134    0.26810
 12 Li    0.00032    0.01368    0.25427
 13 Li   -0.00271   -0.00107    0.25990
 14 Li    0.00288    0.00853    0.25392
 15 Li    0.00085   -0.00859    0.26874
 16 Li    0.00700   -0.00059    0.25765
 17 Li   -0.00694   -0.00908    0.25596
 18 Li   -0.00046    0.00178    0.00817
 19 Li    0.00475    0.00083    0.04367
 20 Li   -0.00367    0.01142   -0.00961
 21 Li   -0.00233    0.00311    0.04423
 22 Li   -0.00152   -0.00219    0.02986
 23 Li    0.00415    0.00400    0.05046
 24 Li    0.01483   -0.00481   -0.00727
 25 Li    0.00474    0.00103    0.04737
 26 Li   -0.01616   -0.01209   -0.02908
 27 Li    0.02413   -0.03463   -2.59852
 28 Li    0.01722   -0.00059   -0.03401
 29 Li   -0.01079    0.00282   -0.01101
 30 Li    0.00269    0.00995   -0.01301
 31 Li    0.00483    0.00245   -0.02670
 32 Li   -0.00746    0.01049   -0.02777
 33 Li    0.00693   -0.00127   -0.01172
 34 Li    0.00864   -0.00081   -0.02568
 35 Li   -0.01906   -0.01774   -0.03396
 36 O    -0.07271   -3.33013   14.02694
 37 C    -0.67319   -0.25212    0.49520
 38 H     0.10539   -0.12347    0.12818
 39 H     0.45838   -0.13015    1.11341
 40 H     0.28414    0.46978   -0.04193
 41 H     0.28211    0.35265    1.14680
 42 N    -1.43659   -2.16067    2.18074
 43 N     0.93948    5.20369  -16.39660

System changes: positions 

Initializing position-dependent things.

Density initialized from wave functions
       .-----------------------.  
      /|                       |  
     / |                       |  
    /  |                       |  
   /   |                       |  
  /    |                       |  
 *     |                       |  
 |     |   H                   |  
 |     |                       O  
 |     |   C                  H|  
 |     |   H                   |  
 |     |                       |  
 |     |                       N  
 |     |                       |  
 |    HLi      Li              |  
 |     |                       |  
 |   Li|     Li      Li  N     |  
 |     |  Li      Li      Li   |  
 | Li  |   Li      Li          |  
 |     |Li      Li      Li     |  
 |     |         Li            |  
 |   LLi     LLi     LLi       |  
 |     |  Li      Li      Li   |  
 | Li  |   Li      Li          |  
 |     |Li      Li      Li     |  
 Li    | Li      Li            |  
 |    Li      Li      Li       |  
 |     |                       |  
 |     |                       |  
 |     |                       |  
 |     |                       |  
 |     |                       |  
 |     |                       |  
 |     .-----------------------.  
 |    /                       /   
 |   /                       /    
 |  /                       /     
 | /                       /      
 |/                       /       
 *-----------------------*        

Positions:
   0 Li     1.617037    1.617037   10.000000    ( 0.0000,  0.0000,  0.0000)
   1 Li     4.851111    1.617037   10.000000    ( 0.0000,  0.0000,  0.0000)
   2 Li     8.085185    1.617037   10.000000    ( 0.0000,  0.0000,  0.0000)
   3 Li     1.617037    4.851111   10.000000    ( 0.0000,  0.0000,  0.0000)
   4 Li     4.851111    4.851111   10.000000    ( 0.0000,  0.0000,  0.0000)
   5 Li     8.085185    4.851111   10.000000    ( 0.0000,  0.0000,  0.0000)
   6 Li     1.617037    8.085185   10.000000    ( 0.0000,  0.0000,  0.0000)
   7 Li     4.851111    8.085185   10.000000    ( 0.0000,  0.0000,  0.0000)
   8 Li     8.085185    8.085185   10.000000    ( 0.0000,  0.0000,  0.0000)
   9 Li     0.000000    0.000000   11.617037    ( 0.0000,  0.0000,  0.0000)
  10 Li     3.234074    0.000000   11.617037    ( 0.0000,  0.0000,  0.0000)
  11 Li     6.468148    0.000000   11.617037    ( 0.0000,  0.0000,  0.0000)
  12 Li     0.000000    3.234074   11.617037    ( 0.0000,  0.0000,  0.0000)
  13 Li     3.234074    3.234074   11.617037    ( 0.0000,  0.0000,  0.0000)
  14 Li     6.468148    3.234074   11.617037    ( 0.0000,  0.0000,  0.0000)
  15 Li     0.000000    6.468148   11.617037    ( 0.0000,  0.0000,  0.0000)
  16 Li     3.234074    6.468148   11.617037    ( 0.0000,  0.0000,  0.0000)
  17 Li     6.468148    6.468148   11.617037    ( 0.0000,  0.0000,  0.0000)
  18 Li     1.616868    1.616941   13.470178    ( 0.0000,  0.0000,  0.0000)
  19 Li     4.851295    1.617020   13.470516    ( 0.0000,  0.0000,  0.0000)
  20 Li     8.085144    1.617283   13.469745    ( 0.0000,  0.0000,  0.0000)
  21 Li     1.616980    4.851236   13.470446    ( 0.0000,  0.0000,  0.0000)
  22 Li     4.851087    4.851079   13.470961    ( 0.0000,  0.0000,  0.0000)
  23 Li     8.085280    4.851106   13.470615    ( 0.0000,  0.0000,  0.0000)
  24 Li     1.617332    8.085079   13.469739    ( 0.0000,  0.0000,  0.0000)
  25 Li     4.851139    8.085240   13.470642    ( 0.0000,  0.0000,  0.0000)
  26 Li     8.085033    8.085076   13.469258    ( 0.0000,  0.0000,  0.0000)
  27 Li     0.000685   -0.000497   15.401394    ( 0.0000,  0.0000,  0.0000)
  28 Li     3.233107   -0.000033   15.445957    ( 0.0000,  0.0000,  0.0000)
  29 Li     6.469252    0.000102   15.446734    ( 0.0000,  0.0000,  0.0000)
  30 Li     0.000019    3.232732   15.446560    ( 0.0000,  0.0000,  0.0000)
  31 Li     3.234192    3.234079   15.445492    ( 0.0000,  0.0000,  0.0000)
  32 Li     6.468085    3.234139   15.445441    ( 0.0000,  0.0000,  0.0000)
  33 Li     0.000180    6.469633   15.447009    ( 0.0000,  0.0000,  0.0000)
  34 Li     3.234144    6.468308   15.445564    ( 0.0000,  0.0000,  0.0000)
  35 Li     6.467742    6.467820   15.445532    ( 0.0000,  0.0000,  0.0000)
  36 O      9.687489    9.701720   19.771330    ( 0.0000,  0.0000,  0.0000)
  37 C     11.231259    9.697250   19.680685    ( 0.0000,  0.0000,  0.0000)
  38 H     11.532412    8.935515   18.970459    ( 0.0000,  0.0000,  0.0000)
  39 H     11.526963    9.505233   20.669950    ( 0.0000,  0.0000,  0.0000)
  40 H     11.451963   10.676344   19.318697    ( 0.0000,  0.0000,  0.0000)
  41 H      9.357748    8.773014   19.996780    ( 0.0000,  0.0000,  0.0000)
  42 N      9.674375    9.670979   17.071536    ( 0.0000,  0.0000,  0.0000)
  43 N      9.688782    9.792009   18.218875    ( 0.0000,  0.0000,  0.0000)

Unit cell:
           periodic     x           y           z      points  spacing
  1. axis:    yes    9.702222    0.000000    0.000000    60     0.1617
  2. axis:    yes    0.000000    9.702222    0.000000    60     0.1617
  3. axis:    no     0.000000    0.000000   26.601111   168     0.1583

  Lengths:   9.702222   9.702222  26.601111
  Angles:   90.000000  90.000000  90.000000

Effective grid spacing dv^(1/3) = 0.1606

     iter     time        total  log10-change:
                         energy  eigst   dens
iter:   1 12:06:21  -276.536471  -0.71
iter:   2 12:06:28  -276.541547  -1.16  -2.15
iter:   3 12:06:35  -276.541063c -1.53  -2.09
iter:   4 12:06:42  -276.537580c -1.63  -2.25
Writing to output.gpw (mode='')

iter:   5 12:06:49  -276.535903c -1.70  -2.29
iter:   6 12:06:56  -276.535031c -1.77  -2.35
iter:   7 12:07:03  -276.535092c -2.45  -2.45
iter:   8 12:07:10  -276.536111c -2.29  -2.56
iter:   9 12:07:17  -276.535188c -2.48  -2.54
Writing to output.gpw (mode='')

iter:  10 12:07:24  -276.535072c -2.59  -2.73
iter:  11 12:07:32  -276.535113c -2.88  -2.95
iter:  12 12:07:39  -276.535153c -3.22  -3.07
iter:  13 12:07:46  -276.535247c -3.08  -3.13
iter:  14 12:07:53  -276.535279c -3.68  -3.28
Writing to output.gpw (mode='')

iter:  15 12:08:00  -276.535301c -3.79  -3.40
iter:  16 12:08:07  -276.535320c -3.83  -3.47
iter:  17 12:08:14  -276.535324c -4.03  -3.59
iter:  18 12:08:21  -276.535337c -4.03  -3.58
iter:  19 12:08:28  -276.535344c -4.38  -3.56
Writing to output.gpw (mode='')

iter:  20 12:08:35  -276.535361c -4.49  -3.57
iter:  21 12:08:42  -276.535362c -4.58  -3.72
iter:  22 12:08:49  -276.535372c -4.47  -3.78
iter:  23 12:08:58  -276.535377c -4.64  -3.84
iter:  24 12:09:05  -276.535384c -4.65  -3.88
Writing to output.gpw (mode='')

iter:  25 12:09:12  -276.535385c -4.99  -3.96
iter:  26 12:09:19  -276.535384c -5.24  -4.11c
iter:  27 12:09:27  -276.535384c -5.17  -4.22c
iter:  28 12:09:34  -276.535383c -5.45  -4.28c
iter:  29 12:09:46  -276.535383c -5.39  -4.32c
Writing to output.gpw (mode='')

iter:  30 12:09:53  -276.535382c -5.44  -4.38c
iter:  31 12:10:00  -276.535383c -5.68  -4.49c
iter:  32 12:10:07  -276.535383c -5.86  -4.51c
iter:  33 12:10:14  -276.535383c -5.80  -4.58c
iter:  34 12:10:22  -276.535383c -5.98  -4.65c
Writing to output.gpw (mode='')

iter:  35 12:10:29  -276.535384c -5.96  -4.84c
iter:  36 12:10:36  -276.535384c -6.28  -4.84c
iter:  37 12:10:43  -276.535384c -6.20  -4.93c
iter:  38 12:10:50  -276.535385c -6.06  -4.88c
iter:  39 12:10:57  -276.535385c -6.54  -5.20c
Writing to output.gpw (mode='')

iter:  40 12:11:04  -276.535385c -6.54  -5.21c
iter:  41 12:11:11  -276.535384c -6.58  -5.34c
iter:  42 12:11:18  -276.535385c -6.38  -5.42c
iter:  43 12:11:25  -276.535385c -6.74  -5.55c
iter:  44 12:11:32  -276.535385c -6.64  -5.59c
Writing to output.gpw (mode='')

iter:  45 12:11:39  -276.535385c -6.84  -5.56c
iter:  46 12:11:46  -276.535385c -6.92  -5.49c
iter:  47 12:11:53  -276.535385c -6.81  -5.51c
iter:  48 12:12:00  -276.535385c -7.17  -5.59c
iter:  49 12:12:07  -276.535385c -7.11  -5.60c
Writing to output.gpw (mode='')

iter:  50 12:12:14  -276.535385c -7.06  -5.67c
iter:  51 12:12:21  -276.535385c -7.45c -5.86c

Converged after 51 iterations.

Dipole moment: (-7.888020, -16.764054, 0.224643) |e|*Ang

Energy contributions relative to reference atoms: (reference = -13382.245603)

Kinetic:       +154.404584
Potential:     -140.324739
External:        +0.000000
XC:            -291.200207
Entropy (-ST):   -0.144510
Local:           +0.657231
--------------------------
Free energy:   -276.607640
Extrapolated:  -276.535385

Dipole-layer corrected work functions: 3.390805, 2.958964 eV

Showing only first 2 kpts
 Kpt  Band  Eigenvalues  Occupancy
  0    28     -3.42018    1.98530
  0    29     -3.34393    1.93420
  0    30     -3.00586    0.06582
  0    31     -2.93480    0.01630

  1    28     -3.21324    1.36578
  1    29     -3.16881    0.93934
  1    30     -3.14778    0.73536
  1    31     -3.07146    0.22441


Fermi level: -3.17488

No gap
Writing to output.gpw (mode='')


Forces in eV/Ang:
  0 Li    0.00819    0.00593   -0.27074
  1 Li   -0.00142   -0.00108   -0.27083
  2 Li   -0.00695    0.01093   -0.26973
  3 Li   -0.00171   -0.00097   -0.26958
  4 Li    0.00146   -0.00003   -0.28783
  5 Li    0.00011   -0.00365   -0.26827
  6 Li    0.01097   -0.00513   -0.27216
  7 Li   -0.00403    0.00190   -0.26802
  8 Li   -0.00785   -0.00842   -0.26990
  9 Li   -0.00146   -0.00455    0.31867
 10 Li    0.01528    0.00175    0.25397
 11 Li   -0.01359    0.00164    0.26508
 12 Li    0.00030    0.01296    0.25574
 13 Li   -0.00372    0.00059    0.26051
 14 Li    0.00351    0.00891    0.25550
 15 Li    0.00083   -0.00681    0.26917
 16 Li    0.00699   -0.00279    0.25876
 17 Li   -0.00675   -0.00955    0.25562
 18 Li    0.00396    0.00499    0.00010
 19 Li    0.00363    0.00190    0.04484
 20 Li   -0.00719    0.01161   -0.01326
 21 Li   -0.00323    0.00300    0.04741
 22 Li   -0.00167   -0.00270    0.02651
 23 Li    0.00502    0.00536    0.05333
 24 Li    0.02005   -0.00759   -0.01535
 25 Li    0.00519    0.00016    0.04845
 26 Li   -0.02241   -0.01370   -0.03651
 27 Li    0.03534   -0.04060   -2.65193
 28 Li    0.02230   -0.00136   -0.03741
 29 Li   -0.01847    0.00359   -0.01776
 30 Li    0.00181    0.01896   -0.01665
 31 Li    0.00808    0.00473   -0.02863
 32 Li   -0.00976    0.01084   -0.02872
 33 Li    0.00756   -0.00971   -0.01774
 34 Li    0.01097   -0.00291   -0.02725
 35 Li   -0.02175   -0.01913   -0.03663
 36 O     0.33688   -4.09980   12.52016
 37 C    -1.51237   -0.44520    0.31781
 38 H     0.21795   -0.13957    0.11021
 39 H     0.65419   -0.13186    1.20164
 40 H     0.31756    0.53147   -0.03263
 41 H     0.56781    0.76281    0.96198
 42 N    -1.00799   -2.28125    3.59111
 43 N     0.38562    5.80409  -15.86231

System changes: positions 

Initializing position-dependent things.

Density initialized from wave functions
       .-----------------------.  
      /|                       |  
     / |                       |  
    /  |                       |  
   /   |                       |  
  /    |                       |  
 *     |                       |  
 |     |   H                   |  
 |     |                       O  
 |     |   C                  H|  
 |     |   H                   |  
 |     |                       |  
 |     |                       N  
 |     |                       |  
 |    HLi      Li              |  
 |     |                       |  
 |   Li|     Li      Li  N     |  
 |     |  Li      Li      Li   |  
 | Li  |   Li      Li          |  
 |     |Li      Li      Li     |  
 |     |         Li            |  
 |   LLi     LLi     LLi       |  
 |     |  Li      Li      Li   |  
 | Li  |   Li      Li          |  
 |     |Li      Li      Li     |  
 Li    | Li      Li            |  
 |    Li      Li      Li       |  
 |     |                       |  
 |     |                       |  
 |     |                       |  
 |     |                       |  
 |     |                       |  
 |     |                       |  
 |     .-----------------------.  
 |    /                       /   
 |   /                       /    
 |  /                       /     
 | /                       /      
 |/                       /       
 *-----------------------*        

Positions:
   0 Li     1.617037    1.617037   10.000000    ( 0.0000,  0.0000,  0.0000)
   1 Li     4.851111    1.617037   10.000000    ( 0.0000,  0.0000,  0.0000)
   2 Li     8.085185    1.617037   10.000000    ( 0.0000,  0.0000,  0.0000)
   3 Li     1.617037    4.851111   10.000000    ( 0.0000,  0.0000,  0.0000)
   4 Li     4.851111    4.851111   10.000000    ( 0.0000,  0.0000,  0.0000)
   5 Li     8.085185    4.851111   10.000000    ( 0.0000,  0.0000,  0.0000)
   6 Li     1.617037    8.085185   10.000000    ( 0.0000,  0.0000,  0.0000)
   7 Li     4.851111    8.085185   10.000000    ( 0.0000,  0.0000,  0.0000)
   8 Li     8.085185    8.085185   10.000000    ( 0.0000,  0.0000,  0.0000)
   9 Li     0.000000    0.000000   11.617037    ( 0.0000,  0.0000,  0.0000)
  10 Li     3.234074    0.000000   11.617037    ( 0.0000,  0.0000,  0.0000)
  11 Li     6.468148    0.000000   11.617037    ( 0.0000,  0.0000,  0.0000)
  12 Li     0.000000    3.234074   11.617037    ( 0.0000,  0.0000,  0.0000)
  13 Li     3.234074    3.234074   11.617037    ( 0.0000,  0.0000,  0.0000)
  14 Li     6.468148    3.234074   11.617037    ( 0.0000,  0.0000,  0.0000)
  15 Li     0.000000    6.468148   11.617037    ( 0.0000,  0.0000,  0.0000)
  16 Li     3.234074    6.468148   11.617037    ( 0.0000,  0.0000,  0.0000)
  17 Li     6.468148    6.468148   11.617037    ( 0.0000,  0.0000,  0.0000)
  18 Li     1.616863    1.616949   13.470210    ( 0.0000,  0.0000,  0.0000)
  19 Li     4.851339    1.617025   13.470777    ( 0.0000,  0.0000,  0.0000)
  20 Li     8.085092    1.617365   13.469701    ( 0.0000,  0.0000,  0.0000)
  21 Li     1.616951    4.851274   13.470707    ( 0.0000,  0.0000,  0.0000)
  22 Li     4.851075    4.851061   13.471305    ( 0.0000,  0.0000,  0.0000)
  23 Li     8.085321    4.851124   13.470927    ( 0.0000,  0.0000,  0.0000)
  24 Li     1.617486    8.085011   13.469638    ( 0.0000,  0.0000,  0.0000)
  25 Li     4.851156    8.085251   13.470945    ( 0.0000,  0.0000,  0.0000)
  26 Li     8.084912    8.085021   13.469003    ( 0.0000,  0.0000,  0.0000)
  27 Li     0.001045   -0.000717   15.386014    ( 0.0000,  0.0000,  0.0000)
  28 Li     3.232845   -0.000057   15.445945    ( 0.0000,  0.0000,  0.0000)
  29 Li     6.469522    0.000150   15.446918    ( 0.0000,  0.0000,  0.0000)
  30 Li     0.000008    3.232391   15.446732    ( 0.0000,  0.0000,  0.0000)
  31 Li     3.234275    3.234119   15.445326    ( 0.0000,  0.0000,  0.0000)
  32 Li     6.468039    3.234164   15.445274    ( 0.0000,  0.0000,  0.0000)
  33 Li     0.000249    6.470023   15.447291    ( 0.0000,  0.0000,  0.0000)
  34 Li     3.234197    6.468329   15.445427    ( 0.0000,  0.0000,  0.0000)
  35 Li     6.467570    6.467688   15.445368    ( 0.0000,  0.0000,  0.0000)
  36 O      9.687807    9.690569   19.785694    ( 0.0000,  0.0000,  0.0000)
  37 C     11.249979    9.698079   19.686373    ( 0.0000,  0.0000,  0.0000)
  38 H     11.532625    8.934665   18.972076    ( 0.0000,  0.0000,  0.0000)
  39 H     11.527256    9.503855   20.677690    ( 0.0000,  0.0000,  0.0000)
  40 H     11.452888   10.678856   19.318664    ( 0.0000,  0.0000,  0.0000)
  41 H      9.351486    8.759326   20.012993    ( 0.0000,  0.0000,  0.0000)
  42 N      9.670975    9.659630   17.056253    ( 0.0000,  0.0000,  0.0000)
  43 N      9.677880    9.827123   18.203122    ( 0.0000,  0.0000,  0.0000)

Unit cell:
           periodic     x           y           z      points  spacing
  1. axis:    yes    9.702222    0.000000    0.000000    60     0.1617
  2. axis:    yes    0.000000    9.702222    0.000000    60     0.1617
  3. axis:    no     0.000000    0.000000   26.601111   168     0.1583

  Lengths:   9.702222   9.702222  26.601111
  Angles:   90.000000  90.000000  90.000000

Effective grid spacing dv^(1/3) = 0.1606

     iter     time        total  log10-change:
                         energy  eigst   dens
iter:   1 12:12:30  -277.183186  -0.86
iter:   2 12:12:37  -277.188257  -1.36  -2.17
iter:   3 12:12:44  -277.189481c -1.76  -2.29
iter:   4 12:12:51  -277.186588c -1.68  -2.36
Writing to output.gpw (mode='')

iter:   5 12:12:58  -277.187045c -1.69  -2.49
iter:   6 12:13:05  -277.187337c -2.29  -2.54
iter:   7 12:13:12  -277.187439c -2.40  -2.63
iter:   8 12:13:19  -277.188202c -2.28  -2.70
iter:   9 12:13:26  -277.187944c -2.68  -2.83
Writing to output.gpw (mode='')

iter:  10 12:13:34  -277.188130c -2.65  -2.94
iter:  11 12:13:41  -277.188138c -3.04  -2.96
iter:  12 12:13:48  -277.188156c -3.22  -3.07
iter:  13 12:13:55  -277.188103c -3.29  -3.10
iter:  14 12:14:02  -277.188130c -3.76  -3.30
Writing to output.gpw (mode='')

iter:  15 12:14:09  -277.188153c -3.98  -3.30
iter:  16 12:14:16  -277.188151c -3.82  -3.26
iter:  17 12:14:23  -277.188161c -4.02  -3.29
iter:  18 12:14:30  -277.188190c -4.03  -3.24
iter:  19 12:14:43  -277.188189c -4.35  -3.34
Writing to output.gpw (mode='')

iter:  20 12:14:51  -277.188192c -4.35  -3.50
iter:  21 12:14:59  -277.188185c -4.57  -3.57
iter:  22 12:15:06  -277.188164c -4.51  -3.65
iter:  23 12:15:13  -277.188171c -5.19  -3.79
iter:  24 12:15:20  -277.188179c -5.11  -3.92
Writing to output.gpw (mode='')

iter:  25 12:15:27  -277.188174c -5.01  -4.06c
iter:  26 12:15:34  -277.188184c -5.08  -4.04c
iter:  27 12:15:41  -277.188183c -5.32  -4.13c
iter:  28 12:15:48  -277.188178c -5.59  -4.18c
iter:  29 12:15:55  -277.188178c -5.65  -4.49c
Writing to output.gpw (mode='')

iter:  30 12:16:03  -277.188179c -5.61  -4.56c
iter:  31 12:16:10  -277.188179c -5.87  -4.63c
iter:  32 12:16:17  -277.188180c -5.86  -4.68c
iter:  33 12:16:24  -277.188180c -6.05  -4.82c
iter:  34 12:16:31  -277.188180c -5.94  -4.92c
Writing to output.gpw (mode='')

iter:  35 12:16:38  -277.188180c -6.37  -5.00c
iter:  36 12:16:45  -277.188180c -6.33  -5.04c
iter:  37 12:16:52  -277.188180c -6.28  -5.19c
iter:  38 12:16:59  -277.188180c -6.62  -5.22c
iter:  39 12:17:07  -277.188180c -6.41  -5.28c
Writing to output.gpw (mode='')

iter:  40 12:17:14  -277.188180c -6.55  -5.28c
iter:  41 12:17:22  -277.188180c -6.73  -5.22c
iter:  42 12:17:35  -277.188180c -6.66  -5.25c
iter:  43 12:17:44  -277.188180c -6.93  -5.17c
iter:  44 12:17:51  -277.188180c -7.05  -5.19c
Writing to output.gpw (mode='')

iter:  45 12:17:58  -277.188180c -7.18  -5.11c
iter:  46 12:18:05  -277.188181c -7.23  -5.16c
iter:  47 12:18:12  -277.188181c -7.23  -5.31c
iter:  48 12:18:19  -277.188181c -7.34  -5.40c
iter:  49 12:18:26  -277.188180c -7.39  -5.42c
Writing to output.gpw (mode='')

iter:  50 12:18:33  -277.188180c -7.64c -5.64c

Converged after 50 iterations.

Dipole moment: (-6.492265, -15.790291, 0.268839) |e|*Ang

Energy contributions relative to reference atoms: (reference = -13382.245603)

Kinetic:       +151.354837
Potential:     -138.302267
External:        +0.000000
XC:            -290.829698
Entropy (-ST):   -0.143946
Local:           +0.660920
--------------------------
Free energy:   -277.260153
Extrapolated:  -277.188180

Dipole-layer corrected work functions: 3.388181, 2.871380 eV

Showing only first 2 kpts
 Kpt  Band  Eigenvalues  Occupancy
  0    28     -3.37675    1.98578
  0    29     -3.29571    1.93013
  0    30     -2.96412    0.07024
  0    31     -2.88325    0.01434

  1    28     -3.16923    1.37525
  1    29     -3.12557    0.95793
  1    30     -3.10050    0.71529
  1    31     -3.02678    0.22607


Fermi level: -3.12978

No gap

Forces in eV/Ang:
  0 Li    0.00862    0.00541   -0.27113
  1 Li   -0.00125   -0.00167   -0.27028
  2 Li   -0.00751    0.00981   -0.27005
  3 Li   -0.00193   -0.00077   -0.26891
  4 Li    0.00141   -0.00020   -0.28716
  5 Li    0.00036   -0.00295   -0.26807
  6 Li    0.01064   -0.00489   -0.27266
  7 Li   -0.00335    0.00282   -0.26743
  8 Li   -0.00808   -0.00798   -0.27049
  9 Li   -0.00100   -0.00478    0.32016
 10 Li    0.01578    0.00189    0.25419
 11 Li   -0.01463    0.00174    0.26329
 12 Li    0.00024    0.01215    0.25742
 13 Li   -0.00421    0.00208    0.26091
 14 Li    0.00400    0.00915    0.25657
 15 Li    0.00068   -0.00542    0.26995
 16 Li    0.00677   -0.00443    0.25936
 17 Li   -0.00643   -0.00999    0.25579
 18 Li    0.00821    0.00780   -0.00651
 19 Li    0.00307    0.00252    0.04554
 20 Li   -0.01072    0.01214   -0.01784
 21 Li   -0.00420    0.00303    0.04965
 22 Li   -0.00153   -0.00274    0.02419
 23 Li    0.00582    0.00548    0.05502
 24 Li    0.02475   -0.01002   -0.02270
 25 Li    0.00485   -0.00058    0.04856
 26 Li   -0.02730   -0.01470   -0.04089
 27 Li    0.04446   -0.04372   -2.60629
 28 Li    0.02563   -0.00145   -0.03985
 29 Li   -0.02293    0.00279   -0.02157
 30 Li    0.00196    0.02626   -0.01922
 31 Li    0.01030    0.00580   -0.02967
 32 Li   -0.01232    0.01162   -0.02941
 33 Li    0.00697   -0.01574   -0.02054
 34 Li    0.01274   -0.00452   -0.02809
 35 Li   -0.02231   -0.01877   -0.03709
 36 O     0.61991   -4.42497   11.01124
 37 C    -2.04583   -0.57031    0.16414
 38 H     0.30324   -0.14774    0.10580
 39 H     0.79366   -0.13204    1.25526
 40 H     0.32201    0.53018   -0.00397
 41 H     0.78530    0.99440    0.77763
 42 N    -0.65992   -2.18756    4.38257
 43 N    -0.13749    5.97758  -14.94354

System changes: positions 

Initializing position-dependent things.

Density initialized from wave functions
       .-----------------------.  
      /|                       |  
     / |                       |  
    /  |                       |  
   /   |                       |  
  /    |                       |  
 *     |                       |  
 |     |   H                   |  
 |     |                       O  
 |     |   C                  H|  
 |     |   H                   |  
 |     |                       |  
 |     |                       N  
 |     |                       |  
 |    HLi      Li              |  
 |     |                       |  
 |   Li|     Li      Li  N     |  
 |     |  Li      Li      Li   |  
 | Li  |   Li      Li          |  
 |     |Li      Li      Li     |  
 |     |         Li            |  
 |   LLi     LLi     LLi       |  
 |     |  Li      Li      Li   |  
 | Li  |   Li      Li          |  
 |     |Li      Li      Li     |  
 Li    | Li      Li            |  
 |    Li      Li      Li       |  
 |     |                       |  
 |     |                       |  
 |     |                       |  
 |     |                       |  
 |     |                       |  
 |     |                       |  
 |     .-----------------------.  
 |    /                       /   
 |   /                       /    
 |  /                       /     
 | /                       /      
 |/                       /       
 *-----------------------*        

Positions:
   0 Li     1.617037    1.617037   10.000000    ( 0.0000,  0.0000,  0.0000)
   1 Li     4.851111    1.617037   10.000000    ( 0.0000,  0.0000,  0.0000)
   2 Li     8.085185    1.617037   10.000000    ( 0.0000,  0.0000,  0.0000)
   3 Li     1.617037    4.851111   10.000000    ( 0.0000,  0.0000,  0.0000)
   4 Li     4.851111    4.851111   10.000000    ( 0.0000,  0.0000,  0.0000)
   5 Li     8.085185    4.851111   10.000000    ( 0.0000,  0.0000,  0.0000)
[...]
iter:  13 18:54:12  -283.293964c -5.62  -4.20c
iter:  14 18:54:19  -283.293964c -5.75  -4.27c
Writing to output.gpw (mode='')

iter:  15 18:54:26  -283.293966c -5.99  -4.32c
iter:  16 18:54:33  -283.293964c -5.97  -4.44c
iter:  17 18:54:46  -283.293964c -6.39  -4.62c
iter:  18 18:54:53  -283.293964c -6.57  -4.66c
iter:  19 18:55:00  -283.293965c -6.78  -4.72c
Writing to output.gpw (mode='')

iter:  20 18:55:07  -283.293966c -6.76  -4.76c
iter:  21 18:55:14  -283.293966c -6.93  -5.09c
iter:  22 18:55:21  -283.293965c -7.06  -5.17c
iter:  23 18:55:28  -283.293966c -7.37  -5.17c
iter:  24 18:55:35  -283.293966c -7.29  -5.22c
Writing to output.gpw (mode='')

iter:  25 18:55:42  -283.293965c -7.41c -5.26c

Converged after 25 iterations.

Dipole moment: (-7.670103, 13.479971, -0.077057) |e|*Ang

Energy contributions relative to reference atoms: (reference = -13382.245603)

Kinetic:       +133.337942
Potential:     -127.584083
External:        +0.000000
XC:            -289.673007
Entropy (-ST):   -0.146882
Local:           +0.698624
--------------------------
Free energy:   -283.367406
Extrapolated:  -283.293965

Dipole-layer corrected work functions: 3.400638, 3.548768 eV

Showing only first 2 kpts
 Kpt  Band  Eigenvalues  Occupancy
  0    28     -3.73037    1.98804
  0    29     -3.65415    1.94623
  0    30     -3.29885    0.05766
  0    31     -3.23628    0.01684

  1    28     -3.51237    1.35979
  1    29     -3.45319    0.78809
  1    30     -3.44604    0.72095
  1    31     -3.39792    0.35435


Fermi level: -3.47470

No gap

Forces in eV/Ang:
  0 Li    0.01246    0.00118   -0.26687
  1 Li   -0.00754   -0.00130   -0.27478
  2 Li   -0.00464    0.00377   -0.26854
  3 Li    0.00120    0.00006   -0.28127
  4 Li    0.00163   -0.00202   -0.27742
  5 Li    0.00121    0.00793   -0.27515
  6 Li    0.00263   -0.00310   -0.26594
  7 Li    0.00031   -0.00098   -0.28179
  8 Li   -0.00133   -0.01240   -0.26677
  9 Li    0.00728   -0.00709    0.26112
 10 Li   -0.00319   -0.01193    0.25249
 11 Li   -0.01323   -0.01893    0.28166
 12 Li    0.01822    0.01330    0.28555
 13 Li   -0.01415   -0.01281    0.26776
 14 Li   -0.01158    0.01089    0.27626
 15 Li    0.01179    0.00717    0.25246
 16 Li   -0.03438    0.03627    0.26521
 17 Li    0.01344    0.01782    0.26817
 18 Li   -0.00151    0.00416    0.00349
 19 Li    0.00083    0.00290   -0.00022
 20 Li   -0.00442    0.00183    0.00770
 21 Li   -0.00200   -0.00317   -0.00084
 22 Li    0.00046    0.00277    0.00626
 23 Li   -0.00317   -0.00460    0.00144
 24 Li   -0.00157   -0.00119    0.00021
 25 Li    0.00011   -0.00233   -0.00347
 26 Li   -0.00326    0.00306    0.00159
 27 Li   -0.00955    0.01791    0.00045
 28 Li   -0.00413   -0.00141   -0.00385
 29 Li   -0.00070    0.00033    0.00841
 30 Li    0.00096   -0.00074    0.00693
 31 Li   -0.00205   -0.00241    0.00348
 32 Li    0.00159   -0.00044    0.00435
 33 Li    0.00268    0.00224   -0.00410
 34 Li   -0.00343    0.00469    0.00485
 35 Li    0.00115    0.00202    0.00459
 36 O    -0.01083    0.00465   -0.05941
 37 C     0.08072    0.00822    0.02459
 38 H    -0.00525   -0.00501    0.03174
 39 H    -0.03196   -0.00232    0.00050
 40 H     0.00129   -0.01143   -0.00352
 41 H    -0.00230   -0.00243    0.01411
 42 N    -0.02342    0.00888   -0.02456
 43 N    -0.01995    0.02261    0.01869

System changes: positions 

Initializing position-dependent things.

Density initialized from wave functions
       .-----------------------.  
      /|                       |  
     / |                       |  
    /  |                       |  
   /   |                       |  
  /    |                       |  
 *     |                       |  
 |     |O                      |  
 |     H   C H                 |  
 |     |                       |  
 |     |  H                    |  
 |     |                       |  
 |     |                       |  
 |     |                       |  
 |    H|               Li      |  
 |     |               N       |  
 |     |     Li      Li      Li|  
 |     |  Li      Li    N Li   |  
 | Li  |   Li      Li          |  
 |     |Li      Li      Li     |  
 |     | Li              Li    |  
 |   LLi     LLi     LLi       |  
 |     |  Li      Li      Li   |  
 | Li  |   Li      Li          |  
 |     |Li      Li      Li     |  
 Li    | Li      Li            |  
 |    Li      Li      Li       |  
 |     |                       |  
 |     |                       |  
 |     |                       |  
 |     |                       |  
 |     |                       |  
 |     |                       |  
 |     .-----------------------.  
 |    /                       /   
 |   /                       /    
 |  /                       /     
 | /                       /      
 |/                       /       
 *-----------------------*        

Positions:
   0 Li     1.617037    1.617037   10.000000    ( 0.0000,  0.0000,  0.0000)
   1 Li     4.851111    1.617037   10.000000    ( 0.0000,  0.0000,  0.0000)
   2 Li     8.085185    1.617037   10.000000    ( 0.0000,  0.0000,  0.0000)
   3 Li     1.617037    4.851111   10.000000    ( 0.0000,  0.0000,  0.0000)
   4 Li     4.851111    4.851111   10.000000    ( 0.0000,  0.0000,  0.0000)
   5 Li     8.085185    4.851111   10.000000    ( 0.0000,  0.0000,  0.0000)
   6 Li     1.617037    8.085185   10.000000    ( 0.0000,  0.0000,  0.0000)
   7 Li     4.851111    8.085185   10.000000    ( 0.0000,  0.0000,  0.0000)
   8 Li     8.085185    8.085185   10.000000    ( 0.0000,  0.0000,  0.0000)
   9 Li     0.000000    0.000000   11.617037    ( 0.0000,  0.0000,  0.0000)
  10 Li     3.234074    0.000000   11.617037    ( 0.0000,  0.0000,  0.0000)
  11 Li     6.468148    0.000000   11.617037    ( 0.0000,  0.0000,  0.0000)
  12 Li     0.000000    3.234074   11.617037    ( 0.0000,  0.0000,  0.0000)
  13 Li     3.234074    3.234074   11.617037    ( 0.0000,  0.0000,  0.0000)
  14 Li     6.468148    3.234074   11.617037    ( 0.0000,  0.0000,  0.0000)
  15 Li     0.000000    6.468148   11.617037    ( 0.0000,  0.0000,  0.0000)
  16 Li     3.234074    6.468148   11.617037    ( 0.0000,  0.0000,  0.0000)
  17 Li     6.468148    6.468148   11.617037    ( 0.0000,  0.0000,  0.0000)
  18 Li     1.601026    1.587790   13.493608    ( 0.0000,  0.0000,  0.0000)
  19 Li     4.831072    1.611856   13.462237    ( 0.0000,  0.0000,  0.0000)
  20 Li     8.095747    1.606511   13.443430    ( 0.0000,  0.0000,  0.0000)
  21 Li     1.631484    4.877789   13.466312    ( 0.0000,  0.0000,  0.0000)
  22 Li     4.833503    4.867730   13.458995    ( 0.0000,  0.0000,  0.0000)
  23 Li     8.088421    4.875568   13.460091    ( 0.0000,  0.0000,  0.0000)
  24 Li     1.585847    8.120177   13.528057    ( 0.0000,  0.0000,  0.0000)
  25 Li     4.828737    8.073069   13.468865    ( 0.0000,  0.0000,  0.0000)
  26 Li     8.114283    8.103400   13.497013    ( 0.0000,  0.0000,  0.0000)
  27 Li    -0.042589    0.042435   15.614412    ( 0.0000,  0.0000,  0.0000)
  28 Li     3.234719    0.002974   15.443448    ( 0.0000,  0.0000,  0.0000)
  29 Li     6.399209   -0.018520   15.354222    ( 0.0000,  0.0000,  0.0000)
  30 Li     0.017386    3.307967   15.345273    ( 0.0000,  0.0000,  0.0000)
  31 Li     3.229594    3.229937   15.404520    ( 0.0000,  0.0000,  0.0000)
  32 Li     6.437857    3.261868   15.336991    ( 0.0000,  0.0000,  0.0000)
  33 Li    -0.002813    6.473472   15.442773    ( 0.0000,  0.0000,  0.0000)
  34 Li     3.232326    6.469010   15.437843    ( 0.0000,  0.0000,  0.0000)
  35 Li     6.473967    6.472063   15.406917    ( 0.0000,  0.0000,  0.0000)
  36 O     10.088132    9.321807   20.805182    ( 0.0000,  0.0000,  0.0000)
  37 C     11.265430    9.556946   20.025347    ( 0.0000,  0.0000,  0.0000)
  38 H     11.200417    9.097806   19.030727    ( 0.0000,  0.0000,  0.0000)
  39 H     12.171085    9.192481   20.523190    ( 0.0000,  0.0000,  0.0000)
  40 H     11.344965   10.637314   19.903979    ( 0.0000,  0.0000,  0.0000)
  41 H     10.000325    8.370851   20.935406    ( 0.0000,  0.0000,  0.0000)
  42 N      9.029303   10.455219   17.421923    ( 0.0000,  0.0000,  0.0000)
  43 N      8.653363   10.868973   18.382555    ( 0.0000,  0.0000,  0.0000)

Unit cell:
           periodic     x           y           z      points  spacing
  1. axis:    yes    9.702222    0.000000    0.000000    60     0.1617
  2. axis:    yes    0.000000    9.702222    0.000000    60     0.1617
  3. axis:    no     0.000000    0.000000   26.601111   168     0.1583

  Lengths:   9.702222   9.702222  26.601111
  Angles:   90.000000  90.000000  90.000000

Effective grid spacing dv^(1/3) = 0.1606

     iter     time        total  log10-change:
                         energy  eigst   dens
iter:   1 18:55:51  -283.296277  -2.63
iter:   2 18:55:58  -283.294762  -3.08  -2.40
iter:   3 18:56:05  -283.294351c -4.13  -2.66
iter:   4 18:56:12  -283.294138c -3.71  -2.95
Writing to output.gpw (mode='')

iter:   5 18:56:19  -283.294154c -4.90  -3.39
iter:   6 18:56:27  -283.294104c -4.01  -3.30
iter:   7 18:56:34  -283.294116c -3.62  -3.50
iter:   8 18:56:41  -283.294118c -4.78  -3.46
iter:   9 18:56:48  -283.294116c -5.23  -3.82
Writing to output.gpw (mode='')

iter:  10 18:56:55  -283.294110c -4.78  -3.88
iter:  11 18:57:02  -283.294110c -5.53  -3.96
iter:  12 18:57:09  -283.294111c -5.87  -4.14c
iter:  13 18:57:17  -283.294112c -5.98  -4.16c
iter:  14 18:57:24  -283.294115c -5.74  -4.23c
Writing to output.gpw (mode='')

iter:  15 18:57:31  -283.294116c -5.92  -4.45c
iter:  16 18:57:38  -283.294115c -6.48  -4.42c
iter:  17 18:57:45  -283.294115c -6.29  -4.62c
iter:  18 18:57:52  -283.294116c -6.78  -4.76c
iter:  19 18:57:59  -283.294115c -6.96  -4.67c
Writing to output.gpw (mode='')

iter:  20 18:58:07  -283.294115c -6.63  -4.90c
iter:  21 18:58:14  -283.294115c -6.97  -5.06c
iter:  22 18:58:21  -283.294115c -7.05  -5.06c
iter:  23 18:58:28  -283.294115c -7.40c -5.23c

Converged after 23 iterations.

Dipole moment: (-7.633703, 13.484315, -0.076476) |e|*Ang

Energy contributions relative to reference atoms: (reference = -13382.245603)

Kinetic:       +133.313331
Potential:     -127.569282
External:        +0.000000
XC:            -289.663382
Entropy (-ST):   -0.146945
Local:           +0.698690
--------------------------
Free energy:   -283.367588
Extrapolated:  -283.294115

Dipole-layer corrected work functions: 3.400591, 3.547603 eV

Showing only first 2 kpts
 Kpt  Band  Eigenvalues  Occupancy
  0    28     -3.72942    1.98796
  0    29     -3.65333    1.94600
  0    30     -3.29848    0.05793
  0    31     -3.23544    0.01677

  1    28     -3.51189    1.36089
  1    29     -3.45276    0.78981
  1    30     -3.44550    0.72162
  1    31     -3.39736    0.35459


Fermi level: -3.47410

No gap
Writing to output.gpw (mode='')


Forces in eV/Ang:
  0 Li    0.01246    0.00116   -0.26685
  1 Li   -0.00749   -0.00138   -0.27492
  2 Li   -0.00464    0.00376   -0.26846
  3 Li    0.00122    0.00007   -0.28122
  4 Li    0.00161   -0.00201   -0.27720
  5 Li    0.00130    0.00790   -0.27528
  6 Li    0.00264   -0.00311   -0.26591
  7 Li    0.00032   -0.00098   -0.28175
  8 Li   -0.00132   -0.01241   -0.26676
  9 Li    0.00671   -0.00672    0.26121
 10 Li   -0.00302   -0.01167    0.25291
 11 Li   -0.01311   -0.01866    0.28217
 12 Li    0.01793    0.01322    0.28606
 13 Li   -0.01414   -0.01315    0.26773
 14 Li   -0.01162    0.01094    0.27677
 15 Li    0.01154    0.00716    0.25284
 16 Li   -0.03453    0.03650    0.26445
 17 Li    0.01364    0.01778    0.26811
 18 Li   -0.00157    0.00464    0.00357
 19 Li    0.00080    0.00282   -0.00018
 20 Li   -0.00456    0.00178    0.00730
 21 Li   -0.00297   -0.00321   -0.00035
 22 Li    0.00125    0.00237    0.00659
 23 Li   -0.00306   -0.00499    0.00169
 24 Li   -0.00184   -0.00125    0.00101
 25 Li   -0.00015   -0.00169   -0.00323
 26 Li   -0.00332    0.00351    0.00143
 27 Li   -0.00783    0.01677   -0.00406
 28 Li   -0.00487   -0.00058   -0.00342
 29 Li    0.00081    0.00099    0.00774
 30 Li    0.00041   -0.00187    0.00599
 31 Li   -0.00204   -0.00282    0.00333
 32 Li    0.00222   -0.00098    0.00383
 33 Li    0.00198    0.00285   -0.00381
 34 Li   -0.00250    0.00405    0.00412
 35 Li    0.00117    0.00184    0.00457
 36 O     0.00377   -0.00580   -0.04935
 37 C     0.04076    0.00414    0.00417
 38 H     0.00094   -0.00315    0.02437
 39 H    -0.02691    0.00787    0.01876
 40 H     0.01708   -0.01578    0.00173
 41 H    -0.00483    0.00824    0.01112
 42 N    -0.02866    0.00536   -0.02249
 43 N    -0.02062    0.01238    0.01911

Timing:                                      incl.     excl.
-------------------------------------------------------------------
Density initialized from wave functions:     3.737     3.734   0.0% |
 Symmetrize density:                         0.003     0.003   0.0% |
Forces:                                     35.864    35.864   0.1% |
Hamiltonian:                               552.766     0.014   0.0% |
 Atomic:                                     0.022     0.022   0.0% |
  XC Correction:                             0.000     0.000   0.0% |
 Calculate atomic Hamiltonians:              0.041     0.041   0.0% |
 Communicate:                                9.469     9.469   0.0% |
 Hartree integrate/restrict:                 2.152     2.152   0.0% |
 Initialize Hamiltonian:                     0.000     0.000   0.0% |
 Poisson:                                   27.098     9.984   0.0% |
  Communicate from 1D:                       2.610     2.610   0.0% |
  Communicate from 2D:                       2.580     2.580   0.0% |
  Communicate to 1D:                         1.498     1.498   0.0% |
  Communicate to 2D:                         3.120     3.120   0.0% |
  FFT 1D:                                    3.949     3.949   0.0% |
  FFT 2D:                                    3.358     3.358   0.0% |
 XC 3D grid:                               513.518    79.830   0.3% |
  VdW-DF integral:                         433.689     3.653   0.0% |
   Convolution:                             39.286    39.286   0.1% |
   FFT:                                     17.150    17.150   0.1% |
   gather:                                 149.189   149.189   0.6% |
   hmm1:                                    14.365    14.365   0.1% |
   hmm2:                                    18.988    18.988   0.1% |
   iFFT:                                    17.604    17.604   0.1% |
   potential:                              169.809     4.418   0.0% |
    collect:                                26.467    26.467   0.1% |
    p1:                                     77.746    77.746   0.3% |
    p2:                                     29.393    29.393   0.1% |
    sum:                                    31.786    31.786   0.1% |
   splines:                                  3.645     3.645   0.0% |
 vbar:                                       0.451     0.451   0.0% |
LCAO initialization:                         1.016     0.185   0.0% |
 LCAO eigensolver:                           0.214     0.000   0.0% |
  Calculate projections:                     0.000     0.000   0.0% |
  DenseAtomicCorrection:                     0.000     0.000   0.0% |
  Distribute overlap matrix:                 0.151     0.151   0.0% |
  Orbital Layouts:                           0.062     0.062   0.0% |
  Potential matrix:                          0.001     0.001   0.0% |
  Sum over cells:                            0.001     0.001   0.0% |
 LCAO to grid:                               0.522     0.522   0.0% |
 Set positions (LCAO WFS):                   0.095     0.050   0.0% |
  Basic WFS set positions:                   0.001     0.001   0.0% |
  Basis functions set positions:             0.000     0.000   0.0% |
  P tci:                                     0.000     0.000   0.0% |
  ST tci:                                    0.016     0.016   0.0% |
  mktci:                                     0.027     0.027   0.0% |
Redistribute:                                0.061     0.061   0.0% |
SCF-cycle:                               26444.375   438.990   1.6% ||
 Davidson:                                6139.796  1838.526   6.8% |--|
  Apply hamiltonian:                       394.756   394.756   1.5% ||
  Subspace diag:                          1161.445     0.421   0.0% |
   calc_h_matrix:                          560.268   162.874   0.6% |
    Apply hamiltonian:                     397.394   397.394   1.5% ||
   diagonalize:                             71.186    71.186   0.3% |
   rotate_psi:                             529.570   529.570   2.0% ||
  calc. matrices:                         1878.676   944.436   3.5% ||
   Apply hamiltonian:                      934.240   934.240   3.4% ||
  diagonalize:                              15.856    15.856   0.1% |
  rotate_psi:                              850.538   850.538   3.1% ||
 Density:                                  130.876     0.095   0.0% |
  Atomic density matrices:                  16.050    16.050   0.1% |
  Mix:                                      59.452    59.452   0.2% |
  Multipole moments:                         7.543     7.543   0.0% |
  Pseudo density:                           47.737    47.660   0.2% |
   Symmetrize density:                       0.077     0.077   0.0% |
 Hamiltonian:                            19718.991     0.471   0.0% |
  Atomic:                                    0.895     0.886   0.0% |
   XC Correction:                            0.009     0.009   0.0% |
  Calculate atomic Hamiltonians:             1.425     1.425   0.0% |
  Communicate:                             282.936   282.936   1.0% |
  Hartree integrate/restrict:               76.075    76.075   0.3% |
  Poisson:                                 947.490   349.008   1.3% ||
   Communicate from 1D:                     94.504    94.504   0.3% |
   Communicate from 2D:                     94.479    94.479   0.3% |
   Communicate to 1D:                       55.440    55.440   0.2% |
   Communicate to 2D:                      114.293   114.293   0.4% |
   FFT 1D:                                 121.925   121.925   0.4% |
   FFT 2D:                                 117.841   117.841   0.4% |
  XC 3D grid:                            18393.455  2866.019  10.6% |---|
   VdW-DF integral:                      15527.436   130.894   0.5% |
    Convolution:                          1408.371  1408.371   5.2% |-|
    FFT:                                   613.476   613.476   2.3% ||
    gather:                               5357.819  5357.819  19.8% |-------|
    hmm1:                                  514.626   514.626   1.9% ||
    hmm2:                                  677.780   677.780   2.5% ||
    iFFT:                                  631.385   631.385   2.3% ||
    potential:                            6193.052   159.213   0.6% |
     collect:                              955.117   955.117   3.5% ||
     p1:                                  2784.637  2784.637  10.3% |---|
     p2:                                  1047.276  1047.276   3.9% |-|
     sum:                                 1246.809  1246.809   4.6% |-|
    splines:                                 0.032     0.032   0.0% |
  vbar:                                     16.244    16.244   0.1% |
 Orthonormalize:                            15.723     0.013   0.0% |
  calc_s_matrix:                             2.117     2.117   0.0% |
  inverse-cholesky:                          4.750     4.750   0.0% |
  projections:                               0.002     0.002   0.0% |
  rotate_psi_s:                              8.840     8.840   0.0% |
Set symmetry:                                0.014     0.014   0.0% |
Other:                                      79.823    79.823   0.3% |
-------------------------------------------------------------------
Total:                                             27117.656 100.0%

Memory usage: 1.13 GiB
Date: Fri Mar 10 18:58:29 2023
