
  ___ ___ ___ _ _ _  
 |   |   |_  | | | | 
 | | | | | . | | | | 
 |__ |  _|___|_____|  22.8.0
 |___|_|             

User:   vazumah@r368.ib.bridges2.psc.edu
Date:   Fri Mar 10 10:03:24 2023
Arch:   x86_64
Pid:    18572
CWD:    /jet/home/vazumah/Calcs/LiMEAS/proton_donors/butanol_x/ontop/9.702_9.702/N2_x
Python: 3.11.0
gpaw:   /jet/home/vazumah/.conda/envs/GPAW_mpich/lib/python3.11/site-packages/gpaw
_gpaw:  /jet/home/vazumah/.conda/envs/GPAW_mpich/lib/python3.11/site-packages/
        _gpaw.cpython-311-x86_64-linux-gnu.so
ase:    /jet/home/vazumah/.conda/envs/GPAW_mpich/lib/python3.11/site-packages/ase (version 3.22.1)
numpy:  /jet/home/vazumah/.conda/envs/GPAW_mpich/lib/python3.11/site-packages/numpy (version 1.24.2)
scipy:  /jet/home/vazumah/.conda/envs/GPAW_mpich/lib/python3.11/site-packages/scipy (version 1.10.1)
libxc:  5.2.3
units:  Angstrom and eV
cores: 128
OpenMP: True
OMP_NUM_THREADS: 1

Input parameters:
  h: 0.16
  kpts: {size: [4, 4, 1]}
  occupations: {name: fermi-dirac,
                width: 0.05}
  poissonsolver: {dipolelayer: xy}
  xc: BEEF-vdW

System changes: positions, numbers, cell, pbc, initial_charges, initial_magmoms 

Initialize ...

species:
  Li:
    name: Lithium
    id: 830b4218f175192f93f959cfc0aad614
    Z: 3.0
    valence: 1
    core: 2
    charge: 0.0
    file: /jet/home/vazumah/datasets/gpaw-setups-0.9.20000/Li.PBE.gz
    compensation charges: {type: gauss,
                           rc: 0.33,
                           lmax: 2}
    cutoffs: {filter: 1.91,
              core: 2.55}
    valence states:
      #              energy  rcut
      - 2s(1.00)    -2.874   1.058
      - 2p(0.00)    -1.090   1.058
      -  s          24.337   1.058
  
    # Using partial waves for Li as LCAO basis

  O:
    name: Oxygen
    id: 32ecd46bf208036f09c70b0ec9a88b78
    Z: 8.0
    valence: 6
    core: 2
    charge: 0.0
    file: /jet/home/vazumah/datasets/gpaw-setups-0.9.20000/O.PBE.gz
    compensation charges: {type: gauss,
                           rc: 0.21,
                           lmax: 2}
    cutoffs: {filter: 1.17,
              core: 0.83}
    valence states:
      #              energy  rcut
      - 2s(2.00)   -23.961   0.688
      - 2p(4.00)    -9.029   0.598
      -  s           3.251   0.688
      -  p          18.182   0.598
      -  d           0.000   0.619
  
    # Using partial waves for O as LCAO basis

  C:
    name: Carbon
    id: 4aa54d4b901d75f77cc0ea3eec22967b
    Z: 6.0
    valence: 4
    core: 2
    charge: 0.0
    file: /jet/home/vazumah/datasets/gpaw-setups-0.9.20000/C.PBE.gz
    compensation charges: {type: gauss,
                           rc: 0.20,
                           lmax: 2}
    cutoffs: {filter: 1.14,
              core: 1.14}
    valence states:
      #              energy  rcut
      - 2s(2.00)   -13.751   0.635
      - 2p(2.00)    -5.284   0.635
      -  s          13.461   0.635
      -  p          21.927   0.635
      -  d           0.000   0.635
  
    # Using partial waves for C as LCAO basis

  H:
    name: Hydrogen
    id: d65de229564ff8ea4db303e23b6d1ecf
    Z: 1.0
    valence: 1
    core: 0
    charge: 0.0
    file: /jet/home/vazumah/datasets/gpaw-setups-0.9.20000/H.PBE.gz
    compensation charges: {type: gauss,
                           rc: 0.15,
                           lmax: 2}
    cutoffs: {filter: 0.85,
              core: 0.53}
    valence states:
      #              energy  rcut
      - 1s(1.00)    -6.494   0.476
      -  s          20.717   0.476
      -  p           0.000   0.476
  
    # Using partial waves for H as LCAO basis

  N:
    name: Nitrogen
    id: f7500608b86eaa90eef8b1d9a670dc53
    Z: 7.0
    valence: 5
    core: 2
    charge: 0.0
    file: /jet/home/vazumah/datasets/gpaw-setups-0.9.20000/N.PBE.gz
    compensation charges: {type: gauss,
                           rc: 0.18,
                           lmax: 2}
    cutoffs: {filter: 1.11,
              core: 0.96}
    valence states:
      #              energy  rcut
      - 2s(2.00)   -18.583   0.603
      - 2p(3.00)    -7.089   0.529
      -  s           8.629   0.603
      -  p          20.123   0.529
      -  d           0.000   0.577
  
    # Using partial waves for N as LCAO basis

Reference energy: -16540.070923  # eV

Spin-paired calculation

Convergence criteria:
 Maximum [total energy] change in last 3 cyles: 0.0005 eV / electron
 Maximum integral of absolute [dens]ity change: 0.0001 electrons / valence electron
 Maximum integral of absolute [eigenst]ate change: 4e-08 eV^2 / valence electron
 Maximum number of scf [iter]ations: 333
 (Square brackets indicate name in SCF output, whereas a 'c' in
 the SCF output indicates the quantity has converged.)

Symmetries present (total): 1

  ( 1  0  0)
  ( 0  1  0)
  ( 0  0  1)

16 k-points: 4 x 4 x 1 Monkhorst-Pack grid
8 k-points in the irreducible part of the Brillouin zone
       k-points in crystal coordinates                weights
   0:     0.12500000   -0.37500000    0.00000000          2/16
   1:     0.12500000   -0.12500000    0.00000000          2/16
   2:     0.12500000    0.12500000    0.00000000          2/16
   3:     0.12500000    0.37500000    0.00000000          2/16
   4:     0.37500000   -0.37500000    0.00000000          2/16
   5:     0.37500000   -0.12500000    0.00000000          2/16
   6:     0.37500000    0.12500000    0.00000000          2/16
   7:     0.37500000    0.37500000    0.00000000          2/16

Wave functions: Uniform real-space grid
  Kinetic energy operator: 6*3+1=19 point O(h^6) finite-difference Laplacian
  ScaLapack parameters: grid=1x1, blocksize=None
  Wavefunction extrapolation:
    Improved wavefunction reuse through dual PAW basis 

Occupation numbers: Fermi-Dirac:
  width: 0.0500  # eV
 

Eigensolver
   Davidson(niter=2) 

Densities:
  Coarse grid: 60*60*164 grid
  Fine grid: 120*120*328 grid
  Total Charge: 0.000000 

Density mixing:
  Method: separate
  Backend: pulay
  Linear mixing parameter: 0.05
  old densities: 5
  Damping of long wavelength oscillations: 50 

Hamiltonian:
  XC and Coulomb potentials evaluated on a 120*120*328 grid
  Using the BEEF-vdW Exchange-Correlation functional
  Interpolation: tri-quintic (5. degree polynomial)
  Poisson solver: FastPoissonSolver using
    Stencil: 6*3+1=19 point O(h^6) finite-difference Laplacian
    FFT axes: [0, 1]
    FST axes: [2]

Dipole correction along z-axis 

XC parameters: BEEF-vdW with 2 nearest neighbor stencil

Memory estimate:
  Process memory now: 127.59 MiB
  Calculator: 88.32 MiB
    Density: 22.73 MiB
      Arrays: 7.22 MiB
      Localized functions: 12.76 MiB
      Mixer: 2.75 MiB
    Hamiltonian: 5.73 MiB
      Arrays: 4.72 MiB
      XC: 0.00 MiB
      Poisson: 0.00 MiB
      vbar: 1.01 MiB
    Wavefunctions: 59.86 MiB
      Arrays psit_nG: 28.02 MiB
      Eigensolver: 31.16 MiB
      Projections: 0.02 MiB
      Projectors: 0.67 MiB

Total number of cores used: 128
Parallelization over k-points: 8
Domain decomposition: 2 x 2 x 4

Number of atoms: 53
Number of atomic orbitals: 182
Number of bands in calculation: 51
Number of valence electrons: 78
Bands to converge: occupied

... initialized

Initializing position-dependent things.

Density initialized from atomic densities
Creating initial wave functions:
  51 bands from LCAO basis set

       .-----------------------.  
      /|                       |  
     / |                       |  
    /  |                       |  
   /   |                       |  
  /    |                       |  
 *     |                       |  
 |     |                       |  
 |     |                       |  
 |     |          H      H     |  
 |     |           C     C     |  
 |     |          H     H   N  H  
 |     |                       |  
 |     |                       |  
 |     |         H     H       |  
 |   Li|   H Li C    LiC       |  
 |     |         H     H O     |  
 | Li  |  LLi     LLi     Li   |  
 |     |                       |  
 Li    |LLi     LLi     Li     |  
 |   Li|     Li      Li        |  
 |    Li  Li  Li  Li  Li  Li   |  
 | Li  |   Li      Li          |  
 |     |Li      Li      Li     |  
 Li    | Li      Li            |  
 |    Li      Li      Li       |  
 |     |                       |  
 |     |                       |  
 |     |                       |  
 |     |                       |  
 |     |                       |  
 |     |                       |  
 |     .-----------------------.  
 |    /                       /   
 |   /                       /    
 |  /                       /     
 | /                       /      
 |/                       /       
 *-----------------------*        

Positions:
   0 Li     1.617037    1.617037   10.000000    ( 0.0000,  0.0000,  0.0000)
   1 Li     4.851111    1.617037   10.000000    ( 0.0000,  0.0000,  0.0000)
   2 Li     8.085185    1.617037   10.000000    ( 0.0000,  0.0000,  0.0000)
   3 Li     1.617037    4.851111   10.000000    ( 0.0000,  0.0000,  0.0000)
   4 Li     4.851111    4.851111   10.000000    ( 0.0000,  0.0000,  0.0000)
   5 Li     8.085185    4.851111   10.000000    ( 0.0000,  0.0000,  0.0000)
   6 Li     1.617037    8.085185   10.000000    ( 0.0000,  0.0000,  0.0000)
   7 Li     4.851111    8.085185   10.000000    ( 0.0000,  0.0000,  0.0000)
   8 Li     8.085185    8.085185   10.000000    ( 0.0000,  0.0000,  0.0000)
   9 Li     0.000000    0.000000   11.617037    ( 0.0000,  0.0000,  0.0000)
  10 Li     3.234074    0.000000   11.617037    ( 0.0000,  0.0000,  0.0000)
  11 Li     6.468148    0.000000   11.617037    ( 0.0000,  0.0000,  0.0000)
  12 Li     0.000000    3.234074   11.617037    ( 0.0000,  0.0000,  0.0000)
  13 Li     3.234074    3.234074   11.617037    ( 0.0000,  0.0000,  0.0000)
  14 Li     6.468148    3.234074   11.617037    ( 0.0000,  0.0000,  0.0000)
  15 Li     0.000000    6.468148   11.617037    ( 0.0000,  0.0000,  0.0000)
  16 Li     3.234074    6.468148   11.617037    ( 0.0000,  0.0000,  0.0000)
  17 Li     6.468148    6.468148   11.617037    ( 0.0000,  0.0000,  0.0000)
  18 Li     1.617038    1.617038   13.469728    ( 0.0000,  0.0000,  0.0000)
  19 Li     4.851111    1.617038   13.469729    ( 0.0000,  0.0000,  0.0000)
  20 Li     8.085184    1.617038   13.469728    ( 0.0000,  0.0000,  0.0000)
  21 Li     1.617038    4.851111   13.469729    ( 0.0000,  0.0000,  0.0000)
  22 Li     4.851111    4.851111   13.469730    ( 0.0000,  0.0000,  0.0000)
  23 Li     8.085184    4.851111   13.469729    ( 0.0000,  0.0000,  0.0000)
  24 Li     1.617038    8.085184   13.469728    ( 0.0000,  0.0000,  0.0000)
  25 Li     4.851111    8.085184   13.469729    ( 0.0000,  0.0000,  0.0000)
  26 Li     8.085184    8.085184   13.469728    ( 0.0000,  0.0000,  0.0000)
  27 Li    -0.000000   -0.000000   15.445939    ( 0.0000,  0.0000,  0.0000)
  28 Li     3.234074    0.000000   15.445939    ( 0.0000,  0.0000,  0.0000)
  29 Li     6.468148    0.000000   15.445939    ( 0.0000,  0.0000,  0.0000)
  30 Li     0.000000    3.234074   15.445939    ( 0.0000,  0.0000,  0.0000)
  31 Li     3.234076    3.234076   15.445938    ( 0.0000,  0.0000,  0.0000)
  32 Li     6.468146    3.234076   15.445938    ( 0.0000,  0.0000,  0.0000)
  33 Li     0.000000    6.468148   15.445939    ( 0.0000,  0.0000,  0.0000)
  34 Li     3.234076    6.468146   15.445938    ( 0.0000,  0.0000,  0.0000)
  35 Li     6.468146    6.468146   15.445938    ( 0.0000,  0.0000,  0.0000)
  36 O      9.702222    9.702222   18.445939    ( 0.0000,  0.0000,  0.0000)
  37 C      7.235163    9.689881   18.481765    ( 0.0000,  0.0000,  0.0000)
  38 C      5.965601   10.544933   18.468355    ( 0.0000,  0.0000,  0.0000)
  39 C      8.517739   10.512701   18.446147    ( 0.0000,  0.0000,  0.0000)
  40 C      4.692891    9.693947   18.452726    ( 0.0000,  0.0000,  0.0000)
  41 H      7.249961    9.056712   19.375259    ( 0.0000,  0.0000,  0.0000)
  42 H      7.221846    9.019693   17.610409    ( 0.0000,  0.0000,  0.0000)
  43 H      5.978563   11.204008   17.592145    ( 0.0000,  0.0000,  0.0000)
  44 H      5.960698   11.201097   19.346325    ( 0.0000,  0.0000,  0.0000)
  45 H      8.511185   11.178268   17.572008    ( 0.0000,  0.0000,  0.0000)
  46 H      8.602255   11.136016   19.340765    ( 0.0000,  0.0000,  0.0000)
  47 H      4.665305    9.051467   17.568683    ( 0.0000,  0.0000,  0.0000)
  48 H      4.647574    9.043934   19.330177    ( 0.0000,  0.0000,  0.0000)
  49 H      3.789717   10.307673   18.446581    ( 0.0000,  0.0000,  0.0000)
  50 H      9.652912    9.113123   17.683760    ( 0.0000,  0.0000,  0.0000)
  51 N      9.702000    9.702000   16.945939    ( 0.0000,  0.0000,  0.0000)
  52 N      8.605378    9.702000   16.945939    ( 0.0000,  0.0000,  0.0000)

Unit cell:
           periodic     x           y           z      points  spacing
  1. axis:    yes    9.702222    0.000000    0.000000    60     0.1617
  2. axis:    yes    0.000000    9.702222    0.000000    60     0.1617
  3. axis:    no     0.000000    0.000000   26.351111   164     0.1607

  Lengths:   9.702222   9.702222  26.351111
  Angles:   90.000000  90.000000  90.000000

Effective grid spacing dv^(1/3) = 0.1614

     iter     time        total  log10-change:
                         energy  eigst   dens
iter:   1 10:03:40  -655.098625
iter:   2 10:03:51   -84.719617  +2.73  +0.02
iter:   3 10:04:05  -143.688238  +3.19  -0.21
iter:   4 10:04:13  -266.328450  +3.01  -0.35
Writing to output.gpw (mode='')

iter:   5 10:04:20  -314.390575  +2.65  -0.43
iter:   6 10:04:28  -355.863345  +2.31  -0.68
iter:   7 10:04:40  -374.420007  +1.97  -0.65
iter:   8 10:04:48  -382.878899  +1.80  -0.58
iter:   9 10:04:55  -403.025798  +1.84  -0.55
Writing to output.gpw (mode='')

iter:  10 10:05:03  -396.630923  +1.46  -0.54
iter:  11 10:05:10  -379.965171  +1.22  -0.54
iter:  12 10:05:17  -428.792965  +1.78  -0.58
iter:  13 10:05:25  -350.475271  +1.55  -0.42
iter:  14 10:05:32  -350.723516  +1.02  -0.71
Writing to output.gpw (mode='')

iter:  15 10:05:40  -345.786913  +1.13  -0.72
iter:  16 10:05:47  -345.237086  +0.95  -0.91
iter:  17 10:05:55  -345.614170  +0.66  -1.02
iter:  18 10:06:02  -345.223943  +0.06  -1.00
iter:  19 10:06:10  -344.547854  -0.04  -1.03
Writing to output.gpw (mode='')

iter:  20 10:06:17  -344.778259  +0.33  -1.15
iter:  21 10:06:24  -344.100535  -0.46  -1.21
iter:  22 10:06:32  -344.074421  -0.64  -1.42
iter:  23 10:06:39  -344.453731  -0.57  -1.51
iter:  24 10:06:47  -344.050941  -0.69  -1.38
Writing to output.gpw (mode='')

iter:  25 10:06:54  -344.018325  -1.04  -1.70
iter:  26 10:07:02  -344.017272c -0.95  -1.84
iter:  27 10:07:09  -344.022488c -1.12  -1.97
iter:  28 10:07:17  -344.018484c -1.37  -2.03
iter:  29 10:07:24  -344.021893c -1.71  -2.16
Writing to output.gpw (mode='')

iter:  30 10:07:32  -344.023953c -2.04  -2.23
iter:  31 10:07:39  -344.028479c -1.82  -2.28
iter:  32 10:07:47  -344.029092c -2.15  -2.41
iter:  33 10:07:54  -344.030535c -2.37  -2.52
iter:  34 10:08:02  -344.031581c -2.05  -2.58
Writing to output.gpw (mode='')

iter:  35 10:08:09  -344.033020c -2.52  -2.72
iter:  36 10:08:16  -344.033520c -2.52  -2.84
iter:  37 10:08:24  -344.033799c -2.63  -2.90
iter:  38 10:08:31  -344.034091c -2.74  -2.96
iter:  39 10:08:39  -344.034493c -3.03  -3.19
Writing to output.gpw (mode='')

iter:  40 10:08:46  -344.034636c -3.16  -3.29
iter:  41 10:08:54  -344.034993c -3.02  -3.28
iter:  42 10:09:01  -344.035112c -3.17  -3.51
iter:  43 10:09:09  -344.035219c -3.42  -3.61
iter:  44 10:09:16  -344.035308c -3.40  -3.62
Writing to output.gpw (mode='')

iter:  45 10:09:24  -344.035413c -3.48  -3.64
iter:  46 10:09:36  -344.035478c -3.63  -3.66
iter:  47 10:09:44  -344.035533c -3.75  -3.70
iter:  48 10:09:52  -344.035581c -3.83  -3.71
iter:  49 10:09:59  -344.035625c -3.89  -3.92
Writing to output.gpw (mode='')

iter:  50 10:10:07  -344.035680c -3.93  -3.93
iter:  51 10:10:14  -344.035697c -4.07  -3.96
iter:  52 10:10:22  -344.035720c -3.95  -4.01c
iter:  53 10:10:29  -344.035751c -4.13  -4.13c
iter:  54 10:10:37  -344.035762c -4.15  -4.14c
Writing to output.gpw (mode='')

iter:  55 10:10:44  -344.035776c -4.38  -4.13c
iter:  56 10:10:52  -344.035786c -4.34  -4.19c
iter:  57 10:10:59  -344.035797c -4.35  -4.25c
iter:  58 10:11:07  -344.035801c -4.65  -4.33c
iter:  59 10:11:14  -344.035810c -4.88  -4.56c
Writing to output.gpw (mode='')

iter:  60 10:11:22  -344.035815c -4.86  -4.58c
iter:  61 10:11:30  -344.035822c -4.64  -4.62c
iter:  62 10:11:37  -344.035825c -4.86  -4.73c
iter:  63 10:11:44  -344.035827c -5.09  -4.73c
iter:  64 10:11:52  -344.035832c -5.12  -4.69c
Writing to output.gpw (mode='')

iter:  65 10:12:00  -344.035831c -5.26  -4.42c
iter:  66 10:12:07  -344.035832c -5.30  -4.77c
iter:  67 10:12:15  -344.035834c -5.33  -4.70c
iter:  68 10:12:22  -344.035836c -5.38  -4.73c
iter:  69 10:12:30  -344.035836c -5.37  -4.57c
Writing to output.gpw (mode='')

iter:  70 10:12:37  -344.035837c -5.47  -4.74c
iter:  71 10:12:45  -344.035840c -5.36  -4.75c
iter:  72 10:12:52  -344.035840c -5.54  -4.60c
iter:  73 10:13:00  -344.035838c -5.54  -4.61c
iter:  74 10:13:07  -344.035841c -5.74  -4.71c
Writing to output.gpw (mode='')

iter:  75 10:13:15  -344.035841c -5.60  -4.62c
iter:  76 10:13:22  -344.035838c -5.82  -4.61c
iter:  77 10:13:30  -344.035840c -5.92  -4.67c
iter:  78 10:13:37  -344.035838c -6.00  -4.62c
iter:  79 10:13:45  -344.035838c -6.12  -4.70c
Writing to output.gpw (mode='')

iter:  80 10:13:52  -344.035837c -6.24  -4.82c
iter:  81 10:14:00  -344.035838c -6.17  -4.84c
iter:  82 10:14:07  -344.035838c -6.29  -5.24c
iter:  83 10:14:15  -344.035839c -6.26  -5.36c
iter:  84 10:14:22  -344.035838c -6.42  -5.49c
Writing to output.gpw (mode='')

iter:  85 10:14:36  -344.035838c -6.53  -5.55c
iter:  86 10:14:44  -344.035838c -6.55  -5.64c
iter:  87 10:14:52  -344.035838c -6.68  -5.72c
iter:  88 10:15:00  -344.035838c -6.68  -5.86c
iter:  89 10:15:07  -344.035838c -6.75  -6.03c
Writing to output.gpw (mode='')

iter:  90 10:15:14  -344.035838c -6.87  -6.08c
iter:  91 10:15:22  -344.035838c -6.92  -6.07c
iter:  92 10:15:29  -344.035838c -6.84  -6.02c
iter:  93 10:15:37  -344.035838c -7.01  -5.94c
iter:  94 10:15:44  -344.035838c -7.03  -5.89c
Writing to output.gpw (mode='')

iter:  95 10:15:52  -344.035838c -7.14  -5.81c
iter:  96 10:15:59  -344.035838c -7.20  -5.83c
iter:  97 10:16:07  -344.035838c -7.05  -5.81c
iter:  98 10:16:14  -344.035838c -7.22  -5.70c
iter:  99 10:16:22  -344.035838c -7.32  -5.74c
Writing to output.gpw (mode='')

iter: 100 10:16:29  -344.035838c -7.40  -5.70c
iter: 101 10:16:37  -344.035838c -7.49c -5.60c

Converged after 101 iterations.

Dipole moment: (-7.372868, -20.061707, 0.099501) |e|*Ang

Energy contributions relative to reference atoms: (reference = -16540.070923)

Kinetic:       +262.519954
Potential:     -228.900462
External:        +0.000000
XC:            -378.439610
Entropy (-ST):   -0.164972
Local:           +0.866766
--------------------------
Free energy:   -344.118324
Extrapolated:  -344.035838

Dipole-layer corrected work functions: 3.409780, 3.218504 eV

Showing only first 2 kpts
 Kpt  Band  Eigenvalues  Occupancy
  0    37     -3.54948    1.98210
  0    38     -3.45863    1.89468
  0    39     -3.23975    0.36852
  0    40     -3.07600    0.01694

  1    37     -3.40508    1.72086
  1    38     -3.30094    0.86878
  1    39     -3.24298    0.38832
  1    40     -3.19123    0.15767


Fermi level: -3.31414

No gap
Writing to output.gpw (mode='')


Forces in eV/Ang:
  0 Li    0.01036    0.00536   -0.27948
  1 Li   -0.00733   -0.00252   -0.26238
  2 Li   -0.00261    0.01157   -0.27881
  3 Li   -0.00222   -0.00241   -0.27067
  4 Li    0.00156    0.00222   -0.28262
  5 Li   -0.00167    0.00153   -0.26590
  6 Li    0.01376   -0.00117   -0.27744
  7 Li   -0.00289   -0.00052   -0.27113
  8 Li   -0.00772   -0.01198   -0.28047
  9 Li   -0.00382   -0.00071    0.33407
 10 Li    0.00016   -0.00081    0.24906
 11 Li   -0.00146    0.00102    0.27789
 12 Li    0.00394    0.01328    0.26061
 13 Li    0.00484   -0.00281    0.25739
 14 Li   -0.00370    0.01079    0.25442
 15 Li   -0.00193   -0.01631    0.25912
 16 Li    0.00523    0.00374    0.25393
 17 Li   -0.00357   -0.00746    0.25915
 18 Li    0.00789    0.00470   -0.00703
 19 Li    0.01025   -0.02109    0.06035
 20 Li   -0.01973    0.03831   -0.06429
 21 Li   -0.00024    0.01145    0.04214
 22 Li   -0.00907   -0.00898    0.01997
 23 Li    0.00655   -0.00270    0.07724
 24 Li    0.00859   -0.01876   -0.02922
 25 Li    0.00430    0.02644    0.06468
 26 Li   -0.00935   -0.03819   -0.07074
 27 Li    0.69448    0.08906   -7.07079
 28 Li   -0.02501    0.01347   -0.06179
 29 Li    0.32483   -0.00064    0.01647
 30 Li    0.04149    0.10477   -0.05924
 31 Li   -0.00618    0.02413   -0.03924
 32 Li   -0.02767    0.08142   -0.09270
 33 Li    0.00891   -0.12911   -0.07544
 34 Li    0.01728   -0.03540   -0.04742
 35 Li   -0.03249   -0.08146   -0.05093
 36 O     4.96845    5.03566   17.37164
 37 C    -2.35114    0.04112    2.18548
 38 C    -0.08305   -0.02222    0.49503
 39 C    -2.30659    1.62126    4.29511
 40 C     0.02953    0.11861    0.13401
 41 H    -0.05395    0.02829    0.22335
 42 H    -0.97197   -0.26768    1.30544
 43 H    -0.02736    0.07063   -0.10012
 44 H    -0.06548    0.08855   -0.01825
 45 H    -0.26410    1.44265    1.32712
 46 H     0.21952   -0.15420    0.88442
 47 H     0.01124   -0.11524   -0.05545
 48 H    -0.00689   -0.02817    0.00401
 49 H    -0.03827    0.06741    0.01461
 50 H     1.31424  -11.14521    5.80192
 51 N    11.74267    4.08756  -10.55564
 52 N   -13.05048   -0.91951  -15.84239

System changes: positions 

Initializing position-dependent things.

Density initialized from wave functions
       .-----------------------.  
      /|                       |  
     / |                       |  
    /  |                       |  
   /   |                       |  
  /    |                       |  
 *     |                       |  
 |     |                       |  
 |     |                       |  
 |     |          H      H     |  
 |     |           C     C     |  
 |     |          H     H   N  H  
 |     |                       |  
 |     |               Li      |  
 |     |         H     H       |  
 |   Li|   H Li C    LiC       |  
 O     |         H     H       |  
 N Li  |  LLi     LLi     Li   |  
 |     |                       |  
 Li    |LLi     Li      Li     |  
 |   Li|     Li      Li        |  
 |    Li  Li  Li  Li  Li  Li   |  
 | Li  |   Li      Li          |  
 |     |Li      Li      Li     |  
 Li    | Li      Li            |  
 |    Li      Li      Li       |  
 |     |                       |  
 |     |                       |  
 |     |                       |  
 |     |                       |  
 |     |                       |  
 |     |                       |  
 |     .-----------------------.  
 |    /                       /   
 |   /                       /    
 |  /                       /     
 | /                       /      
 |/                       /       
 *-----------------------*        

Positions:
   0 Li     1.617037    1.617037   10.000000    ( 0.0000,  0.0000,  0.0000)
   1 Li     4.851111    1.617037   10.000000    ( 0.0000,  0.0000,  0.0000)
   2 Li     8.085185    1.617037   10.000000    ( 0.0000,  0.0000,  0.0000)
   3 Li     1.617037    4.851111   10.000000    ( 0.0000,  0.0000,  0.0000)
   4 Li     4.851111    4.851111   10.000000    ( 0.0000,  0.0000,  0.0000)
   5 Li     8.085185    4.851111   10.000000    ( 0.0000,  0.0000,  0.0000)
   6 Li     1.617037    8.085185   10.000000    ( 0.0000,  0.0000,  0.0000)
   7 Li     4.851111    8.085185   10.000000    ( 0.0000,  0.0000,  0.0000)
   8 Li     8.085185    8.085185   10.000000    ( 0.0000,  0.0000,  0.0000)
   9 Li     0.000000    0.000000   11.617037    ( 0.0000,  0.0000,  0.0000)
  10 Li     3.234074    0.000000   11.617037    ( 0.0000,  0.0000,  0.0000)
  11 Li     6.468148    0.000000   11.617037    ( 0.0000,  0.0000,  0.0000)
  12 Li     0.000000    3.234074   11.617037    ( 0.0000,  0.0000,  0.0000)
  13 Li     3.234074    3.234074   11.617037    ( 0.0000,  0.0000,  0.0000)
  14 Li     6.468148    3.234074   11.617037    ( 0.0000,  0.0000,  0.0000)
  15 Li     0.000000    6.468148   11.617037    ( 0.0000,  0.0000,  0.0000)
  16 Li     3.234074    6.468148   11.617037    ( 0.0000,  0.0000,  0.0000)
  17 Li     6.468148    6.468148   11.617037    ( 0.0000,  0.0000,  0.0000)
  18 Li     1.617053    1.617047   13.469714    ( 0.0000,  0.0000,  0.0000)
  19 Li     4.851131    1.616997   13.469847    ( 0.0000,  0.0000,  0.0000)
  20 Li     8.085145    1.617113   13.469603    ( 0.0000,  0.0000,  0.0000)
  21 Li     1.617038    4.851133   13.469811    ( 0.0000,  0.0000,  0.0000)
  22 Li     4.851093    4.851094   13.469769    ( 0.0000,  0.0000,  0.0000)
  23 Li     8.085196    4.851106   13.469880    ( 0.0000,  0.0000,  0.0000)
  24 Li     1.617055    8.085147   13.469671    ( 0.0000,  0.0000,  0.0000)
  25 Li     4.851119    8.085235   13.469855    ( 0.0000,  0.0000,  0.0000)
  26 Li     8.085166    8.085110   13.469590    ( 0.0000,  0.0000,  0.0000)
  27 Li     0.001352    0.000173   15.432174    ( 0.0000,  0.0000,  0.0000)
  28 Li     3.234025    0.000026   15.445819    ( 0.0000,  0.0000,  0.0000)
  29 Li     6.468781   -0.000001   15.445971    ( 0.0000,  0.0000,  0.0000)
  30 Li     0.000081    3.234278   15.445823    ( 0.0000,  0.0000,  0.0000)
  31 Li     3.234064    3.234123   15.445862    ( 0.0000,  0.0000,  0.0000)
  32 Li     6.468092    3.234235   15.445758    ( 0.0000,  0.0000,  0.0000)
  33 Li     0.000017    6.467897   15.445792    ( 0.0000,  0.0000,  0.0000)
  34 Li     3.234110    6.468077   15.445846    ( 0.0000,  0.0000,  0.0000)
  35 Li     6.468082    6.467987   15.445839    ( 0.0000,  0.0000,  0.0000)
  36 O      9.711895    9.712026   18.479759    ( 0.0000,  0.0000,  0.0000)
  37 C      7.230585    9.689961   18.486020    ( 0.0000,  0.0000,  0.0000)
  38 C      5.965440   10.544890   18.469318    ( 0.0000,  0.0000,  0.0000)
  39 C      8.513248   10.515858   18.454508    ( 0.0000,  0.0000,  0.0000)
  40 C      4.692949    9.694178   18.452987    ( 0.0000,  0.0000,  0.0000)
  41 H      7.249856    9.056767   19.375693    ( 0.0000,  0.0000,  0.0000)
  42 H      7.219954    9.019172   17.612950    ( 0.0000,  0.0000,  0.0000)
  43 H      5.978509   11.204146   17.591950    ( 0.0000,  0.0000,  0.0000)
  44 H      5.960571   11.201269   19.346289    ( 0.0000,  0.0000,  0.0000)
  45 H      8.510671   11.181076   17.574591    ( 0.0000,  0.0000,  0.0000)
  46 H      8.602682   11.135715   19.342487    ( 0.0000,  0.0000,  0.0000)
  47 H      4.665327    9.051243   17.568575    ( 0.0000,  0.0000,  0.0000)
  48 H      4.647560    9.043879   19.330185    ( 0.0000,  0.0000,  0.0000)
  49 H      3.789642   10.307804   18.446609    ( 0.0000,  0.0000,  0.0000)
  50 H      9.655470    9.091425   17.695055    ( 0.0000,  0.0000,  0.0000)
  51 N      9.724861    9.709958   16.925389    ( 0.0000,  0.0000,  0.0000)
  52 N      8.579971    9.700210   16.915097    ( 0.0000,  0.0000,  0.0000)

Unit cell:
           periodic     x           y           z      points  spacing
  1. axis:    yes    9.702222    0.000000    0.000000    60     0.1617
  2. axis:    yes    0.000000    9.702222    0.000000    60     0.1617
  3. axis:    no     0.000000    0.000000   26.351111   164     0.1607

  Lengths:   9.702222   9.702222  26.351111
  Angles:   90.000000  90.000000  90.000000

Effective grid spacing dv^(1/3) = 0.1614

     iter     time        total  log10-change:
                         energy  eigst   dens
iter:   1 10:16:46  -347.859898  -0.28
iter:   2 10:16:54  -346.652494  -0.45  -1.33
iter:   3 10:17:01  -346.375494  -0.71  -1.35
iter:   4 10:17:09  -346.528631  -0.66  -1.62
Writing to output.gpw (mode='')

iter:   5 10:17:19  -346.355899  -1.00  -1.64
iter:   6 10:17:27  -346.381519  -1.15  -1.69
iter:   7 10:17:35  -346.283080  -1.10  -1.64
iter:   8 10:17:42  -346.246998  -1.90  -1.89
iter:   9 10:17:50  -346.214774  -2.11  -1.99
Writing to output.gpw (mode='')

iter:  10 10:17:57  -346.254242  -2.08  -2.20
iter:  11 10:18:05  -346.208815  -2.09  -1.96
iter:  12 10:18:12  -346.205088  -2.39  -2.38
iter:  13 10:18:20  -346.203582c -2.77  -2.60
iter:  14 10:18:27  -346.203701c -3.27  -2.94
Writing to output.gpw (mode='')

iter:  15 10:18:35  -346.203792c -3.49  -2.95
iter:  16 10:18:42  -346.203745c -2.93  -3.02
iter:  17 10:18:50  -346.203832c -3.69  -2.92
iter:  18 10:18:57  -346.203859c -4.15  -3.16
iter:  19 10:19:05  -346.203907c -3.87  -3.21
Writing to output.gpw (mode='')

iter:  20 10:19:12  -346.203868c -4.74  -3.43
iter:  21 10:19:20  -346.203888c -4.27  -3.44
iter:  22 10:19:27  -346.203868c -4.57  -3.46
iter:  23 10:19:41  -346.203870c -4.67  -3.56
iter:  24 10:19:48  -346.203873c -5.02  -3.73
Writing to output.gpw (mode='')

iter:  25 10:19:55  -346.203863c -4.93  -3.77
iter:  26 10:20:03  -346.203877c -5.12  -3.91
iter:  27 10:20:11  -346.203876c -5.33  -3.95
iter:  28 10:20:18  -346.203872c -5.49  -4.01c
iter:  29 10:20:26  -346.203868c -5.39  -4.08c
Writing to output.gpw (mode='')

iter:  30 10:20:33  -346.203871c -5.86  -4.09c
iter:  31 10:20:41  -346.203870c -5.81  -4.08c
iter:  32 10:20:48  -346.203873c -5.75  -4.12c
iter:  33 10:20:56  -346.203871c -6.15  -4.14c
iter:  34 10:21:03  -346.203870c -6.17  -4.17c
Writing to output.gpw (mode='')

iter:  35 10:21:11  -346.203865c -6.06  -4.15c
iter:  36 10:21:18  -346.203870c -6.28  -4.16c
iter:  37 10:21:26  -346.203863c -6.39  -4.27c
iter:  38 10:21:33  -346.203865c -6.15  -4.37c
iter:  39 10:21:41  -346.203866c -6.73  -4.49c
Writing to output.gpw (mode='')

iter:  40 10:21:48  -346.203864c -6.63  -4.50c
iter:  41 10:21:56  -346.203866c -6.74  -4.66c
iter:  42 10:22:03  -346.203867c -7.07  -4.77c
iter:  43 10:22:11  -346.203864c -6.81  -4.78c
iter:  44 10:22:18  -346.203868c -7.26  -4.93c
Writing to output.gpw (mode='')

iter:  45 10:22:26  -346.203867c -7.49c -5.06c

Converged after 45 iterations.

Dipole moment: (-10.517551, -21.583440, 0.053509) |e|*Ang

Energy contributions relative to reference atoms: (reference = -16540.070923)

Kinetic:       +248.346195
Potential:     -219.295477
External:        +0.000000
XC:            -376.042570
Entropy (-ST):   -0.165505
Local:           +0.870737
--------------------------
Free energy:   -346.286619
Extrapolated:  -346.203867

Dipole-layer corrected work functions: 3.413281, 3.310419 eV

Showing only first 2 kpts
 Kpt  Band  Eigenvalues  Occupancy
  0    37     -3.58219    1.97591
  0    38     -3.49750    1.87557
  0    39     -3.30546    0.48911
  0    40     -3.11512    0.01428

  1    37     -3.46125    1.75908
  1    38     -3.34460    0.82915
  1    39     -3.27530    0.30092
  1    40     -3.23311    0.14155


Fermi level: -3.36185

No gap

Forces in eV/Ang:
  0 Li    0.01130    0.00577   -0.28122
  1 Li   -0.00712   -0.00257   -0.26237
  2 Li   -0.00379    0.01184   -0.28050
  3 Li   -0.00214   -0.00183   -0.26997
  4 Li    0.00159    0.00235   -0.28402
  5 Li   -0.00166    0.00135   -0.26517
  6 Li    0.01488   -0.00188   -0.27989
  7 Li   -0.00328   -0.00027   -0.27130
  8 Li   -0.00812   -0.01195   -0.28262
  9 Li   -0.00323   -0.00036    0.34050
 10 Li    0.00076   -0.00085    0.24938
 11 Li   -0.00300    0.00104    0.27914
 12 Li    0.00367    0.01123    0.26394
 13 Li    0.00524   -0.00073    0.25660
 14 Li   -0.00349    0.01183    0.25479
 15 Li   -0.00240   -0.01463    0.26106
 16 Li    0.00450    0.00116    0.25378
 17 Li   -0.00288   -0.00837    0.26028
 18 Li    0.01528    0.00861   -0.02302
 19 Li    0.00789   -0.02124    0.05760
 20 Li   -0.02431    0.03850   -0.07330
 21 Li   -0.00456    0.01104    0.04726
 22 Li   -0.00741   -0.00981    0.02023
 23 Li    0.00845   -0.00315    0.08047
 24 Li    0.01445   -0.02274   -0.04496
 25 Li    0.00301    0.02647    0.06390
 26 Li   -0.01253   -0.03903   -0.08126
 27 Li    0.62659    0.08108   -7.24653
 28 Li   -0.02867    0.01364   -0.04834
 29 Li    0.38027    0.00610    0.06497
 30 Li    0.03946    0.09268   -0.04606
 31 Li   -0.00292    0.02818   -0.04070
 32 Li   -0.02959    0.07883   -0.08815
 33 Li    0.00610   -0.11629   -0.06171
 34 Li    0.02052   -0.03921   -0.04845
 35 Li   -0.03422   -0.08346   -0.04889
 36 O     3.29010    4.10173   13.64169
 37 C    -2.05534    0.00785    1.97562
 38 C    -0.12540    0.00404    0.46245
 39 C    -1.66312    1.27425    3.86483
 40 C     0.00753    0.11901    0.12077
 41 H    -0.07807   -0.02046    0.31197
 42 H    -0.93626   -0.22894    1.35995
 43 H    -0.01882    0.05407   -0.07687
 44 H    -0.07795    0.10548    0.00021
 45 H    -0.23897    1.18590    1.38919
 46 H     0.09382   -0.00332    0.99587
 47 H     0.01499   -0.10687   -0.04587
 48 H    -0.00960   -0.02611    0.00209
 49 H    -0.04330    0.06219    0.01824
 50 H     1.19645   -8.01725    4.56577
 51 N     6.19614    2.32517   -7.00951
 52 N    -6.55049   -0.90422  -14.01531

System changes: positions 

Initializing position-dependent things.

Density initialized from wave functions
       .-----------------------.  
      /|                       |  
     / |                       |  
    /  |                       |  
   /   |                       |  
  /    |                       |  
 *     |                       |  
 |     |                       |  
 |     |                       |  
 |     |          H      H     |  
 |     |           C     C     |  
 |     |          H     H      H  
 |     |                    N  |  
 |     |                       |  
 |     |         H     H       |  
 |   Li|   H Li C    LiC       |  
 O     |         H     H       |  
 N Li  |  LLi     LLi     Li   |  
 |     |                       |  
 Li    |LLi     LLi     Li     |  
 |   Li|     Li      Li        |  
 |    Li  Li  Li  Li  Li  Li   |  
 | Li  |   Li      Li          |  
 |     |Li      Li      Li     |  
 Li    | Li      Li            |  
 |    Li      Li      Li       |  
 |     |                       |  
 |     |                       |  
 |     |                       |  
 |     |                       |  
 |     |                       |  
 |     |                       |  
 |     .-----------------------.  
 |    /                       /   
 |   /                       /    
 |  /                       /     
 | /                       /      
 |/                       /       
 *-----------------------*        

Positions:
   0 Li     1.617037    1.617037   10.000000    ( 0.0000,  0.0000,  0.0000)
   1 Li     4.851111    1.617037   10.000000    ( 0.0000,  0.0000,  0.0000)
   2 Li     8.085185    1.617037   10.000000    ( 0.0000,  0.0000,  0.0000)
   3 Li     1.617037    4.851111   10.000000    ( 0.0000,  0.0000,  0.0000)
   4 Li     4.851111    4.851111   10.000000    ( 0.0000,  0.0000,  0.0000)
   5 Li     8.085185    4.851111   10.000000    ( 0.0000,  0.0000,  0.0000)
   6 Li     1.617037    8.085185   10.000000    ( 0.0000,  0.0000,  0.0000)
   7 Li     4.851111    8.085185   10.000000    ( 0.0000,  0.0000,  0.0000)
   8 Li     8.085185    8.085185   10.000000    ( 0.0000,  0.0000,  0.0000)
   9 Li     0.000000    0.000000   11.617037    ( 0.0000,  0.0000,  0.0000)
  10 Li     3.234074    0.000000   11.617037    ( 0.0000,  0.0000,  0.0000)
  11 Li     6.468148    0.000000   11.617037    ( 0.0000,  0.0000,  0.0000)
  12 Li     0.000000    3.234074   11.617037    ( 0.0000,  0.0000,  0.0000)
  13 Li     3.234074    3.234074   11.617037    ( 0.0000,  0.0000,  0.0000)
  14 Li     6.468148    3.234074   11.617037    ( 0.0000,  0.0000,  0.0000)
  15 Li     0.000000    6.468148   11.617037    ( 0.0000,  0.0000,  0.0000)
  16 Li     3.234074    6.468148   11.617037    ( 0.0000,  0.0000,  0.0000)
  17 Li     6.468148    6.468148   11.617037    ( 0.0000,  0.0000,  0.0000)
  18 Li     1.617135    1.617092   13.469571    ( 0.0000,  0.0000,  0.0000)
  19 Li     4.851148    1.616925   13.470029    ( 0.0000,  0.0000,  0.0000)
  20 Li     8.085045    1.617243   13.469319    ( 0.0000,  0.0000,  0.0000)
  21 Li     1.617005    4.851169   13.469991    ( 0.0000,  0.0000,  0.0000)
  22 Li     4.851075    4.851057   13.469838    ( 0.0000,  0.0000,  0.0000)
  23 Li     8.085233    4.851093   13.470164    ( 0.0000,  0.0000,  0.0000)
  24 Li     1.617127    8.085055   13.469455    ( 0.0000,  0.0000,  0.0000)
  25 Li     4.851124    8.085324   13.470067    ( 0.0000,  0.0000,  0.0000)
  26 Li     8.085111    8.084975   13.469274    ( 0.0000,  0.0000,  0.0000)
  27 Li     0.003180    0.000413   15.407097    ( 0.0000,  0.0000,  0.0000)
  28 Li     3.233914    0.000073   15.445711    ( 0.0000,  0.0000,  0.0000)
  29 Li     6.470286    0.000047   15.446388    ( 0.0000,  0.0000,  0.0000)
  30 Li     0.000205    3.234540   15.445723    ( 0.0000,  0.0000,  0.0000)
  31 Li     3.234068    3.234235   15.445719    ( 0.0000,  0.0000,  0.0000)
  32 Li     6.467984    3.234489   15.445480    ( 0.0000,  0.0000,  0.0000)
  33 Li     0.000026    6.467559   15.445641    ( 0.0000,  0.0000,  0.0000)
  34 Li     3.234192    6.467929   15.445679    ( 0.0000,  0.0000,  0.0000)
  35 Li     6.467960    6.467698   15.445683    ( 0.0000,  0.0000,  0.0000)
  36 O      9.716076    9.721985   18.510327    ( 0.0000,  0.0000,  0.0000)
  37 C      7.224889    9.689851   18.491800    ( 0.0000,  0.0000,  0.0000)
  38 C      5.964845   10.545011   18.470739    ( 0.0000,  0.0000,  0.0000)
  39 C      8.510295   10.518719   18.465736    ( 0.0000,  0.0000,  0.0000)
  40 C      4.692884    9.694580   18.453338    ( 0.0000,  0.0000,  0.0000)
  41 H      7.249495    9.056498   19.377105    ( 0.0000,  0.0000,  0.0000)
  42 H      7.216953    9.018561   17.617745    ( 0.0000,  0.0000,  0.0000)
  43 H      5.978481   11.204260   17.591787    ( 0.0000,  0.0000,  0.0000)
  44 H      5.960258   11.201693   19.346366    ( 0.0000,  0.0000,  0.0000)
  45 H      8.509971   11.184010   17.579515    ( 0.0000,  0.0000,  0.0000)
  46 H      8.602482   11.136322   19.346291    ( 0.0000,  0.0000,  0.0000)
  47 H      4.665392    9.050918   17.568460    ( 0.0000,  0.0000,  0.0000)
  48 H      4.647517    9.043800   19.330184    ( 0.0000,  0.0000,  0.0000)
  49 H      3.789476   10.307992   18.446686    ( 0.0000,  0.0000,  0.0000)
  50 H      9.659009    9.077295   17.705336    ( 0.0000,  0.0000,  0.0000)
  51 N      9.722960    9.710551   16.916360    ( 0.0000,  0.0000,  0.0000)
  52 N      8.584588    9.697233   16.875476    ( 0.0000,  0.0000,  0.0000)

Unit cell:
           periodic     x           y           z      points  spacing
  1. axis:    yes    9.702222    0.000000    0.000000    60     0.1617
  2. axis:    yes    0.000000    9.702222    0.000000    60     0.1617
  3. axis:    no     0.000000    0.000000   26.351111   164     0.1607

  Lengths:   9.702222   9.702222  26.351111
  Angles:   90.000000  90.000000  90.000000

Effective grid spacing dv^(1/3) = 0.1614

     iter     time        total  log10-change:
                         energy  eigst   dens
iter:   1 10:22:35  -347.657966  -0.71
iter:   2 10:22:42  -347.652608  -1.17  -2.02
iter:   3 10:22:50  -347.647997c -1.51  -2.04
iter:   4 10:22:57  -347.615737c -1.41  -2.09
Writing to output.gpw (mode='')

iter:   5 10:23:05  -347.614651c -2.05  -2.23
iter:   6 10:23:12  -347.614844c -2.26  -2.45
iter:   7 10:23:20  -347.612529c -2.25  -2.42
iter:   8 10:23:27  -347.611592c -2.18  -2.49
iter:   9 10:23:35  -347.610991c -2.32  -2.54
Writing to output.gpw (mode='')

iter:  10 10:23:42  -347.610965c -2.77  -2.81
iter:  11 10:23:50  -347.610524c -3.15  -2.93
iter:  12 10:23:57  -347.610726c -2.90  -3.06
iter:  13 10:24:05  -347.610799c -3.01  -2.97
iter:  14 10:24:12  -347.610869c -3.39  -3.21
Writing to output.gpw (mode='')

iter:  15 10:24:20  -347.610528c -3.49  -3.19
iter:  16 10:24:27  -347.610518c -4.15  -3.38
iter:  17 10:24:39  -347.610497c -4.01  -3.49
iter:  18 10:24:47  -347.610512c -4.68  -3.56
iter:  19 10:24:54  -347.610498c -4.52  -3.63
Writing to output.gpw (mode='')

iter:  20 10:25:02  -347.610506c -4.69  -3.79
iter:  21 10:25:09  -347.610502c -4.97  -3.80
iter:  22 10:25:17  -347.610503c -5.17  -3.80
iter:  23 10:25:24  -347.610496c -5.31  -3.86
iter:  24 10:25:32  -347.610497c -5.25  -3.98
Writing to output.gpw (mode='')

iter:  25 10:25:39  -347.610492c -5.40  -4.08c
iter:  26 10:25:47  -347.610495c -5.45  -4.12c
iter:  27 10:25:54  -347.610495c -6.00  -4.20c
iter:  28 10:26:02  -347.610500c -5.86  -4.32c
iter:  29 10:26:09  -347.610500c -5.79  -4.61c
Writing to output.gpw (mode='')

iter:  30 10:26:17  -347.610500c -6.24  -4.72c
iter:  31 10:26:24  -347.610500c -6.44  -4.73c
iter:  32 10:26:32  -347.610502c -6.19  -4.71c
iter:  33 10:26:39  -347.610501c -6.43  -4.55c
iter:  34 10:26:47  -347.610501c -6.26  -4.69c
Writing to output.gpw (mode='')

iter:  35 10:26:54  -347.610501c -6.83  -4.69c
iter:  36 10:27:02  -347.610500c -6.77  -4.69c
iter:  37 10:27:09  -347.610499c -6.54  -4.71c
iter:  38 10:27:17  -347.610499c -6.56  -4.74c
iter:  39 10:27:24  -347.610499c -7.21  -4.78c
Writing to output.gpw (mode='')

iter:  40 10:27:32  -347.610497c -6.90  -4.78c
iter:  41 10:27:39  -347.610498c -7.40c -4.90c

Converged after 41 iterations.

Dipole moment: (-10.804780, -22.191750, 0.053253) |e|*Ang

Energy contributions relative to reference atoms: (reference = -16540.070923)

Kinetic:       +243.016246
Potential:     -216.293389
External:        +0.000000
XC:            -375.121410
Entropy (-ST):   -0.163130
Local:           +0.869620
--------------------------
Free energy:   -347.692063
Extrapolated:  -347.610498

Dipole-layer corrected work functions: 3.413744, 3.311373 eV

Showing only first 2 kpts
 Kpt  Band  Eigenvalues  Occupancy
  0    37     -3.58265    1.97579
  0    38     -3.49898    1.87736
  0    39     -3.29945    0.44119
  0    40     -3.11316    0.01355

  1    37     -3.46323    1.76441
  1    38     -3.34675    0.84324
  1    39     -3.27403    0.29095
  1    40     -3.23854    0.15448


Fermi level: -3.36256

No gap
Writing to output.gpw (mode='')


Forces in eV/Ang:
  0 Li    0.01092    0.00592   -0.28150
  1 Li   -0.00628   -0.00278   -0.26133
  2 Li   -0.00443    0.01209   -0.28048
  3 Li   -0.00231   -0.00125   -0.26910
  4 Li    0.00166    0.00260   -0.28541
  5 Li   -0.00160    0.00037   -0.26434
  6 Li    0.01556   -0.00194   -0.28108
  7 Li   -0.00365   -0.00001   -0.27087
  8 Li   -0.00826   -0.01144   -0.28309
  9 Li   -0.00319    0.00007    0.34502
 10 Li    0.00169   -0.00110    0.24849
 11 Li   -0.00420    0.00090    0.27808
 12 Li    0.00352    0.01049    0.26502
 13 Li    0.00647    0.00013    0.25462
 14 Li   -0.00432    0.01334    0.25370
 15 Li   -0.00230   -0.01418    0.26045
 16 Li    0.00348   -0.00034    0.25453
 17 Li   -0.00228   -0.00881    0.25964
 18 Li    0.02170    0.01249   -0.03056
 19 Li    0.00729   -0.02063    0.05715
 20 Li   -0.02875    0.04087   -0.07242
 21 Li   -0.00627    0.00976    0.04948
 22 Li   -0.00634   -0.01088    0.01873
 23 Li    0.00910   -0.00183    0.08005
 24 Li    0.01772   -0.02622   -0.05012
 25 Li    0.00396    0.02617    0.06512
 26 Li   -0.01615   -0.04267   -0.08771
 27 Li    0.69276    0.10041   -6.85976
 28 Li   -0.02679    0.01383   -0.04871
 29 Li    0.38043    0.01251    0.06057
 30 Li    0.03330    0.09001   -0.04655
 31 Li   -0.00281    0.02864   -0.04164
 32 Li   -0.02510    0.07328   -0.08741
 33 Li    0.00723   -0.12086   -0.06455
 34 Li    0.02021   -0.03950   -0.04738
 35 Li   -0.03555   -0.08473   -0.05029
 36 O     2.17204    3.43633   11.54414
 37 C    -1.56563   -0.02691    1.59758
 38 C    -0.17490    0.03875    0.39715
 39 C    -1.24544    1.07235    3.61147
 40 C    -0.01670    0.10063    0.10801
 41 H    -0.10391   -0.07516    0.38232
 42 H    -0.83784   -0.16712    1.32640
 43 H    -0.01138    0.02956   -0.04017
 44 H    -0.08430    0.12134    0.02078
 45 H    -0.24133    0.91806    1.45655
 46 H    -0.04616    0.13697    1.04383
 47 H     0.01816   -0.08837   -0.02764
 48 H    -0.01301   -0.02485    0.00311
 49 H    -0.04478    0.05971    0.02036
 50 H     1.36337   -6.14996    4.41408
 51 N     6.03152    1.25370   -6.03794
 52 N    -6.16691   -0.67503  -12.56344

System changes: positions 

Initializing position-dependent things.

Density initialized from wave functions
       .-----------------------.  
      /|                       |  
     / |                       |  
    /  |                       |  
   /   |                       |  
  /    |                       |  
 *     |                       |  
 |     |                       |  
 |     |                       |  
 |     |          H      H     |  
 |     |           C     C     |  
 |     N          H     H      H  
 |     |                    N  |  
 |     |                       |  
 |     |         H     H       |  
 O   Li|   H Li C    LiC       |  
 |     |         H     H       |  
 | Li  |  LLi     LLi     Li   |  
 |     |                       |  
 Li    |LLi     LLi     Li     |  
 |   Li|     Li      Li        |  
 |    Li  Li  Li  Li  Li  Li   |  
 | Li  |   Li      Li          |  
 |     |Li      Li      Li     |  
 Li    | Li      Li            |  
 |    Li      Li      Li       |  
 |     |                       |  
 |     |                       |  
 |     |                       |  
 |     |                       |  
 |     |                       |  
 |     |                       |  
 |     .-----------------------.  
 |    /                       /   
 |   /                       /    
 |  /                       /     
 | /                       /      
 |/                       /       
 *-----------------------*        

Positions:
   0 Li     1.617037    1.617037   10.000000    ( 0.0000,  0.0000,  0.0000)
   1 Li     4.851111    1.617037   10.000000    ( 0.0000,  0.0000,  0.0000)
   2 Li     8.085185    1.617037   10.000000    ( 0.0000,  0.0000,  0.0000)
   3 Li     1.617037    4.851111   10.000000    ( 0.0000,  0.0000,  0.0000)
   4 Li     4.851111    4.851111   10.000000    ( 0.0000,  0.0000,  0.0000)
   5 Li     8.085185    4.851111   10.000000    ( 0.0000,  0.0000,  0.0000)
   6 Li     1.617037    8.085185   10.000000    ( 0.0000,  0.0000,  0.0000)
   7 Li     4.851111    8.085185   10.000000    ( 0.0000,  0.0000,  0.0000)
   8 Li     8.085185    8.085185   10.000000    ( 0.0000,  0.0000,  0.0000)
   9 Li     0.000000    0.000000   11.617037    ( 0.0000,  0.0000,  0.0000)
  10 Li     3.234074    0.000000   11.617037    ( 0.0000,  0.0000,  0.0000)
  11 Li     6.468148    0.000000   11.617037    ( 0.0000,  0.0000,  0.0000)
  12 Li     0.000000    3.234074   11.617037    ( 0.0000,  0.0000,  0.0000)
  13 Li     3.234074    3.234074   11.617037    ( 0.0000,  0.0000,  0.0000)
  14 Li     6.468148    3.234074   11.617037    ( 0.0000,  0.0000,  0.0000)
  15 Li     0.000000    6.468148   11.617037    ( 0.0000,  0.0000,  0.0000)
  16 Li     3.234074    6.468148   11.617037    ( 0.0000,  0.0000,  0.0000)
  17 Li     6.468148    6.468148   11.617037    ( 0.0000,  0.0000,  0.0000)
  18 Li     1.617305    1.617190   13.469321    ( 0.0000,  0.0000,  0.0000)
  19 Li     4.851168    1.616836   13.470274    ( 0.0000,  0.0000,  0.0000)
  20 Li     8.084867    1.617445   13.468964    ( 0.0000,  0.0000,  0.0000)
  21 Li     1.616948    4.851202   13.470250    ( 0.0000,  0.0000,  0.0000)
  22 Li     4.851060    4.850997   13.469914    ( 0.0000,  0.0000,  0.0000)
  23 Li     8.085285    4.851092   13.470535    ( 0.0000,  0.0000,  0.0000)
  24 Li     1.617252    8.084897   13.469134    ( 0.0000,  0.0000,  0.0000)
  25 Li     4.851144    8.085441   13.470367    ( 0.0000,  0.0000,  0.0000)
  26 Li     8.085001    8.084754   13.468793    ( 0.0000,  0.0000,  0.0000)
  27 Li     0.006516    0.000971   15.378064    ( 0.0000,  0.0000,  0.0000)
  28 Li     3.233792    0.000137   15.445539    ( 0.0000,  0.0000,  0.0000)
  29 Li     6.472217    0.000173   15.446814    ( 0.0000,  0.0000,  0.0000)
  30 Li     0.000306    3.234883   15.445558    ( 0.0000,  0.0000,  0.0000)
  31 Li     3.234068    3.234383   15.445519    ( 0.0000,  0.0000,  0.0000)
  32 Li     6.467895    3.234773   15.445107    ( 0.0000,  0.0000,  0.0000)
  33 Li     0.000056    6.467028   15.445381    ( 0.0000,  0.0000,  0.0000)
  34 Li     3.234294    6.467734   15.445468    ( 0.0000,  0.0000,  0.0000)
  35 Li     6.467784    6.467299   15.445453    ( 0.0000,  0.0000,  0.0000)
  36 O      9.711882    9.729434   18.534074    ( 0.0000,  0.0000,  0.0000)
  37 C      7.222295    9.689365   18.495632    ( 0.0000,  0.0000,  0.0000)
  38 C      5.963553   10.545525   18.471963    ( 0.0000,  0.0000,  0.0000)
  39 C      8.509960   10.520874   18.478713    ( 0.0000,  0.0000,  0.0000)
  40 C      4.692558    9.694910   18.453689    ( 0.0000,  0.0000,  0.0000)
  41 H      7.248756    9.055598   19.379654    ( 0.0000,  0.0000,  0.0000)
  42 H      7.213975    9.018377   17.623720    ( 0.0000,  0.0000,  0.0000)
  43 H      5.978513   11.204162   17.591946    ( 0.0000,  0.0000,  0.0000)
  44 H      5.959786   11.202415   19.346671    ( 0.0000,  0.0000,  0.0000)
  45 H      8.508957   11.185351   17.586804    ( 0.0000,  0.0000,  0.0000)
  46 H      8.600835   11.138477   19.351764    ( 0.0000,  0.0000,  0.0000)
  47 H      4.665510    9.050677   17.568496    ( 0.0000,  0.0000,  0.0000)
  48 H      4.647425    9.043704   19.330198    ( 0.0000,  0.0000,  0.0000)
  49 H      3.789244   10.308225   18.446806    ( 0.0000,  0.0000,  0.0000)
  50 H      9.665888    9.074106   17.719618    ( 0.0000,  0.0000,  0.0000)
  51 N      9.728271    9.702207   16.909069    ( 0.0000,  0.0000,  0.0000)
  52 N      8.583759    9.695818   16.835509    ( 0.0000,  0.0000,  0.0000)

Unit cell:
           periodic     x           y           z      points  spacing
  1. axis:    yes    9.702222    0.000000    0.000000    60     0.1617
  2. axis:    yes    0.000000    9.702222    0.000000    60     0.1617
  3. axis:    no     0.000000    0.000000   26.351111   164     0.1607

  Lengths:   9.702222   9.702222  26.351111
  Angles:   90.000000  90.000000  90.000000

Effective grid spacing dv^(1/3) = 0.1614

     iter     time        total  log10-change:
                         energy  eigst   dens
iter:   1 10:27:49  -348.819076  -0.84
iter:   2 10:27:56  -348.826252  -1.34  -2.11
iter:   3 10:28:04  -348.814971c -1.78  -2.02
iter:   4 10:28:11  -348.811194c -1.84  -2.32
Writing to output.gpw (mode='')

iter:   5 10:28:19  -348.804427c -1.75  -2.36
iter:   6 10:28:26  -348.804391c -2.30  -2.54
iter:   7 10:28:34  -348.804933c -2.33  -2.57
iter:   8 10:28:42  -348.804127c -2.81  -2.59
iter:   9 10:28:49  -348.804140c -2.78  -2.72
Writing to output.gpw (mode='')

iter:  10 10:28:57  -348.804455c -3.27  -2.98
iter:  11 10:29:04  -348.804358c -3.57  -3.14
iter:  12 10:29:12  -348.804357c -3.61  -3.31
iter:  13 10:29:20  -348.804336c -3.99  -3.35
iter:  14 10:29:27  -348.804347c -4.32  -3.51
Writing to output.gpw (mode='')

iter:  15 10:29:39  -348.804365c -4.03  -3.62
iter:  16 10:29:47  -348.804381c -4.27  -3.52
iter:  17 10:29:54  -348.804372c -4.24  -3.65
iter:  18 10:30:02  -348.804362c -4.83  -3.78
iter:  19 10:30:10  -348.804357c -4.71  -3.94
Writing to output.gpw (mode='')

iter:  20 10:30:17  -348.804355c -5.04  -4.14c
iter:  21 10:30:25  -348.804358c -5.23  -4.22c
iter:  22 10:30:32  -348.804355c -5.28  -4.27c
iter:  23 10:30:40  -348.804361c -5.41  -4.32c
iter:  24 10:30:47  -348.804361c -5.47  -4.30c
Writing to output.gpw (mode='')

iter:  25 10:30:55  -348.804362c -5.93  -4.39c
iter:  26 10:31:02  -348.804361c -5.61  -4.37c
iter:  27 10:31:10  -348.804362c -6.05  -4.51c
iter:  28 10:31:17  -348.804363c -5.93  -4.50c
iter:  29 10:31:25  -348.804364c -6.17  -4.52c
Writing to output.gpw (mode='')

iter:  30 10:31:32  -348.804365c -6.15  -4.52c
iter:  31 10:31:40  -348.804359c -6.25  -4.53c
iter:  32 10:31:47  -348.804360c -6.30  -4.50c
iter:  33 10:31:55  -348.804361c -6.39  -4.60c
iter:  34 10:32:02  -348.804364c -6.39  -4.71c
Writing to output.gpw (mode='')

iter:  35 10:32:10  -348.804364c -6.66  -4.81c
iter:  36 10:32:17  -348.804363c -6.70  -4.97c
iter:  37 10:32:25  -348.804362c -6.85  -5.08c
iter:  38 10:32:32  -348.804362c -7.30  -5.17c
iter:  39 10:32:40  -348.804362c -7.02  -5.27c
Writing to output.gpw (mode='')

iter:  40 10:32:47  -348.804363c -7.22  -5.46c
iter:  41 10:32:55  -348.804363c -7.39  -5.49c
iter:  42 10:33:02  -348.804363c -7.25  -5.50c
iter:  43 10:33:10  -348.804362c -7.78c -5.53c

Converged after 43 iterations.

Dipole moment: (-11.186732, -21.819342, 0.045832) |e|*Ang

Energy contributions relative to reference atoms: (reference = -16540.070923)

Kinetic:       +237.738707
Potential:     -213.037728
External:        +0.000000
XC:            -374.290099
Entropy (-ST):   -0.161274
Local:           +0.865395
--------------------------
Free energy:   -348.884999
Extrapolated:  -348.804362

Dipole-layer corrected work functions: 3.414607, 3.326503 eV

Showing only first 2 kpts
 Kpt  Band  Eigenvalues  Occupancy
  0    37     -3.58437    1.97259
  0    38     -3.50650    1.87626
  0    39     -3.30643    0.43422
  0    40     -3.11744    0.01258

  1    37     -3.47364    1.77426
  1    38     -3.35530    0.84866
  1    39     -3.27628    0.26354
  1    40     -3.24817    0.15921


Fermi level: -3.37056

No gap
Writing to output.gpw (mode='')


Forces in eV/Ang:
  0 Li    0.01082    0.00610   -0.28244
  1 Li   -0.00573   -0.00286   -0.26076
  2 Li   -0.00508    0.01212   -0.28114
  3 Li   -0.00220   -0.00067   -0.26875
  4 Li    0.00134    0.00286   -0.28693
  5 Li   -0.00158   -0.00056   -0.26343
  6 Li    0.01635   -0.00211   -0.28306
  7 Li   -0.00426    0.00017   -0.27075
  8 Li   -0.00851   -0.01077   -0.28413
  9 Li   -0.00323    0.00026    0.35043
 10 Li    0.00240   -0.00134    0.24753
 11 Li   -0.00518    0.00078    0.27872
 12 Li    0.00326    0.00953    0.26708
 13 Li    0.00725    0.00113    0.25282
 14 Li   -0.00482    0.01503    0.25318
 15 Li   -0.00222   -0.01316    0.26119
 16 Li    0.00303   -0.00185    0.25524
 17 Li   -0.00188   -0.00960    0.25930
 18 Li    0.02986    0.01673   -0.04089
 19 Li    0.00625   -0.02019    0.05558
 20 Li   -0.03321    0.04374   -0.07434
 21 Li   -0.00849    0.00883    0.05242
 22 Li   -0.00468   -0.01226    0.01804
 23 Li    0.00998   -0.00048    0.07982
 24 Li    0.02360   -0.03044   -0.06036
 25 Li    0.00468    0.02622    0.06603
 26 Li   -0.02073   -0.04681   -0.09611
 27 Li    0.71185    0.15557   -6.29094
 28 Li   -0.02678    0.01509   -0.04611
 29 Li    0.40238    0.02009    0.07068
 30 Li    0.02709    0.08371   -0.04305
 31 Li   -0.00210    0.02929   -0.04252
 32 Li   -0.02139    0.06896   -0.08510
 33 Li    0.00700   -0.12053   -0.06231
 34 Li    0.02134   -0.04135   -0.04729
 35 Li   -0.03729   -0.08579   -0.05089
 36 O     1.45912    3.13257   10.32898
 37 C    -1.26710    0.00939    1.44988
 38 C    -0.15540    0.02586    0.35340
 39 C    -1.04598    0.83550    3.19222
 40 C    -0.03256    0.08990    0.09862
 41 H    -0.12475   -0.09258    0.39318
 42 H    -0.72440   -0.15225    1.22331
 43 H    -0.01015    0.02159   -0.02242
 44 H    -0.09007    0.12989    0.03293
 45 H    -0.21931    0.69490    1.44768
 46 H    -0.13397    0.26997    1.11111
 47 H     0.01919   -0.07499   -0.01549
 48 H    -0.01634   -0.02351    0.00442
 49 H    -0.05284    0.05655    0.02138
 50 H     1.36803   -5.15370    4.09913
 51 N     4.81818    0.55363   -5.76692
 52 N    -4.90633   -0.41490  -11.28115

System changes: positions 

Initializing position-dependent things.

Density initialized from wave functions
       .-----------------------.  
      /|                       |  
     / |                       |  
    /  |                       |  
   /   |                       |  
  /    |                       |  
 *     |                       |  
 |     |                       |  
 |     |                       |  
 |     |          H      H     |  
 |     |           C     C     |  
 |     N          H     H      H  
 |     |                    N  |  
 |     |                       |  
 |     |         H     H       |  
 O   Li|   H Li C    LiC       |  
 |     |         H     H       |  
 | Li  |  LLi     LLi     Li   |  
 |     |                       |  
 Li    |LLi     LLi     Li     |  
 |   Li|     Li      Li        |  
 |    Li  Li  Li  Li  Li  Li   |  
 | Li  |   Li      Li          |  
 |     |Li      Li      Li     |  
 Li    | Li      Li            |  
 |    Li      Li      Li       |  
 |     |                       |  
 |     |                       |  
 |     |                       |  
 |     |                       |  
 |     |                       |  
 |     |                       |  
 |     .-----------------------.  
 |    /                       /   
 |   /                       /    
 |  /                       /     
 | /                       /      
 |/                       /       
 *-----------------------*        

Positions:
   0 Li     1.617037    1.617037   10.000000    ( 0.0000,  0.0000,  0.0000)
   1 Li     4.851111    1.617037   10.000000    ( 0.0000,  0.0000,  0.0000)
   2 Li     8.085185    1.617037   10.000000    ( 0.0000,  0.0000,  0.0000)
   3 Li     1.617037    4.851111   10.000000    ( 0.0000,  0.0000,  0.0000)
   4 Li     4.851111    4.851111   10.000000    ( 0.0000,  0.0000,  0.0000)
   5 Li     8.085185    4.851111   10.000000    ( 0.0000,  0.0000,  0.0000)
   6 Li     1.617037    8.085185   10.000000    ( 0.0000,  0.0000,  0.0000)
   7 Li     4.851111    8.085185   10.000000    ( 0.0000,  0.0000,  0.0000)
   8 Li     8.085185    8.085185   10.000000    ( 0.0000,  0.0000,  0.0000)
   9 Li     0.000000    0.000000   11.617037    ( 0.0000,  0.0000,  0.0000)
  10 Li     3.234074    0.000000   11.617037    ( 0.0000,  0.0000,  0.0000)
  11 Li     6.468148    0.000000   11.617037    ( 0.0000,  0.0000,  0.0000)
  12 Li     0.000000    3.234074   11.617037    ( 0.0000,  0.0000,  0.0000)
  13 Li     3.234074    3.234074   11.617037    ( 0.0000,  0.0000,  0.0000)
  14 Li     6.468148    3.234074   11.617037    ( 0.0000,  0.0000,  0.0000)
  15 Li     0.000000    6.468148   11.617037    ( 0.0000,  0.0000,  0.0000)
  16 Li     3.234074    6.468148   11.617037    ( 0.0000,  0.0000,  0.0000)
  17 Li     6.468148    6.468148   11.617037    ( 0.0000,  0.0000,  0.0000)
  18 Li     1.617599    1.617353   13.468916    ( 0.0000,  0.0000,  0.0000)
  19 Li     4.851185    1.616728   13.470567    ( 0.0000,  0.0000,  0.0000)
  20 Li     8.084604    1.617730   13.468507    ( 0.0000,  0.0000,  0.0000)
  21 Li     1.616860    4.851236   13.470598    ( 0.0000,  0.0000,  0.0000)
  22 Li     4.851058    4.850908   13.470002    ( 0.0000,  0.0000,  0.0000)
  23 Li     8.085358    4.851107   13.470993    ( 0.0000,  0.0000,  0.0000)
  24 Li     1.617469    8.084659   13.468635    ( 0.0000,  0.0000,  0.0000)
  25 Li     4.851178    8.085588   13.470754    ( 0.0000,  0.0000,  0.0000)
  26 Li     8.084816    8.084431   13.468113    ( 0.0000,  0.0000,  0.0000)
  27 Li     0.010917    0.002373   15.348612    ( 0.0000,  0.0000,  0.0000)
  28 Li     3.233641    0.000234   15.445334    ( 0.0000,  0.0000,  0.0000)
  29 Li     6.474830    0.000405   15.447406    ( 0.0000,  0.0000,  0.0000)
  30 Li     0.000368    3.235258   15.445376    ( 0.0000,  0.0000,  0.0000)
  31 Li     3.234072    3.234569   15.445260    ( 0.0000,  0.0000,  0.0000)
  32 Li     6.467824    3.235089   15.444659    ( 0.0000,  0.0000,  0.0000)
  33 Li     0.000093    6.466356   15.445066    ( 0.0000,  0.0000,  0.0000)
  34 Li     3.234431    6.467472   15.445204    ( 0.0000,  0.0000,  0.0000)
  35 Li     6.467545    6.466790   15.445157    ( 0.0000,  0.0000,  0.0000)
  36 O      9.702875    9.738033   18.559507    ( 0.0000,  0.0000,  0.0000)
  37 C      7.221296    9.689382   18.499768    ( 0.0000,  0.0000,  0.0000)
  38 C      5.962389   10.545865   18.473133    ( 0.0000,  0.0000,  0.0000)
  39 C      8.510018   10.521539   18.490795    ( 0.0000,  0.0000,  0.0000)
  40 C      4.692037    9.695225   18.454059    ( 0.0000,  0.0000,  0.0000)
  41 H      7.247658    9.054457   19.382663    ( 0.0000,  0.0000,  0.0000)
  42 H      7.211448    9.018124   17.629823    ( 0.0000,  0.0000,  0.0000)
  43 H      5.978536   11.204023   17.592250    ( 0.0000,  0.0000,  0.0000)
  44 H      5.959155   11.203366   19.347132    ( 0.0000,  0.0000,  0.0000)
  45 H      8.507939   11.185175   17.595552    ( 0.0000,  0.0000,  0.0000)
  46 H      8.598167   11.142338   19.359207    ( 0.0000,  0.0000,  0.0000)
  47 H      4.665658    9.050493   17.568643    ( 0.0000,  0.0000,  0.0000)
  48 H      4.647277    9.043594   19.330234    ( 0.0000,  0.0000,  0.0000)
  49 H      3.788859   10.308491   18.446959    ( 0.0000,  0.0000,  0.0000)
  50 H      9.674384    9.073187   17.735938    ( 0.0000,  0.0000,  0.0000)
  51 N      9.729204    9.688206   16.894759    ( 0.0000,  0.0000,  0.0000)
  52 N      8.586818    9.696924   16.795642    ( 0.0000,  0.0000,  0.0000)

Unit cell:
           periodic     x           y           z      points  spacing
  1. axis:    yes    9.702222    0.000000    0.000000    60     0.1617
  2. axis:    yes    0.000000    9.702222    0.000000    60     0.1617
  3. axis:    no     0.000000    0.000000   26.351111   164     0.1607

  Lengths:   9.702222   9.702222  26.351111
  Angles:   90.000000  90.000000  90.000000

Effective grid spacing dv^(1/3) = 0.1614

     iter     time        total  log10-change:
                         energy  eigst   dens
iter:   1 10:33:21  -349.931074  -0.79
iter:   2 10:33:29  -349.928551  -1.23  -1.99
iter:   3 10:33:36  -349.918299c -1.75  -1.98
iter:   4 10:33:46  -349.906668c -1.67  -2.23
Writing to output.gpw (mode='')

iter:   5 10:33:58  -349.906329c -1.99  -2.44
iter:   6 10:34:08  -349.906034c -2.23  -2.46
iter:   7 10:34:15  -349.904530c -2.70  -2.54
iter:   8 10:34:23  -349.904281c -2.44  -2.67
iter:   9 10:34:36  -349.903507c -2.58  -2.64
Writing to output.gpw (mode='')

iter:  10 10:34:44  -349.904072c -3.05  -2.99
iter:  11 10:34:52  -349.903671c -3.49  -2.93
iter:  12 10:34:59  -349.903751c -3.48  -3.00
iter:  13 10:35:07  -349.903813c -3.40  -3.10
iter:  14 10:35:14  -349.903841c -3.63  -3.27
Writing to output.gpw (mode='')

iter:  15 10:35:22  -349.903835c -3.88  -3.24
iter:  16 10:35:29  -349.903840c -4.26  -3.51
iter:  17 10:35:37  -349.903848c -4.17  -3.51
iter:  18 10:35:44  -349.903831c -4.33  -3.69
iter:  19 10:35:52  -349.903831c -4.25  -3.72
Writing to output.gpw (mode='')

iter:  20 10:35:59  -349.903816c -4.59  -3.80
iter:  21 10:36:07  -349.903846c -4.74  -3.87
iter:  22 10:36:14  -349.903839c -4.81  -3.84
iter:  23 10:36:22  -349.903843c -5.16  -4.00c
iter:  24 10:36:29  -349.903844c -5.09  -4.07c
Writing to output.gpw (mode='')

iter:  25 10:36:37  -349.903843c -5.22  -4.05c
iter:  26 10:36:44  -349.903840c -5.28  -4.09c
iter:  27 10:36:52  -349.903846c -5.49  -4.08c
iter:  28 10:36:59  -349.903849c -5.57  -4.16c
iter:  29 10:37:07  -349.903853c -5.58  -4.04c
Writing to output.gpw (mode='')

iter:  30 10:37:14  -349.903851c -5.67  -4.14c
iter:  31 10:37:22  -349.903851c -6.06  -4.20c
iter:  32 10:37:29  -349.903848c -5.92  -4.22c
iter:  33 10:37:37  -349.903848c -5.76  -4.29c
iter:  34 10:37:44  -349.903848c -5.62  -4.38c
Writing to output.gpw (mode='')

iter:  35 10:37:52  -349.903849c -6.04  -4.48c
iter:  36 10:37:59  -349.903849c -6.24  -4.62c
iter:  37 10:38:07  -349.903849c -6.39  -4.65c
iter:  38 10:38:14  -349.903848c -6.37  -4.71c
iter:  39 10:38:22  -349.903850c -6.42  -4.83c
Writing to output.gpw (mode='')

iter:  40 10:38:29  -349.903850c -6.57  -4.72c
iter:  41 10:38:37  -349.903850c -6.80  -4.81c
iter:  42 10:38:44  -349.903849c -6.88  -4.90c
iter:  43 10:38:52  -349.903849c -7.03  -5.28c
iter:  44 10:38:59  -349.903849c -6.73  -5.42c
Writing to output.gpw (mode='')

iter:  45 10:39:07  -349.903849c -7.05  -5.54c
iter:  46 10:39:14  -349.903849c -7.21  -5.63c
iter:  47 10:39:22  -349.903849c -7.33  -5.66c
iter:  48 10:39:36  -349.903849c -7.37  -5.67c
iter:  49 10:39:44  -349.903849c -7.53c -5.67c

Converged after 49 iterations.

Dipole moment: (-10.793034, -21.197491, 0.037208) |e|*Ang

Energy contributions relative to reference atoms: (reference = -16540.070923)

Kinetic:       +233.863959
Potential:     -210.844424
External:        +0.000000
XC:            -373.706223
Entropy (-ST):   -0.159230
Local:           +0.862453
--------------------------
Free energy:   -349.983464
Extrapolated:  -349.903849

Dipole-layer corrected work functions: 3.415148, 3.343621 eV

Showing only first 2 kpts
 Kpt  Band  Eigenvalues  Occupancy
  0    37     -3.58955    1.97055
  0    38     -3.51563    1.87696
  0    39     -3.31076    0.40443
  0    40     -3.12387    0.01200

  1    37     -3.48422    1.78117
  1    38     -3.36513    0.85842
  1    39     -3.28155    0.24764
  1    40     -3.26067    0.17029


Fermi level: -3.37938

No gap
Writing to output.gpw (mode='')


Forces in eV/Ang:
  0 Li    0.01046    0.00601   -0.28298
  1 Li   -0.00512   -0.00307   -0.26012
  2 Li   -0.00556    0.01208   -0.28151
  3 Li   -0.00230   -0.00012   -0.26842
  4 Li    0.00100    0.00308   -0.28829
  5 Li   -0.00174   -0.00165   -0.26287
  6 Li    0.01703   -0.00209   -0.28467
  7 Li   -0.00497    0.00038   -0.27063
  8 Li   -0.00876   -0.00996   -0.28476
  9 Li   -0.00327    0.00025    0.35463
 10 Li    0.00303   -0.00162    0.24675
 11 Li   -0.00651    0.00077    0.27873
 12 Li    0.00298    0.00882    0.26881
 13 Li    0.00780    0.00250    0.25068
 14 Li   -0.00511    0.01648    0.25287
 15 Li   -0.00212   -0.01224    0.26194
 16 Li    0.00311   -0.00348    0.25590
 17 Li   -0.00154   -0.01015    0.25864
 18 Li    0.03779    0.02133   -0.04952
 19 Li    0.00542   -0.01917    0.05370
 20 Li   -0.03682    0.04538   -0.07432
 21 Li   -0.00987    0.00805    0.05441
 22 Li   -0.00327   -0.01390    0.01745
 23 Li    0.01080    0.00152    0.07889
 24 Li    0.02920   -0.03473   -0.06880
 25 Li    0.00616    0.02609    0.06706
 26 Li   -0.02549   -0.05022   -0.10413
 27 Li    0.74960    0.22711   -5.95467
 28 Li   -0.02651    0.01657   -0.04410
 29 Li    0.41115    0.02905    0.07154
 30 Li    0.02092    0.07749   -0.03983
 31 Li   -0.00197    0.02872   -0.04300
 32 Li   -0.01719    0.06537   -0.08251
 33 Li    0.00881   -0.12227   -0.06231
 34 Li    0.02164   -0.04254   -0.04678
 35 Li   -0.04004   -0.08720   -0.05250
 36 O     1.03924    2.69789    9.16718
 37 C    -1.06576    0.01790    1.31045
 38 C    -0.13049    0.01353    0.31843
 39 C    -0.89806    0.67532    2.88192
 40 C    -0.03827    0.07956    0.09155
 41 H    -0.13778   -0.09719    0.38730
 42 H    -0.61041   -0.13773    1.11496
 43 H    -0.00987    0.01537   -0.00761
 44 H    -0.09311    0.12974    0.03410
 45 H    -0.19547    0.55087    1.36032
 46 H    -0.23101    0.35276    1.06958
 47 H     0.01854   -0.06405   -0.00613
 48 H    -0.02046   -0.02225    0.00611
 49 H    -0.05998    0.05398    0.02215
 50 H     1.39268   -4.11188    3.87787
 51 N     4.27659   -0.14483   -5.17805
 52 N    -4.42753   -0.14670  -10.11234

System changes: positions 

Initializing position-dependent things.

Density initialized from wave functions
       .-----------------------.  
      /|                       |  
     / |                       |  
    /  |                       |  
   /   |                       |  
  /    |                       |  
 *     |                       |  
 |     |                       |  
 |     |                       |  
 |     |          H      H     |  
 |     |           C     C     |  
 |     |          H     H      H  
 |     N                    N  |  
 |     |                       |  
 |     |         H     H       |  
 |   Li|   H Li C    LiC O     |  
 |     |         H     H       |  
 | Li  |  LLi     LLi     Li   |  
 |     |                       |  
 Li    |LLi     LLi     Li     |  
 |   Li|     Li      Li        |  
 |    Li  Li  Li  Li  Li  Li   |  
 | Li  |   Li      Li          |  
 |     |Li      Li      Li     |  
 Li    | Li      Li            |  
 |    Li      Li      Li       |  
 |     |                       |  
 |     |                       |  
 |     |                       |  
 |     |                       |  
 |     |                       |  
 |     |                       |  
 |     .-----------------------.  
 |    /                       /   
 |   /                       /    
 |  /                       /     
 | /                       /      
 |/                       /       
 *-----------------------*        

Positions:
   0 Li     1.617037    1.617037   10.000000    ( 0.0000,  0.0000,  0.0000)
   1 Li     4.851111    1.617037   10.000000    ( 0.0000,  0.0000,  0.0000)
   2 Li     8.085185    1.617037   10.000000    ( 0.0000,  0.0000,  0.0000)
   3 Li     1.617037    4.851111   10.000000    ( 0.0000,  0.0000,  0.0000)
   4 Li     4.851111    4.851111   10.000000    ( 0.0000,  0.0000,  0.0000)
   5 Li     8.085185    4.851111   10.000000    ( 0.0000,  0.0000,  0.0000)
   6 Li     1.617037    8.085185   10.000000    ( 0.0000,  0.0000,  0.0000)
   7 Li     4.851111    8.085185   10.000000    ( 0.0000,  0.0000,  0.0000)
   8 Li     8.085185    8.085185   10.000000    ( 0.0000,  0.0000,  0.0000)
   9 Li     0.000000    0.000000   11.617037    ( 0.0000,  0.0000,  0.0000)
  10 Li     3.234074    0.000000   11.617037    ( 0.0000,  0.0000,  0.0000)
  11 Li     6.468148    0.000000   11.617037    ( 0.0000,  0.0000,  0.0000)
  12 Li     0.000000    3.234074   11.617037    ( 0.0000,  0.0000,  0.0000)
  13 Li     3.234074    3.234074   11.617037    ( 0.0000,  0.0000,  0.0000)
  14 Li     6.468148    3.234074   11.617037    ( 0.0000,  0.0000,  0.0000)
  15 Li     0.000000    6.468148   11.617037    ( 0.0000,  0.0000,  0.0000)
  16 Li     3.234074    6.468148   11.617037    ( 0.0000,  0.0000,  0.0000)
  17 Li     6.468148    6.468148   11.617037    ( 0.0000,  0.0000,  0.0000)
  18 Li     1.618021    1.617590   13.468365    ( 0.0000,  0.0000,  0.0000)
  19 Li     4.851199    1.616610   13.470900    ( 0.0000,  0.0000,  0.0000)
  20 Li     8.084262    1.618084   13.467967    ( 0.0000,  0.0000,  0.0000)
  21 Li     1.616748    4.851272   13.471029    ( 0.0000,  0.0000,  0.0000)
  22 Li     4.851067    4.850784   13.470106    ( 0.0000,  0.0000,  0.0000)
  23 Li     8.085452    4.851146   13.471530    ( 0.0000,  0.0000,  0.0000)
  24 Li     1.617780    8.084334   13.467967    ( 0.0000,  0.0000,  0.0000)
  25 Li     4.851237    8.085764   13.471229    ( 0.0000,  0.0000,  0.0000)
  26 Li     8.084550    8.084015   13.467226    ( 0.0000,  0.0000,  0.0000)
  27 Li     0.016582    0.004891   15.315708    ( 0.0000,  0.0000,  0.0000)
  28 Li     3.233461    0.000368   15.445099    ( 0.0000,  0.0000,  0.0000)
  29 Li     6.478000    0.000769   15.448078    ( 0.0000,  0.0000,  0.0000)
  30 Li     0.000388    3.235654   15.445184    ( 0.0000,  0.0000,  0.0000)
  31 Li     3.234073    3.234778   15.444949    ( 0.0000,  0.0000,  0.0000)
  32 Li     6.467779    3.235446   15.444146    ( 0.0000,  0.0000,  0.0000)
  33 Li     0.000163    6.465522   15.444679    ( 0.0000,  0.0000,  0.0000)
  34 Li     3.234596    6.467149   15.444891    ( 0.0000,  0.0000,  0.0000)
  35 Li     6.467229    6.466166   15.444782    ( 0.0000,  0.0000,  0.0000)
  36 O      9.692071    9.745460   18.585088    ( 0.0000,  0.0000,  0.0000)
  37 C      7.220717    9.689554   18.504274    ( 0.0000,  0.0000,  0.0000)
  38 C      5.961454   10.546022   18.474347    ( 0.0000,  0.0000,  0.0000)
  39 C      8.510097   10.521452   18.502966    ( 0.0000,  0.0000,  0.0000)
  40 C      4.691448    9.695531   18.454471    ( 0.0000,  0.0000,  0.0000)
  41 H      7.246289    9.053241   19.385923    ( 0.0000,  0.0000,  0.0000)
  42 H      7.209460    9.017799   17.635929    ( 0.0000,  0.0000,  0.0000)
  43 H      5.978538   11.203864   17.592670    ( 0.0000,  0.0000,  0.0000)
  44 H      5.958393   11.204432   19.347607    ( 0.0000,  0.0000,  0.0000)
  45 H      8.506983   11.184365   17.604644    ( 0.0000,  0.0000,  0.0000)
  46 H      8.594263   11.147348   19.367202    ( 0.0000,  0.0000,  0.0000)
  47 H      4.665812    9.050340   17.568867    ( 0.0000,  0.0000,  0.0000)
  48 H      4.647061    9.043473   19.330297    ( 0.0000,  0.0000,  0.0000)
  49 H      3.788322   10.308793   18.447143    ( 0.0000,  0.0000,  0.0000)
  50 H      9.684610    9.077013   17.754610    ( 0.0000,  0.0000,  0.0000)
  51 N      9.730559    9.667396   16.879786    ( 0.0000,  0.0000,  0.0000)
  52 N      8.587930    9.700808   16.755846    ( 0.0000,  0.0000,  0.0000)

Unit cell:
           periodic     x           y           z      points  spacing
  1. axis:    yes    9.702222    0.000000    0.000000    60     0.1617
  2. axis:    yes    0.000000    9.702222    0.000000    60     0.1617
  3. axis:    no     0.000000    0.000000   26.351111   164     0.1607

  Lengths:   9.702222   9.702222  26.351111
  Angles:   90.000000  90.000000  90.000000

Effective grid spacing dv^(1/3) = 0.1614

     iter     time        total  log10-change:
                         energy  eigst   dens
iter:   1 10:39:53  -350.947267  -0.77
iter:   2 10:40:01  -350.949267  -1.33  -2.08
iter:   3 10:40:08  -350.945698c -1.80  -2.10
iter:   4 10:40:16  -350.938027c -1.73  -2.30
Writing to output.gpw (mode='')

iter:   5 10:40:23  -350.937139c -1.92  -2.50
iter:   6 10:40:31  -350.937539c -2.30  -2.59
iter:   7 10:40:38  -350.937103c -2.60  -2.67
iter:   8 10:40:46  -350.937142c -2.66  -2.62
iter:   9 10:40:53  -350.936863c -2.53  -2.68
Writing to output.gpw (mode='')

iter:  10 10:41:01  -350.937287c -2.82  -3.05
iter:  11 10:41:08  -350.937164c -3.31  -2.99
iter:  12 10:41:16  -350.936980c -3.29  -3.03
iter:  13 10:41:23  -350.936991c -3.92  -3.24
iter:  14 10:41:31  -350.937044c -3.62  -3.25
Writing to output.gpw (mode='')

iter:  15 10:41:38  -350.937019c -3.85  -3.24
iter:  16 10:41:46  -350.937030c -4.06  -3.38
iter:  17 10:41:53  -350.937011c -4.05  -3.52
iter:  18 10:42:01  -350.937000c -4.32  -3.55
iter:  19 10:42:08  -350.937010c -4.37  -3.81
Writing to output.gpw (mode='')

iter:  20 10:42:16  -350.937022c -4.78  -3.82
iter:  21 10:42:23  -350.937014c -4.55  -3.95
iter:  22 10:42:31  -350.937036c -4.75  -3.95
iter:  23 10:42:38  -350.937024c -4.86  -3.92
iter:  24 10:42:46  -350.937032c -5.23  -3.99
Writing to output.gpw (mode='')

iter:  25 10:42:53  -350.937038c -5.22  -4.04c
iter:  26 10:43:01  -350.937032c -5.39  -4.17c
iter:  27 10:43:08  -350.937039c -5.48  -4.24c
iter:  28 10:43:16  -350.937036c -5.66  -4.37c
iter:  29 10:43:23  -350.937036c -5.62  -4.44c
Writing to output.gpw (mode='')

iter:  30 10:43:31  -350.937036c -5.77  -4.53c
iter:  31 10:43:38  -350.937034c -5.98  -4.67c
iter:  32 10:43:46  -350.937034c -5.86  -4.72c
iter:  33 10:43:53  -350.937036c -6.09  -4.82c
iter:  34 10:44:01  -350.937034c -6.28  -5.03c
Writing to output.gpw (mode='')

iter:  35 10:44:08  -350.937036c -6.20  -4.95c
iter:  36 10:44:16  -350.937036c -6.65  -5.21c
iter:  37 10:44:23  -350.937036c -6.74  -5.18c
iter:  38 10:44:36  -350.937036c -6.59  -5.24c
iter:  39 10:44:45  -350.937036c -7.06  -5.25c
Writing to output.gpw (mode='')

iter:  40 10:44:53  -350.937036c -7.02  -5.25c
iter:  41 10:45:00  -350.937036c -6.72  -5.25c
iter:  42 10:45:08  -350.937036c -7.21  -5.15c
iter:  43 10:45:15  -350.937036c -7.28  -5.24c
iter:  44 10:45:23  -350.937036c -7.02  -5.31c
Writing to output.gpw (mode='')

iter:  45 10:45:30  -350.937036c -7.18  -5.44c
iter:  46 10:45:38  -350.937036c -7.30  -5.57c
iter:  47 10:45:45  -350.937036c -7.51c -5.60c

Converged after 47 iterations.

Dipole moment: (-10.327454, -19.993661, 0.024034) |e|*Ang

Energy contributions relative to reference atoms: (reference = -16540.070923)

Kinetic:       +230.007713
Potential:     -208.579977
External:        +0.000000
XC:            -373.148510
Entropy (-ST):   -0.157456
Local:           +0.862467
--------------------------
Free energy:   -351.015764
Extrapolated:  -350.937036

Dipole-layer corrected work functions: 3.415773, 3.369570 eV

Showing only first 2 kpts
 Kpt  Band  Eigenvalues  Occupancy
  0    37     -3.59734    1.96718
  0    38     -3.52907    1.87732
  0    39     -3.32048    0.38191
  0    40     -3.13601    0.01173

  1    37     -3.49877    1.78605
  1    38     -3.37915    0.86564
  1    39     -3.29071    0.23029
  1    40     -3.27679    0.17936


Fermi level: -3.39267

No gap
Writing to output.gpw (mode='')


Forces in eV/Ang:
  0 Li    0.01020    0.00578   -0.28378
  1 Li   -0.00472   -0.00329   -0.25978
  2 Li   -0.00599    0.01192   -0.28212
  3 Li   -0.00247    0.00039   -0.26834
  4 Li    0.00042    0.00316   -0.28966
  5 Li   -0.00199   -0.00274   -0.26251
  6 Li    0.01756   -0.00200   -0.28654
  7 Li   -0.00589    0.00069   -0.27058
  8 Li   -0.00899   -0.00907   -0.28548
  9 Li   -0.00339    0.00001    0.35862
 10 Li    0.00341   -0.00193    0.24606
 11 Li   -0.00781    0.00083    0.27936
 12 Li    0.00269    0.00817    0.27067
 13 Li    0.00802    0.00412    0.24854
 14 Li   -0.00514    0.01794    0.25295
 15 Li   -0.00198   -0.01114    0.26355
 16 Li    0.00391   -0.00520    0.25655
 17 Li   -0.00136   -0.01082    0.25805
 18 Li    0.04670    0.02681   -0.05937
 19 Li    0.00462   -0.01803    0.05148
 20 Li   -0.04009    0.04724   -0.07545
 21 Li   -0.01087    0.00742    0.05627
 22 Li   -0.00172   -0.01552    0.01717
 23 Li    0.01160    0.00369    0.07770
 24 Li    0.03633   -0.03952   -0.07862
 25 Li    0.00814    0.02592    0.06783
 26 Li   -0.03104   -0.05377   -0.11297
 27 Li    0.76775    0.31225   -5.53140
 28 Li   -0.02754    0.01825   -0.04085
 29 Li    0.42371    0.03857    0.07466
 30 Li    0.01509    0.07063   -0.03545
 31 Li   -0.00160    0.02787   -0.04330
 32 Li   -0.01368    0.06322   -0.07942
 33 Li    0.01073   -0.12162   -0.06031
 34 Li    0.02202   -0.04398   -0.04648
 35 Li   -0.04318   -0.08835   -0.05392
 36 O     0.79611    2.33956    8.19977
 37 C    -0.92159    0.02187    1.19157
 38 C    -0.11155    0.00498    0.29040
 39 C    -0.80475    0.54248    2.55176
 40 C    -0.04219    0.07184    0.08498
 41 H    -0.15130   -0.10111    0.38522
 42 H    -0.50351   -0.12419    1.01565
 43 H    -0.00897    0.00859    0.00498
 44 H    -0.09593    0.12684    0.03143
 45 H    -0.16455    0.43709    1.24822
 46 H    -0.31409    0.41760    1.00814
 47 H     0.01736   -0.05467    0.00168
 48 H    -0.02471   -0.02098    0.00796
 49 H    -0.06448    0.05044    0.02265
 50 H     1.36112   -3.30934    3.61618
 51 N     3.55537   -0.74615   -4.82078
 52 N    -3.65853    0.08714   -8.89991

System changes: positions 

Initializing position-dependent things.

Density initialized from wave functions
       .-----------------------.  
      /|                       |  
     / |                       |  
    /  |                       |  
   /   |                       |  
  /    |                       |  
 *     |                       |  
 |     |                       |  
 |     |                       |  
 |     |          H      H     |  
 |     |           C     C     |  
 |     |          H     H      H  
 |     N                       |  
 |     |                       |  
 |     |         H     H       |  
 |   Li|   H Li C    LiC O     |  
 |     |         H     H       |  
 | Li  |  LLi     LLi     Li   |  
 |     |              N        |  
 Li    |LLi     LLi     Li     |  
 |   Li|     Li      Li        |  
 |    Li  Li  Li  Li  Li  Li   |  
 | Li  |   Li      Li          |  
 |     |Li      Li      Li     |  
 Li    | Li      Li            |  
 |    Li      Li      Li       |  
 |     |                       |  
 |     |                       |  
 |     |                       |  
 |     |                       |  
 |     |                       |  
 |     |                       |  
 |     .-----------------------.  
 |    /                       /   
 |   /                       /    
[...]

  1    37     -3.77328    1.99651
  1    38     -3.39872    0.48415
  1    39     -3.34735    0.20518
  1    40     -3.34003    0.17975


Fermi level: -3.45579

No gap
Writing to output.gpw (mode='')


Forces in eV/Ang:
  0 Li    0.01424    0.01285   -0.28504
  1 Li   -0.01100    0.00873   -0.29240
  2 Li   -0.00942   -0.00990   -0.29606
  3 Li    0.00567   -0.00945   -0.29367
  4 Li   -0.01677   -0.01713   -0.28520
  5 Li    0.00894    0.00827   -0.28845
  6 Li   -0.01241   -0.01234   -0.29207
  7 Li    0.00626    0.00660   -0.29101
  8 Li   -0.00188   -0.00097   -0.25585
  9 Li   -0.01801   -0.03479    0.27103
 10 Li   -0.00965   -0.02043    0.28894
 11 Li    0.03227   -0.02348    0.32751
 12 Li   -0.00267    0.00536    0.26750
 13 Li   -0.00374    0.03492    0.26098
 14 Li    0.01679    0.03656    0.27860
 15 Li   -0.01032    0.02736    0.29189
 16 Li    0.02601    0.00475    0.25215
 17 Li    0.04314    0.02319    0.24293
 18 Li    0.00291   -0.00295    0.00123
 19 Li    0.00015    0.00223    0.00348
 20 Li    0.01706    0.00179   -0.01146
 21 Li   -0.00116   -0.00138    0.00581
 22 Li   -0.00542   -0.00398   -0.00749
 23 Li   -0.00577    0.00203    0.00510
 24 Li   -0.00936    0.01883   -0.00151
 25 Li   -0.00567    0.00115    0.00038
 26 Li    0.01311    0.00971    0.03328
 27 Li    0.02130    0.00547   -0.01641
 28 Li    0.01628   -0.00373   -0.00232
 29 Li   -0.00211   -0.01423   -0.02424
 30 Li    0.00035    0.00718   -0.00114
 31 Li   -0.00192   -0.00008    0.00985
 32 Li    0.00243   -0.02296   -0.00522
 33 Li   -0.04318    0.00887    0.00164
 34 Li   -0.01976   -0.00215   -0.00963
 35 Li    0.01218    0.00155   -0.02210
 36 O    -0.00677    0.02541    0.01676
 37 C    -0.01861   -0.01064    0.00443
 38 C    -0.00655   -0.00110    0.00398
 39 C    -0.02997    0.00254    0.00427
 40 C     0.00731    0.00624    0.02651
 41 H     0.00880    0.01109    0.01233
 42 H     0.02258   -0.00955   -0.00521
 43 H     0.00993   -0.00416    0.00823
 44 H    -0.01009   -0.00308    0.00468
 45 H     0.00463   -0.02695   -0.01006
 46 H     0.01662   -0.01228    0.00776
 47 H     0.00047    0.02102    0.02165
 48 H    -0.02196    0.00710    0.01308
 49 H     0.01196   -0.01021    0.03709
 50 H     0.00424   -0.01848    0.01163
 51 N     0.00041   -0.00556   -0.01082
 52 N    -0.04391   -0.02094    0.03675

System changes: positions 

Initializing position-dependent things.

Density initialized from wave functions
       .-----------------------.  
      /|                       |  
     / |                       |  
    /  |                       |  
   /   |                       |  
  /    |                       |  
 *     |                       |  
 |     |                       |  
 |     |                H      |  
 |     |          H            |  
 |     |                 H     H  
 |     |          H            |  
 |     |                       |  
 |     |        H      H      Li  
 |     |              C  N N   |  
 |   Li|   H Li CH C  LH O     |  
 |     |                       |  
 | Li  |  LLi     LLi     Li   |  
 |     |                       |  
 |     |LLi     LLi     Li     |  
 |   Li|     Li      Li        |  
 |    Li  Li  Li  Li  Li  Li   |  
 | Li  |   Li      Li          |  
 |     |Li      Li      Li     |  
 Li    | Li      Li            |  
 |    Li      Li      Li       |  
 |     |                       |  
 |     |                       |  
 |     |                       |  
 |     |                       |  
 |     |                       |  
 |     |                       |  
 |     .-----------------------.  
 |    /                       /   
 |   /                       /    
 |  /                       /     
 | /                       /      
 |/                       /       
 *-----------------------*        

Positions:
   0 Li     1.617037    1.617037   10.000000    ( 0.0000,  0.0000,  0.0000)
   1 Li     4.851111    1.617037   10.000000    ( 0.0000,  0.0000,  0.0000)
   2 Li     8.085185    1.617037   10.000000    ( 0.0000,  0.0000,  0.0000)
   3 Li     1.617037    4.851111   10.000000    ( 0.0000,  0.0000,  0.0000)
   4 Li     4.851111    4.851111   10.000000    ( 0.0000,  0.0000,  0.0000)
   5 Li     8.085185    4.851111   10.000000    ( 0.0000,  0.0000,  0.0000)
   6 Li     1.617037    8.085185   10.000000    ( 0.0000,  0.0000,  0.0000)
   7 Li     4.851111    8.085185   10.000000    ( 0.0000,  0.0000,  0.0000)
   8 Li     8.085185    8.085185   10.000000    ( 0.0000,  0.0000,  0.0000)
   9 Li     0.000000    0.000000   11.617037    ( 0.0000,  0.0000,  0.0000)
  10 Li     3.234074    0.000000   11.617037    ( 0.0000,  0.0000,  0.0000)
  11 Li     6.468148    0.000000   11.617037    ( 0.0000,  0.0000,  0.0000)
  12 Li     0.000000    3.234074   11.617037    ( 0.0000,  0.0000,  0.0000)
  13 Li     3.234074    3.234074   11.617037    ( 0.0000,  0.0000,  0.0000)
  14 Li     6.468148    3.234074   11.617037    ( 0.0000,  0.0000,  0.0000)
  15 Li     0.000000    6.468148   11.617037    ( 0.0000,  0.0000,  0.0000)
  16 Li     3.234074    6.468148   11.617037    ( 0.0000,  0.0000,  0.0000)
  17 Li     6.468148    6.468148   11.617037    ( 0.0000,  0.0000,  0.0000)
  18 Li     1.552640    1.572511   13.467696    ( 0.0000,  0.0000,  0.0000)
  19 Li     4.795425    1.680819   13.457575    ( 0.0000,  0.0000,  0.0000)
  20 Li     8.038328    1.644145   13.476613    ( 0.0000,  0.0000,  0.0000)
  21 Li     1.667550    4.831241   13.479274    ( 0.0000,  0.0000,  0.0000)
  22 Li     4.928712    4.942067   13.479807    ( 0.0000,  0.0000,  0.0000)
  23 Li     8.161523    4.877915   13.503823    ( 0.0000,  0.0000,  0.0000)
  24 Li     1.642707    8.012692   13.492739    ( 0.0000,  0.0000,  0.0000)
  25 Li     4.872105    8.121104   13.492421    ( 0.0000,  0.0000,  0.0000)
  26 Li     8.101260    8.057786   13.530916    ( 0.0000,  0.0000,  0.0000)
  27 Li    -0.211421   -0.203165   15.435404    ( 0.0000,  0.0000,  0.0000)
  28 Li     3.047042    0.058811   15.411446    ( 0.0000,  0.0000,  0.0000)
  29 Li     6.381287    0.154916   15.344882    ( 0.0000,  0.0000,  0.0000)
  30 Li     0.064168    3.110785   15.428901    ( 0.0000,  0.0000,  0.0000)
  31 Li     3.229440    3.249985   15.397040    ( 0.0000,  0.0000,  0.0000)
  32 Li     6.408828    3.470877   15.407177    ( 0.0000,  0.0000,  0.0000)
  33 Li     0.179410    6.396321   15.510864    ( 0.0000,  0.0000,  0.0000)
  34 Li     3.444801    6.401488   15.458212    ( 0.0000,  0.0000,  0.0000)
  35 Li     6.771949    6.749381   15.591009    ( 0.0000,  0.0000,  0.0000)
  36 O      9.645599    9.966467   19.169562    ( 0.0000,  0.0000,  0.0000)
  37 C      7.178792    9.790192   19.030964    ( 0.0000,  0.0000,  0.0000)
  38 C      5.875025   10.565128   18.804397    ( 0.0000,  0.0000,  0.0000)
  39 C      8.414163   10.686456   19.007874    ( 0.0000,  0.0000,  0.0000)
  40 C      4.642937    9.661027   18.720383    ( 0.0000,  0.0000,  0.0000)
  41 H      7.136054    9.256236   19.985446    ( 0.0000,  0.0000,  0.0000)
  42 H      7.281079    9.031326   18.244757    ( 0.0000,  0.0000,  0.0000)
  43 H      5.957690   11.144658   17.873915    ( 0.0000,  0.0000,  0.0000)
  44 H      5.736848   11.302214   19.603471    ( 0.0000,  0.0000,  0.0000)
  45 H      8.431932   11.265919   18.071079    ( 0.0000,  0.0000,  0.0000)
  46 H      8.388388   11.402302   19.833741    ( 0.0000,  0.0000,  0.0000)
  47 H      4.741964    8.939745   17.900940    ( 0.0000,  0.0000,  0.0000)
  48 H      4.501810    9.091977   19.642921    ( 0.0000,  0.0000,  0.0000)
  49 H      3.731859   10.240458   18.542908    ( 0.0000,  0.0000,  0.0000)
  50 H      9.642007    9.221636   18.553241    ( 0.0000,  0.0000,  0.0000)
  51 N      8.575970    7.688639   15.575524    ( 0.0000,  0.0000,  0.0000)
  52 N      7.679374    8.575676   15.522046    ( 0.0000,  0.0000,  0.0000)

Unit cell:
           periodic     x           y           z      points  spacing
  1. axis:    yes    9.702222    0.000000    0.000000    60     0.1617
  2. axis:    yes    0.000000    9.702222    0.000000    60     0.1617
  3. axis:    no     0.000000    0.000000   26.351111   164     0.1607

  Lengths:   9.702222   9.702222  26.351111
  Angles:   90.000000  90.000000  90.000000

Effective grid spacing dv^(1/3) = 0.1614

     iter     time        total  log10-change:
                         energy  eigst   dens
iter:   1 18:39:24  -360.861795  -2.29
iter:   2 18:39:37  -360.860956  -2.97  -2.46
iter:   3 18:39:45  -360.860300c -3.62  -2.69
iter:   4 18:39:53  -360.860040c -3.84  -2.94
Writing to output.gpw (mode='')

iter:   5 18:40:00  -360.859921c -3.69  -3.13
iter:   6 18:40:08  -360.859890c -3.81  -3.28
iter:   7 18:40:15  -360.859914c -3.85  -3.49
iter:   8 18:40:22  -360.859914c -4.67  -3.50
iter:   9 18:40:30  -360.859922c -4.61  -3.71
Writing to output.gpw (mode='')

iter:  10 18:40:37  -360.859894c -4.88  -3.80
iter:  11 18:40:45  -360.859895c -5.25  -3.74
iter:  12 18:40:52  -360.859898c -4.95  -3.96
iter:  13 18:41:00  -360.859900c -5.66  -4.03c
iter:  14 18:41:07  -360.859894c -5.97  -4.23c
Writing to output.gpw (mode='')

iter:  15 18:41:15  -360.859896c -6.60  -4.34c
iter:  16 18:41:22  -360.859900c -6.35  -4.38c
iter:  17 18:41:30  -360.859901c -6.21  -4.44c
iter:  18 18:41:37  -360.859902c -6.92  -4.66c
iter:  19 18:41:45  -360.859903c -6.69  -4.84c
Writing to output.gpw (mode='')

iter:  20 18:41:52  -360.859901c -7.38  -4.84c
iter:  21 18:42:00  -360.859901c -7.26  -4.93c
iter:  22 18:42:07  -360.859900c -7.45c -4.97c

Converged after 22 iterations.

Dipole moment: (0.888322, -19.941609, -0.042935) |e|*Ang

Energy contributions relative to reference atoms: (reference = -16540.070923)

Kinetic:       +183.014524
Potential:     -177.278433
External:        +0.000000
XC:            -367.378793
Entropy (-ST):   -0.163323
Local:           +0.864465
--------------------------
Free energy:   -360.941561
Extrapolated:  -360.859900

Dipole-layer corrected work functions: 3.414850, 3.497386 eV

Showing only first 2 kpts
 Kpt  Band  Eigenvalues  Occupancy
  0    37     -3.66304    1.96861
  0    38     -3.47454    1.18214
  0    39     -3.44492    0.88844
  0    40     -3.35480    0.23294

  1    37     -3.77339    1.99650
  1    38     -3.39900    0.48379
  1    39     -3.34748    0.20445
  1    40     -3.34047    0.18013


Fermi level: -3.45612

No gap
Writing to output.gpw (mode='')


Forces in eV/Ang:
  0 Li    0.01431    0.01282   -0.28500
  1 Li   -0.01091    0.00871   -0.29232
  2 Li   -0.00926   -0.00980   -0.29621
  3 Li    0.00575   -0.00943   -0.29353
  4 Li   -0.01666   -0.01704   -0.28546
  5 Li    0.00896    0.00828   -0.28848
  6 Li   -0.01218   -0.01228   -0.29213
  7 Li    0.00630    0.00661   -0.29119
  8 Li   -0.00178   -0.00088   -0.25614
  9 Li   -0.01911   -0.03548    0.27149
 10 Li   -0.00937   -0.02041    0.28868
 11 Li    0.03163   -0.02425    0.32898
 12 Li   -0.00300    0.00580    0.26805
 13 Li   -0.00379    0.03460    0.26148
 14 Li    0.01643    0.03611    0.27939
 15 Li   -0.01164    0.02749    0.29356
 16 Li    0.02580    0.00492    0.25300
 17 Li    0.04369    0.02419    0.24443
 18 Li    0.00380   -0.00223    0.00222
 19 Li    0.00025    0.00272    0.00067
 20 Li    0.01628    0.00267   -0.01102
 21 Li   -0.00263   -0.00075    0.00415
 22 Li   -0.00551   -0.00466   -0.00571
 23 Li   -0.00630    0.00106    0.00231
 24 Li   -0.00890    0.01673   -0.00061
 25 Li   -0.00627   -0.00043   -0.00240
 26 Li    0.00967    0.00943    0.02239
 27 Li    0.00441   -0.00412   -0.00969
 28 Li    0.01748   -0.00279   -0.00287
 29 Li   -0.00528   -0.00731   -0.01911
 30 Li    0.00026    0.00728   -0.00159
 31 Li   -0.00158   -0.00072    0.01040
 32 Li    0.00219   -0.02244   -0.00568
 33 Li   -0.02336   -0.00371   -0.00105
 34 Li   -0.01956   -0.00202   -0.00953
 35 Li    0.00249   -0.00237   -0.01980
 36 O     0.02228    0.00749    0.01587
 37 C    -0.02732   -0.00301    0.01489
 38 C    -0.00999    0.00002   -0.00133
 39 C    -0.03263   -0.00033    0.00022
 40 C    -0.00334    0.00206    0.01029
 41 H     0.01443   -0.00991    0.01741
 42 H     0.00950    0.00118    0.01270
 43 H    -0.00262    0.00174   -0.00066
 44 H     0.01013   -0.00431    0.00972
 45 H     0.00400   -0.01280   -0.00938
 46 H     0.01175   -0.00789   -0.00106
 47 H     0.00777    0.00165    0.01634
 48 H    -0.01533    0.01034    0.00686
 49 H     0.00603    0.00241    0.04153
 50 H     0.00114   -0.00852    0.01538
 51 N    -0.00266    0.01278    0.00333
 52 N    -0.01839   -0.02167    0.02239

Timing:                                      incl.     excl.
-------------------------------------------------------------------
Density initialized from wave functions:     5.518     5.515   0.0% |
 Symmetrize density:                         0.002     0.002   0.0% |
Forces:                                     50.674    50.674   0.2% |
Hamiltonian:                               639.040     0.016   0.0% |
 Atomic:                                     0.038     0.038   0.0% |
  XC Correction:                             0.000     0.000   0.0% |
 Calculate atomic Hamiltonians:              0.044     0.044   0.0% |
 Communicate:                                7.062     7.062   0.0% |
 Hartree integrate/restrict:                 2.164     2.164   0.0% |
 Initialize Hamiltonian:                     0.000     0.000   0.0% |
 Poisson:                                   31.489    11.290   0.0% |
  Communicate from 1D:                       3.196     3.196   0.0% |
  Communicate from 2D:                       3.004     3.004   0.0% |
  Communicate to 1D:                         1.722     1.722   0.0% |
  Communicate to 2D:                         4.124     4.124   0.0% |
  FFT 1D:                                    4.105     4.105   0.0% |
  FFT 2D:                                    4.049     4.049   0.0% |
 XC 3D grid:                               597.641    91.347   0.3% |
  VdW-DF integral:                         506.295     4.336   0.0% |
   Convolution:                             47.554    47.554   0.2% |
   FFT:                                     20.257    20.257   0.1% |
   gather:                                 171.555   171.555   0.6% |
   hmm1:                                    16.617    16.617   0.1% |
   hmm2:                                    22.068    22.068   0.1% |
   iFFT:                                    20.887    20.887   0.1% |
   potential:                              199.426     5.532   0.0% |
    collect:                                30.615    30.615   0.1% |
    p1:                                     90.334    90.334   0.3% |
    p2:                                     33.836    33.836   0.1% |
    sum:                                    39.107    39.107   0.1% |
   splines:                                  3.594     3.594   0.0% |
 vbar:                                       0.584     0.584   0.0% |
LCAO initialization:                         1.244     0.183   0.0% |
 LCAO eigensolver:                           0.245     0.000   0.0% |
  Calculate projections:                     0.000     0.000   0.0% |
  DenseAtomicCorrection:                     0.000     0.000   0.0% |
  Distribute overlap matrix:                 0.227     0.227   0.0% |
  Orbital Layouts:                           0.016     0.016   0.0% |
  Potential matrix:                          0.001     0.001   0.0% |
  Sum over cells:                            0.001     0.001   0.0% |
 LCAO to grid:                               0.683     0.683   0.0% |
 Set positions (LCAO WFS):                   0.133     0.082   0.0% |
  Basic WFS set positions:                   0.001     0.001   0.0% |
  Basis functions set positions:             0.000     0.000   0.0% |
  P tci:                                     0.000     0.000   0.0% |
  ST tci:                                    0.014     0.014   0.0% |
  mktci:                                     0.036     0.036   0.0% |
Redistribute:                                0.070     0.070   0.0% |
SCF-cycle:                               30278.819   561.952   1.8% ||
 Davidson:                                8581.061  2511.580   8.1% |--|
  Apply hamiltonian:                       529.964   529.964   1.7% ||
  Subspace diag:                          1606.210     0.456   0.0% |
   calc_h_matrix:                          793.164   255.359   0.8% |
    Apply hamiltonian:                     537.805   537.805   1.7% ||
   diagonalize:                             83.941    83.941   0.3% |
   rotate_psi:                             728.649   728.649   2.3% ||
  calc. matrices:                         2740.769  1446.916   4.6% |-|
   Apply hamiltonian:                     1293.854  1293.854   4.2% |-|
  diagonalize:                              28.143    28.143   0.1% |
  rotate_psi:                             1164.394  1164.394   3.7% ||
 Density:                                  152.966     0.225   0.0% |
  Atomic density matrices:                  18.934    18.934   0.1% |
  Mix:                                      63.587    63.587   0.2% |
  Multipole moments:                         6.215     6.215   0.0% |
  Pseudo density:                           64.006    63.935   0.2% |
   Symmetrize density:                       0.071     0.071   0.0% |
 Hamiltonian:                            20959.188     0.505   0.0% |
  Atomic:                                    0.916     0.906   0.0% |
   XC Correction:                            0.010     0.010   0.0% |
  Calculate atomic Hamiltonians:             1.391     1.391   0.0% |
  Communicate:                             303.364   303.364   1.0% |
  Hartree integrate/restrict:               68.226    68.226   0.2% |
  Poisson:                                1010.707   373.811   1.2% |
   Communicate from 1D:                     99.573    99.573   0.3% |
   Communicate from 2D:                     98.259    98.259   0.3% |
   Communicate to 1D:                       55.502    55.502   0.2% |
   Communicate to 2D:                      116.924   116.924   0.4% |
   FFT 1D:                                 134.594   134.594   0.4% |
   FFT 2D:                                 132.044   132.044   0.4% |
  XC 3D grid:                            19557.158  2985.955   9.6% |---|
   VdW-DF integral:                      16571.203   141.297   0.5% |
    Convolution:                          1553.905  1553.905   5.0% |-|
    FFT:                                   661.369   661.369   2.1% ||
    gather:                               5717.276  5717.276  18.4% |------|
    hmm1:                                  540.469   540.469   1.7% ||
    hmm2:                                  720.794   720.794   2.3% ||
    iFFT:                                  681.820   681.820   2.2% ||
    potential:                            6554.240   180.711   0.6% |
     collect:                             1007.171  1007.171   3.2% ||
     p1:                                  2945.844  2945.844   9.5% |---|
     p2:                                  1102.867  1102.867   3.5% ||
     sum:                                 1317.646  1317.646   4.2% |-|
    splines:                                 0.034     0.034   0.0% |
  vbar:                                     16.921    16.921   0.1% |
 Orthonormalize:                            23.652     0.016   0.0% |
  calc_s_matrix:                             3.502     3.502   0.0% |
  inverse-cholesky:                          7.001     7.001   0.0% |
  projections:                               0.003     0.003   0.0% |
  rotate_psi_s:                             13.130    13.130   0.0% |
Set symmetry:                                0.009     0.009   0.0% |
Other:                                     149.079   149.079   0.5% |
-------------------------------------------------------------------
Total:                                             31124.452 100.0%

Memory usage: 1.13 GiB
Date: Fri Mar 10 18:42:09 2023
