
  ___ ___ ___ _ _ _  
 |   |   |_  | | | | 
 | | | | | . | | | | 
 |__ |  _|___|_____|  22.8.0
 |___|_|             

User:   vazumah@c05.hercules
Date:   Mon Apr  3 02:44:46 2023
Arch:   x86_64
Pid:    16167
CWD:    /home/vazumah/Python_projects/LiNRR/Li_adsorb_studies/proton_donors/N2_with_proton_donor/Li_BCC_100/adsorbates/BH3/bridge/8.085_1.617
Python: 3.10.8
gpaw:   /home/vazumah/.conda/envs/GPAW/lib/python3.10/site-packages/gpaw
_gpaw:  /home/vazumah/.conda/envs/GPAW/lib/python3.10/site-packages/
        _gpaw.cpython-310-x86_64-linux-gnu.so
ase:    /home/vazumah/.conda/envs/GPAW/lib/python3.10/site-packages/ase (version 3.22.1)
numpy:  /home/vazumah/.conda/envs/GPAW/lib/python3.10/site-packages/numpy (version 1.24.1)
scipy:  /home/vazumah/.conda/envs/GPAW/lib/python3.10/site-packages/scipy (version 1.10.0)
libxc:  5.2.3
units:  Angstrom and eV
cores: 24
OpenMP: True
OMP_NUM_THREADS: 1

Input parameters:
  convergence: {bands: -10}
  h: 0.16
  kpts: {size: [4, 4, 1]}
  occupations: {name: fermi-dirac,
                width: 0.05}
  poissonsolver: {dipolelayer: xy}
  xc: BEEF-vdW

System changes: positions, numbers, cell, pbc, initial_charges, initial_magmoms 

Initialize ...

species:
  Li:
    name: Lithium
    id: 830b4218f175192f93f959cfc0aad614
    Z: 3.0
    valence: 1
    core: 2
    charge: 0.0
    file: /home/vazumah/.conda/envs/GPAW/share/gpaw/Li.PBE.gz
    compensation charges: {type: gauss,
                           rc: 0.33,
                           lmax: 2}
    cutoffs: {filter: 1.91,
              core: 2.55}
    valence states:
      #              energy  rcut
      - 2s(1.00)    -2.874   1.058
      - 2p(0.00)    -1.090   1.058
      -  s          24.337   1.058
  
    # Using partial waves for Li as LCAO basis

  B:
    name: Boron
    id: 6e91439235a05fd7549e31636e8f777c
    Z: 5.0
    valence: 3
    core: 2
    charge: 0.0
    file: /home/vazumah/.conda/envs/GPAW/share/gpaw/B.PBE.gz
    compensation charges: {type: gauss,
                           rc: 0.20,
                           lmax: 2}
    cutoffs: {filter: 1.14,
              core: 1.38}
    valence states:
      #              energy  rcut
      - 2s(2.00)    -9.443   0.635
      - 2p(1.00)    -3.606   0.635
      -  s          17.768   0.635
      -  p          23.605   0.635
      -  d           0.000   0.635
  
    # Using partial waves for B as LCAO basis

  H:
    name: Hydrogen
    id: d65de229564ff8ea4db303e23b6d1ecf
    Z: 1.0
    valence: 1
    core: 0
    charge: 0.0
    file: /home/vazumah/.conda/envs/GPAW/share/gpaw/H.PBE.gz
    compensation charges: {type: gauss,
                           rc: 0.15,
                           lmax: 2}
    cutoffs: {filter: 0.85,
              core: 0.53}
    valence states:
      #              energy  rcut
      - 1s(1.00)    -6.494   0.476
      -  s          20.717   0.476
      -  p           0.000   0.476
  
    # Using partial waves for H as LCAO basis

Reference energy: -8007.321583  # eV

Spin-paired calculation

Convergence criteria:
 Maximum [total energy] change in last 3 cyles: 0.0005 eV / electron
 Maximum integral of absolute [dens]ity change: 0.0001 electrons / valence electron
 Maximum integral of absolute [eigenst]ate change: 4e-08 eV^2 / valence electron
 Maximum number of scf [iter]ations: 333
 (Square brackets indicate name in SCF output, whereas a 'c' in
 the SCF output indicates the quantity has converged.)

Symmetries present (total): 1

  ( 1  0  0)
  ( 0  1  0)
  ( 0  0  1)

16 k-points: 4 x 4 x 1 Monkhorst-Pack grid
8 k-points in the irreducible part of the Brillouin zone
       k-points in crystal coordinates                weights
   0:     0.12500000   -0.37500000    0.00000000          2/16
   1:     0.12500000   -0.12500000    0.00000000          2/16
   2:     0.12500000    0.12500000    0.00000000          2/16
   3:     0.12500000    0.37500000    0.00000000          2/16
   4:     0.37500000   -0.37500000    0.00000000          2/16
   5:     0.37500000   -0.12500000    0.00000000          2/16
   6:     0.37500000    0.12500000    0.00000000          2/16
   7:     0.37500000    0.37500000    0.00000000          2/16

Wave functions: Uniform real-space grid
  Kinetic energy operator: 6*3+1=19 point O(h^6) finite-difference Laplacian
  ScaLapack parameters: grid=1x1, blocksize=None
  Wavefunction extrapolation:
    Improved wavefunction reuse through dual PAW basis 

Occupation numbers: Fermi-Dirac:
  width: 0.0500  # eV
 

Eigensolver
   Davidson(niter=2) 

Densities:
  Coarse grid: 60*60*156 grid
  Fine grid: 120*120*312 grid
  Total Charge: 0.000000 

Density mixing:
  Method: separate
  Backend: pulay
  Linear mixing parameter: 0.05
  old densities: 5
  Damping of long wavelength oscillations: 50 

Hamiltonian:
  XC and Coulomb potentials evaluated on a 120*120*312 grid
  Using the BEEF-vdW Exchange-Correlation functional
  Interpolation: tri-quintic (5. degree polynomial)
  Poisson solver: FastPoissonSolver using
    Stencil: 6*3+1=19 point O(h^6) finite-difference Laplacian
    FFT axes: [0, 1]
    FST axes: [2]

Dipole correction along z-axis 

XC parameters: BEEF-vdW with 2 nearest neighbor stencil

Memory estimate:
  Process memory now: 233.88 MiB
  Calculator: 330.73 MiB
    Density: 116.01 MiB
      Arrays: 36.75 MiB
      Localized functions: 65.25 MiB
      Mixer: 14.01 MiB
    Hamiltonian: 29.19 MiB
      Arrays: 24.03 MiB
      XC: 0.00 MiB
      Poisson: 0.00 MiB
      vbar: 5.16 MiB
    Wavefunctions: 185.52 MiB
      Arrays psit_nG: 84.05 MiB
      Eigensolver: 98.19 MiB
      Projections: 0.03 MiB
      Projectors: 3.26 MiB

Total number of cores used: 24
Parallelization over k-points: 8
Domain decomposition: 1 x 1 x 3

Number of atoms: 40
Number of atomic orbitals: 151
Number of bands in calculation: 30
Number of valence electrons: 42
Bands to converge: 20

... initialized

Initializing position-dependent things.

Density initialized from atomic densities
Creating initial wave functions:
  30 bands from LCAO basis set

       .-----------------------.  
      /|                       |  
     / |                       |  
    /  |                       |  
   /   |                       |  
  /    |                       |  
 *     |                       |  
 |     |                       |  
 |     |                       |  
 |     |            H B  H     |  
 |     |             H         |  
 |     |                       |  
 |     |                       |  
 |     |                       |  
 |   Li|     Li      Li        |  
 |     |  Li      Li      Li   |  
 | Li  |   Li      Li          |  
 |     |Li      Li      Li     |  
 Li    | Li      Li            |  
 |   LLi     LLi     LLi       |  
 |     |  Li      Li      Li   |  
 | Li  |   Li      Li          |  
 |     |Li      Li      Li     |  
 Li    | Li      Li            |  
 |    Li      Li      Li       |  
 |     |                       |  
 |     |                       |  
 |     |                       |  
 |     |                       |  
 |     |                       |  
 |     |                       |  
 |     .-----------------------.  
 |    /                       /   
 |   /                       /    
 |  /                       /     
 | /                       /      
 |/                       /       
 *-----------------------*        

Positions:
   0 Li     1.617037    1.617037   10.000000    ( 0.0000,  0.0000,  0.0000)
   1 Li     4.851111    1.617037   10.000000    ( 0.0000,  0.0000,  0.0000)
   2 Li     8.085185    1.617037   10.000000    ( 0.0000,  0.0000,  0.0000)
   3 Li     1.617037    4.851111   10.000000    ( 0.0000,  0.0000,  0.0000)
   4 Li     4.851111    4.851111   10.000000    ( 0.0000,  0.0000,  0.0000)
   5 Li     8.085185    4.851111   10.000000    ( 0.0000,  0.0000,  0.0000)
   6 Li     1.617037    8.085185   10.000000    ( 0.0000,  0.0000,  0.0000)
   7 Li     4.851111    8.085185   10.000000    ( 0.0000,  0.0000,  0.0000)
   8 Li     8.085185    8.085185   10.000000    ( 0.0000,  0.0000,  0.0000)
   9 Li     0.000000    0.000000   11.617037    ( 0.0000,  0.0000,  0.0000)
  10 Li     3.234074    0.000000   11.617037    ( 0.0000,  0.0000,  0.0000)
  11 Li     6.468148    0.000000   11.617037    ( 0.0000,  0.0000,  0.0000)
  12 Li     0.000000    3.234074   11.617037    ( 0.0000,  0.0000,  0.0000)
  13 Li     3.234074    3.234074   11.617037    ( 0.0000,  0.0000,  0.0000)
  14 Li     6.468148    3.234074   11.617037    ( 0.0000,  0.0000,  0.0000)
  15 Li     0.000000    6.468148   11.617037    ( 0.0000,  0.0000,  0.0000)
  16 Li     3.234074    6.468148   11.617037    ( 0.0000,  0.0000,  0.0000)
  17 Li     6.468148    6.468148   11.617037    ( 0.0000,  0.0000,  0.0000)
  18 Li     1.617038    1.617038   13.469728    ( 0.0000,  0.0000,  0.0000)
  19 Li     4.851111    1.617038   13.469729    ( 0.0000,  0.0000,  0.0000)
  20 Li     8.085184    1.617038   13.469728    ( 0.0000,  0.0000,  0.0000)
  21 Li     1.617038    4.851111   13.469729    ( 0.0000,  0.0000,  0.0000)
  22 Li     4.851111    4.851111   13.469730    ( 0.0000,  0.0000,  0.0000)
  23 Li     8.085184    4.851111   13.469729    ( 0.0000,  0.0000,  0.0000)
  24 Li     1.617038    8.085184   13.469728    ( 0.0000,  0.0000,  0.0000)
  25 Li     4.851111    8.085184   13.469729    ( 0.0000,  0.0000,  0.0000)
  26 Li     8.085184    8.085184   13.469728    ( 0.0000,  0.0000,  0.0000)
  27 Li    -0.000000   -0.000000   15.445939    ( 0.0000,  0.0000,  0.0000)
  28 Li     3.234074    0.000000   15.445939    ( 0.0000,  0.0000,  0.0000)
  29 Li     6.468148    0.000000   15.445939    ( 0.0000,  0.0000,  0.0000)
  30 Li     0.000000    3.234074   15.445939    ( 0.0000,  0.0000,  0.0000)
  31 Li     3.234076    3.234076   15.445938    ( 0.0000,  0.0000,  0.0000)
  32 Li     6.468146    3.234076   15.445938    ( 0.0000,  0.0000,  0.0000)
  33 Li     0.000000    6.468148   15.445939    ( 0.0000,  0.0000,  0.0000)
  34 Li     3.234076    6.468146   15.445938    ( 0.0000,  0.0000,  0.0000)
  35 Li     6.468146    6.468146   15.445938    ( 0.0000,  0.0000,  0.0000)
  36 B      8.085185    1.617037   21.445939    ( 0.0000,  0.0000,  0.0000)
  37 H      9.117754    2.209323   21.445939    ( 0.0000,  0.0000,  0.0000)
  38 H      7.055276    2.213996   21.445939    ( 0.0000,  0.0000,  0.0000)
  39 H      8.085271    0.428437   21.445939    ( 0.0000,  0.0000,  0.0000)

Unit cell:
           periodic     x           y           z      points  spacing
  1. axis:    yes    9.702222    0.000000    0.000000    60     0.1617
  2. axis:    yes    0.000000    9.702222    0.000000    60     0.1617
  3. axis:    no     0.000000    0.000000   24.851111   156     0.1593

  Lengths:   9.702222   9.702222  24.851111
  Angles:   90.000000  90.000000  90.000000

Effective grid spacing dv^(1/3) = 0.1609

     iter     time        total  log10-change:
                         energy  eigst   dens
iter:   1 02:47:43  -243.095445  +1.06
iter:   2 02:49:58  -205.355628  +1.68  -0.28
iter:   3 02:52:08  -188.826884  +1.85  -0.40
iter:   4 02:54:13  -174.358485  +2.30  -0.45
iter:   5 02:56:25  -179.151349  +1.64  -0.59
iter:   6 02:58:41  -185.325724  +1.71  -0.72
iter:   7 03:00:54  -197.231117  +2.29  -0.82
iter:   8 03:03:09  -209.654716  +2.25  -0.83
iter:   9 03:05:22  -219.488561  +2.11  -0.94
iter:  10 03:07:36  -226.878181  +2.04  -0.90
iter:  11 03:09:49  -234.251776  +1.96  -0.86
iter:  12 03:12:04  -241.650178  +1.89  -0.84
iter:  13 03:14:21  -243.858249  +1.47  -0.78
iter:  14 03:16:40  -241.422071  +0.78  -0.76
iter:  15 03:18:52  -229.844526  +0.21  -0.73
iter:  16 03:21:13  -222.020239  +0.95  -0.71
iter:  17 03:23:28  -222.640015  +0.41  -0.71
iter:  18 03:25:44  -220.395696  -0.07  -0.64
iter:  19 03:28:05  -219.824883  +0.93  -0.79
iter:  20 03:30:24  -220.230731  +0.59  -0.91
iter:  21 03:32:37  -221.233424  +0.69  -0.93
iter:  22 03:34:57  -220.615914  +0.44  -1.04
iter:  23 03:37:16  -218.791571  -0.34  -1.18
iter:  24 03:39:39  -218.693521  -0.33  -1.39
iter:  25 03:41:59  -218.699626  -0.31  -1.40
iter:  26 03:44:19  -218.761907  -0.32  -1.48
iter:  27 03:46:48  -218.773715  -0.78  -1.75
iter:  28 03:49:04  -218.781759c -1.14  -1.76
iter:  29 03:51:18  -218.802171  -1.24  -1.83
iter:  30 03:53:33  -218.798008c -1.52  -1.95
iter:  31 03:55:45  -218.794185c -1.44  -2.02
iter:  32 03:58:06  -218.796590c -1.79  -2.12
iter:  33 04:00:22  -218.799362c -1.68  -2.20
iter:  34 04:02:41  -218.801082c -1.93  -2.35
iter:  35 04:04:53  -218.804094c -1.71  -2.39
iter:  36 04:07:04  -218.806267c -2.17  -2.50
iter:  37 04:09:17  -218.807939c -2.39  -2.51
iter:  38 04:11:31  -218.809537c -2.31  -2.52
iter:  39 04:13:59  -218.811121c -2.44  -2.59
iter:  40 04:16:25  -218.812194c -2.74  -2.67
iter:  41 04:18:52  -218.813581c -2.41  -2.66
iter:  42 04:21:12  -218.814465c -2.69  -2.55
iter:  43 04:23:36  -218.815387c -2.63  -2.56
iter:  44 04:25:57  -218.816110c -2.78  -2.53
iter:  45 04:28:12  -218.816701c -2.82  -2.57
iter:  46 04:30:24  -218.817502c -2.72  -2.54
iter:  47 04:32:42  -218.817794c -3.15  -2.64
iter:  48 04:34:59  -218.818099c -2.93  -2.64
iter:  49 04:37:19  -218.818384c -3.04  -2.68
iter:  50 04:39:40  -218.818654c -3.27  -2.83
iter:  51 04:41:57  -218.818864c -3.04  -3.01
iter:  52 04:44:11  -218.819085c -3.16  -3.21
iter:  53 04:46:25  -218.819226c -3.51  -3.32
iter:  54 04:48:44  -218.819404c -3.42  -3.36
iter:  55 04:51:08  -218.819509c -3.79  -3.53
iter:  56 04:53:32  -218.819609c -3.73  -3.62
iter:  57 04:55:46  -218.819706c -3.66  -3.67
iter:  58 04:57:58  -218.819788c -3.80  -3.75
iter:  59 05:00:15  -218.819857c -4.05  -3.83
iter:  60 05:02:32  -218.819920c -4.00  -3.81
iter:  61 05:04:48  -218.819977c -4.11  -3.75
iter:  62 05:07:15  -218.820030c -4.09  -3.74
iter:  63 05:09:33  -218.820085c -4.05  -3.69
iter:  64 05:11:51  -218.820145c -3.94  -3.65
iter:  65 05:14:13  -218.820183c -4.21  -3.63
iter:  66 05:16:32  -218.820220c -4.28  -3.58
iter:  67 05:18:55  -218.820258c -4.39  -3.53
iter:  68 05:21:19  -218.820283c -4.30  -3.56
iter:  69 05:23:40  -218.820326c -3.94  -3.51
iter:  70 05:25:56  -218.820354c -4.37  -3.49
iter:  71 05:28:14  -218.820391c -4.34  -3.47
iter:  72 05:30:30  -218.820425c -4.55  -3.31
iter:  73 05:32:55  -218.820430c -4.68  -3.43
iter:  74 05:35:03  -218.820452c -4.83  -3.30
iter:  75 05:37:22  -218.820497c -4.27  -3.36
iter:  76 05:39:46  -218.820529c -4.60  -3.42
iter:  77 05:42:03  -218.820537c -4.90  -3.59
iter:  78 05:44:21  -218.820538c -4.49  -3.51
iter:  79 05:46:36  -218.820544c -4.66  -3.74
iter:  80 05:48:53  -218.820554c -4.86  -3.85
iter:  81 05:51:10  -218.820561c -4.92  -3.98
iter:  82 05:53:24  -218.820566c -4.90  -4.00c
iter:  83 05:55:46  -218.820579c -4.82  -4.02c
iter:  84 05:57:56  -218.820585c -5.18  -4.16c
iter:  85 06:00:05  -218.820590c -5.25  -4.19c
iter:  86 06:02:16  -218.820591c -5.18  -4.23c
iter:  87 06:04:32  -218.820593c -5.30  -4.18c
iter:  88 06:06:50  -218.820590c -5.44  -4.15c
iter:  89 06:09:10  -218.820590c -5.67  -3.97
iter:  90 06:11:24  -218.820592c -5.55  -4.00c
iter:  91 06:13:32  -218.820592c -5.29  -3.96
iter:  92 06:15:50  -218.820597c -5.67  -3.96
iter:  93 06:17:57  -218.820588c -5.75  -4.01c
iter:  94 06:20:10  -218.820594c -5.84  -3.88
iter:  95 06:22:29  -218.820608c -5.54  -4.05c
iter:  96 06:24:38  -218.820608c -5.89  -4.21c
iter:  97 06:26:52  -218.820614c -5.79  -4.24c
iter:  98 06:29:18  -218.820612c -5.61  -4.35c
iter:  99 06:31:35  -218.820616c -5.82  -4.51c
iter: 100 06:33:54  -218.820615c -6.04  -4.61c
iter: 101 06:36:11  -218.820616c -6.12  -4.63c
iter: 102 06:38:29  -218.820614c -6.08  -4.68c
iter: 103 06:40:49  -218.820613c -6.38  -4.87c
iter: 104 06:43:08  -218.820612c -6.37  -4.91c
iter: 105 06:45:23  -218.820614c -6.40  -4.94c
iter: 106 06:47:38  -218.820611c -6.70  -4.91c
iter: 107 06:49:49  -218.820610c -6.73  -5.05c
iter: 108 06:52:03  -218.820611c -6.71  -5.10c
iter: 109 06:54:26  -218.820610c -6.85  -5.14c
iter: 110 06:56:41  -218.820609c -6.85  -5.28c
iter: 111 06:58:51  -218.820609c -6.89  -5.31c
iter: 112 07:01:14  -218.820608c -6.91  -5.40c
iter: 113 07:03:34  -218.820608c -7.15  -5.34c
iter: 114 07:05:50  -218.820607c -7.20  -5.24c
iter: 115 07:08:17  -218.820606c -7.30  -5.12c
iter: 116 07:10:41  -218.820605c -7.26  -5.07c
iter: 117 07:13:05  -218.820605c -7.27  -4.99c
iter: 118 07:15:25  -218.820605c -7.46c -4.97c

Converged after 118 iterations.

Dipole moment: (-1.634079, -4.140727, -0.032039) |e|*Ang

Energy contributions relative to reference atoms: (reference = -8007.321583)

Kinetic:        +88.969407
Potential:      -78.881360
External:        +0.000000
XC:            -228.632647
Entropy (-ST):   -0.154391
Local:           -0.198809
--------------------------
Free energy:   -218.897800
Extrapolated:  -218.820605

Dipole-layer corrected work functions: 3.382120, 3.443711 eV

Showing only first 2 kpts
 Kpt  Band  Eigenvalues  Occupancy
  0    19     -3.66606    1.98742
  0    20     -3.58037    1.93216
  0    21     -3.25027    0.07445
  0    22     -3.15941    0.01249

  1    19     -3.42498    1.12004
  1    20     -3.41963    1.06704
  1    21     -3.36690    0.56976
  1    22     -3.36649    0.56643


Fermi level: -3.41292

No gap
