
  ___ ___ ___ _ _ _  
 |   |   |_  | | | | 
 | | | | | . | | | | 
 |__ |  _|___|_____|  22.8.0
 |___|_|             

User:   vazumah@c24.hercules
Date:   Mon Mar  6 18:44:44 2023
Arch:   x86_64
Pid:    26388
CWD:    /home/vazumah/Python_projects/LiNRR/Li_adsorb_studies/proton_donors/N2_with_proton_donor/Li_BCC_100/adsorbates/methanol_z/ontop/9.702_9.702/N2_z
Python: 3.10.8
gpaw:   /home/vazumah/.conda/envs/GPAW/lib/python3.10/site-packages/gpaw
_gpaw:  /home/vazumah/.conda/envs/GPAW/lib/python3.10/site-packages/
        _gpaw.cpython-310-x86_64-linux-gnu.so
ase:    /home/vazumah/.conda/envs/GPAW/lib/python3.10/site-packages/ase (version 3.22.1)
numpy:  /home/vazumah/.conda/envs/GPAW/lib/python3.10/site-packages/numpy (version 1.24.1)
scipy:  /home/vazumah/.conda/envs/GPAW/lib/python3.10/site-packages/scipy (version 1.10.0)
libxc:  5.2.3
units:  Angstrom and eV
cores: 24
OpenMP: True
OMP_NUM_THREADS: 1

Input parameters:
  h: 0.16
  kpts: {size: [4, 4, 1]}
  occupations: {name: fermi-dirac,
                width: 0.05}
  poissonsolver: {dipolelayer: xy}
  xc: BEEF-vdW

System changes: positions, numbers, cell, pbc, initial_charges, initial_magmoms 

Initialize ...

species:
  Li:
    name: Lithium
    id: 830b4218f175192f93f959cfc0aad614
    Z: 3.0
    valence: 1
    core: 2
    charge: 0.0
    file: /home/vazumah/.conda/envs/GPAW/share/gpaw/Li.PBE.gz
    compensation charges: {type: gauss,
                           rc: 0.33,
                           lmax: 2}
    cutoffs: {filter: 1.91,
              core: 2.55}
    valence states:
      #              energy  rcut
      - 2s(1.00)    -2.874   1.058
      - 2p(0.00)    -1.090   1.058
      -  s          24.337   1.058
  
    # Using partial waves for Li as LCAO basis

  O:
    name: Oxygen
    id: 32ecd46bf208036f09c70b0ec9a88b78
    Z: 8.0
    valence: 6
    core: 2
    charge: 0.0
    file: /home/vazumah/.conda/envs/GPAW/share/gpaw/O.PBE.gz
    compensation charges: {type: gauss,
                           rc: 0.21,
                           lmax: 2}
    cutoffs: {filter: 1.17,
              core: 0.83}
    valence states:
      #              energy  rcut
      - 2s(2.00)   -23.961   0.688
      - 2p(4.00)    -9.029   0.598
      -  s           3.251   0.688
      -  p          18.182   0.598
      -  d           0.000   0.619
  
    # Using partial waves for O as LCAO basis

  C:
    name: Carbon
    id: 4aa54d4b901d75f77cc0ea3eec22967b
    Z: 6.0
    valence: 4
    core: 2
    charge: 0.0
    file: /home/vazumah/.conda/envs/GPAW/share/gpaw/C.PBE.gz
    compensation charges: {type: gauss,
                           rc: 0.20,
                           lmax: 2}
    cutoffs: {filter: 1.14,
              core: 1.14}
    valence states:
      #              energy  rcut
      - 2s(2.00)   -13.751   0.635
      - 2p(2.00)    -5.284   0.635
      -  s          13.461   0.635
      -  p          21.927   0.635
      -  d           0.000   0.635
  
    # Using partial waves for C as LCAO basis

  H:
    name: Hydrogen
    id: d65de229564ff8ea4db303e23b6d1ecf
    Z: 1.0
    valence: 1
    core: 0
    charge: 0.0
    file: /home/vazumah/.conda/envs/GPAW/share/gpaw/H.PBE.gz
    compensation charges: {type: gauss,
                           rc: 0.15,
                           lmax: 2}
    cutoffs: {filter: 0.85,
              core: 0.53}
    valence states:
      #              energy  rcut
      - 1s(1.00)    -6.494   0.476
      -  s          20.717   0.476
      -  p           0.000   0.476
  
    # Using partial waves for H as LCAO basis

  N:
    name: Nitrogen
    id: f7500608b86eaa90eef8b1d9a670dc53
    Z: 7.0
    valence: 5
    core: 2
    charge: 0.0
    file: /home/vazumah/.conda/envs/GPAW/share/gpaw/N.PBE.gz
    compensation charges: {type: gauss,
                           rc: 0.18,
                           lmax: 2}
    cutoffs: {filter: 1.11,
              core: 0.96}
    valence states:
      #              energy  rcut
      - 2s(2.00)   -18.583   0.603
      - 2p(3.00)    -7.089   0.529
      -  s           8.629   0.603
      -  p          20.123   0.529
      -  d           0.000   0.577
  
    # Using partial waves for N as LCAO basis

Reference energy: -13382.245603  # eV

Spin-paired calculation

Convergence criteria:
 Maximum [total energy] change in last 3 cyles: 0.0005 eV / electron
 Maximum integral of absolute [dens]ity change: 0.0001 electrons / valence electron
 Maximum integral of absolute [eigenst]ate change: 4e-08 eV^2 / valence electron
 Maximum number of scf [iter]ations: 333
 (Square brackets indicate name in SCF output, whereas a 'c' in
 the SCF output indicates the quantity has converged.)

Symmetries present (total): 1

  ( 1  0  0)
  ( 0  1  0)
  ( 0  0  1)

16 k-points: 4 x 4 x 1 Monkhorst-Pack grid
8 k-points in the irreducible part of the Brillouin zone
       k-points in crystal coordinates                weights
   0:     0.12500000   -0.37500000    0.00000000          2/16
   1:     0.12500000   -0.12500000    0.00000000          2/16
   2:     0.12500000    0.12500000    0.00000000          2/16
   3:     0.12500000    0.37500000    0.00000000          2/16
   4:     0.37500000   -0.37500000    0.00000000          2/16
   5:     0.37500000   -0.12500000    0.00000000          2/16
   6:     0.37500000    0.12500000    0.00000000          2/16
   7:     0.37500000    0.37500000    0.00000000          2/16

Wave functions: Uniform real-space grid
  Kinetic energy operator: 6*3+1=19 point O(h^6) finite-difference Laplacian
  ScaLapack parameters: grid=1x1, blocksize=None
  Wavefunction extrapolation:
    Improved wavefunction reuse through dual PAW basis 

Occupation numbers: Fermi-Dirac:
  width: 0.0500  # eV
 

Eigensolver
   Davidson(niter=2) 

Densities:
  Coarse grid: 60*60*168 grid
  Fine grid: 120*120*336 grid
  Total Charge: 0.000000 

Density mixing:
  Method: separate
  Backend: pulay
  Linear mixing parameter: 0.05
  old densities: 5
  Damping of long wavelength oscillations: 50 

Hamiltonian:
  XC and Coulomb potentials evaluated on a 120*120*336 grid
  Using the BEEF-vdW Exchange-Correlation functional
  Interpolation: tri-quintic (5. degree polynomial)
  Poisson solver: FastPoissonSolver using
    Stencil: 6*3+1=19 point O(h^6) finite-difference Laplacian
    FFT axes: [0, 1]
    FST axes: [2]

Dipole correction along z-axis 

XC parameters: BEEF-vdW with 2 nearest neighbor stencil

Memory estimate:
  Process memory now: 227.67 MiB
  Calculator: 413.38 MiB
    Density: 121.66 MiB
      Arrays: 39.61 MiB
      Localized functions: 66.95 MiB
      Mixer: 15.11 MiB
    Hamiltonian: 31.19 MiB
      Arrays: 25.90 MiB
      XC: 0.00 MiB
      Poisson: 0.00 MiB
      vbar: 5.29 MiB
    Wavefunctions: 260.53 MiB
      Arrays psit_nG: 120.85 MiB
      Eigensolver: 136.20 MiB
      Projections: 0.05 MiB
      Projectors: 3.43 MiB

Total number of cores used: 24
Parallelization over k-points: 8
Domain decomposition: 1 x 1 x 3

Number of atoms: 44
Number of atomic orbitals: 164
Number of bands in calculation: 40
Number of valence electrons: 60
Bands to converge: occupied

... initialized

Initializing position-dependent things.

Density initialized from atomic densities
Creating initial wave functions:
  40 bands from LCAO basis set

       .-----------------------.  
      /|                       |  
     / |                       |  
    /  |                       |  
   /   |                       |  
  /    |                       |  
 *     |                    H  |  
 |     |H                      C  
 |     |                       |  
 |     |                       |  
 |     |                      HN  
 |     |                       |  
 |H    |                       N  
 |     |                       |  
 |     |                       |  
 O     |                       |  
 |   Li|     Li      Li        |  
 |     |  Li      Li      Li   |  
 | Li  |   Li      Li          |  
 |     |Li      Li      Li     |  
 Li    | Li      Li            |  
 |   LLi     LLi     LLi       |  
 |     |  Li      Li      Li   |  
 | Li  |   Li      Li          |  
 |     |Li      Li      Li     |  
 Li    | Li      Li            |  
 |    Li      Li      Li       |  
 |     |                       |  
 |     |                       |  
 |     |                       |  
 |     |                       |  
 |     |                       |  
 |     |                       |  
 |     .-----------------------.  
 |    /                       /   
 |   /                       /    
 |  /                       /     
 | /                       /      
 |/                       /       
 *-----------------------*        

Positions:
   0 Li     1.617037    1.617037   10.000000    ( 0.0000,  0.0000,  0.0000)
   1 Li     4.851111    1.617037   10.000000    ( 0.0000,  0.0000,  0.0000)
   2 Li     8.085185    1.617037   10.000000    ( 0.0000,  0.0000,  0.0000)
   3 Li     1.617037    4.851111   10.000000    ( 0.0000,  0.0000,  0.0000)
   4 Li     4.851111    4.851111   10.000000    ( 0.0000,  0.0000,  0.0000)
   5 Li     8.085185    4.851111   10.000000    ( 0.0000,  0.0000,  0.0000)
   6 Li     1.617037    8.085185   10.000000    ( 0.0000,  0.0000,  0.0000)
   7 Li     4.851111    8.085185   10.000000    ( 0.0000,  0.0000,  0.0000)
   8 Li     8.085185    8.085185   10.000000    ( 0.0000,  0.0000,  0.0000)
   9 Li     0.000000    0.000000   11.617037    ( 0.0000,  0.0000,  0.0000)
  10 Li     3.234074    0.000000   11.617037    ( 0.0000,  0.0000,  0.0000)
  11 Li     6.468148    0.000000   11.617037    ( 0.0000,  0.0000,  0.0000)
  12 Li     0.000000    3.234074   11.617037    ( 0.0000,  0.0000,  0.0000)
  13 Li     3.234074    3.234074   11.617037    ( 0.0000,  0.0000,  0.0000)
  14 Li     6.468148    3.234074   11.617037    ( 0.0000,  0.0000,  0.0000)
  15 Li     0.000000    6.468148   11.617037    ( 0.0000,  0.0000,  0.0000)
  16 Li     3.234074    6.468148   11.617037    ( 0.0000,  0.0000,  0.0000)
  17 Li     6.468148    6.468148   11.617037    ( 0.0000,  0.0000,  0.0000)
  18 Li     1.617038    1.617038   13.469728    ( 0.0000,  0.0000,  0.0000)
  19 Li     4.851111    1.617038   13.469729    ( 0.0000,  0.0000,  0.0000)
  20 Li     8.085184    1.617038   13.469728    ( 0.0000,  0.0000,  0.0000)
  21 Li     1.617038    4.851111   13.469729    ( 0.0000,  0.0000,  0.0000)
  22 Li     4.851111    4.851111   13.469730    ( 0.0000,  0.0000,  0.0000)
  23 Li     8.085184    4.851111   13.469729    ( 0.0000,  0.0000,  0.0000)
  24 Li     1.617038    8.085184   13.469728    ( 0.0000,  0.0000,  0.0000)
  25 Li     4.851111    8.085184   13.469729    ( 0.0000,  0.0000,  0.0000)
  26 Li     8.085184    8.085184   13.469728    ( 0.0000,  0.0000,  0.0000)
  27 Li    -0.000000   -0.000000   15.445939    ( 0.0000,  0.0000,  0.0000)
  28 Li     3.234074    0.000000   15.445939    ( 0.0000,  0.0000,  0.0000)
  29 Li     6.468148    0.000000   15.445939    ( 0.0000,  0.0000,  0.0000)
  30 Li     0.000000    3.234074   15.445939    ( 0.0000,  0.0000,  0.0000)
  31 Li     3.234076    3.234076   15.445938    ( 0.0000,  0.0000,  0.0000)
  32 Li     6.468146    3.234076   15.445938    ( 0.0000,  0.0000,  0.0000)
  33 Li     0.000000    6.468148   15.445939    ( 0.0000,  0.0000,  0.0000)
  34 Li     3.234076    6.468146   15.445938    ( 0.0000,  0.0000,  0.0000)
  35 Li     6.468146    6.468146   15.445938    ( 0.0000,  0.0000,  0.0000)
  36 O      9.702222    9.702222   19.645939    ( 0.0000,  0.0000,  0.0000)
  37 C      9.696723    9.687148   21.075902    ( 0.0000,  0.0000,  0.0000)
  38 H     10.383872    8.937195   21.480173    ( 0.0000,  0.0000,  0.0000)
  39 H      8.694934    9.508739   21.479414    ( 0.0000,  0.0000,  0.0000)
  40 H     10.029651   10.672863   21.395346    ( 0.0000,  0.0000,  0.0000)
  41 H      9.411217    8.839093   19.334284    ( 0.0000,  0.0000,  0.0000)
  42 N      9.702000    9.702000   17.195939    ( 0.0000,  0.0000,  0.0000)
  43 N      9.702000    9.702000   18.292561    ( 0.0000,  0.0000,  0.0000)

Unit cell:
           periodic     x           y           z      points  spacing
  1. axis:    yes    9.702222    0.000000    0.000000    60     0.1617
  2. axis:    yes    0.000000    9.702222    0.000000    60     0.1617
  3. axis:    no     0.000000    0.000000   26.601111   168     0.1583

  Lengths:   9.702222   9.702222  26.601111
  Angles:   90.000000  90.000000  90.000000

Effective grid spacing dv^(1/3) = 0.1606

     iter     time        total  log10-change:
                         energy  eigst   dens
iter:   1 18:45:55  -491.865253
iter:   2 18:46:38  -124.490199  +2.38  -0.04
iter:   3 18:47:22   -40.763204  +3.29  -0.19
iter:   4 18:48:05  -112.324752  +2.98  -0.18
Writing to output.gpw (mode='')

iter:   5 18:48:49  -125.113509  +2.73  -0.22
iter:   6 18:49:32  -184.818325  +2.63  -0.55
iter:   7 18:50:15  -243.325281  +2.53  -0.58
iter:   8 18:50:59  -278.455219  +2.33  -0.52
iter:   9 18:51:42  -345.570295  +2.54  -0.51
Writing to output.gpw (mode='')

iter:  10 18:52:26  -305.945220  +2.09  -0.44
iter:  11 18:53:10  -282.899117  +1.80  -0.55
iter:  12 18:53:53  -287.679050  +1.45  -0.75
iter:  13 18:54:36  -286.325755  +1.53  -0.69
iter:  14 18:55:20  -319.321962  +1.70  -0.62
Writing to output.gpw (mode='')

iter:  15 18:56:04  -298.296547  +1.10  -0.59
iter:  16 18:56:47  -299.422536  +1.48  -0.68
iter:  17 18:57:30  -282.370663  +0.75  -0.56
iter:  18 18:58:14  -279.662954  +0.78  -0.72
iter:  19 18:58:57  -275.136157  +0.82  -0.80
Writing to output.gpw (mode='')

iter:  20 18:59:41  -273.565547  +0.58  -0.97
iter:  21 19:00:24  -273.269968  +0.63  -1.10
iter:  22 19:01:08  -273.611429  +0.01  -1.23
iter:  23 19:01:51  -272.955057  +0.13  -1.23
iter:  24 19:02:34  -273.032568  +0.18  -1.48
Writing to output.gpw (mode='')

iter:  25 19:03:21  -272.964739  -0.34  -1.49
iter:  26 19:04:05  -273.032074  -0.10  -1.57
iter:  27 19:04:48  -273.002094  -0.46  -1.62
iter:  28 19:05:31  -273.006427c -0.93  -1.76
iter:  29 19:06:14  -273.016097c -0.99  -1.80
Writing to output.gpw (mode='')

iter:  30 19:06:58  -273.014680c -0.80  -1.81
iter:  31 19:07:42  -273.030683c -0.77  -2.02
iter:  32 19:08:25  -273.039429c -1.11  -2.01
iter:  33 19:09:08  -273.042005c -1.31  -2.02
iter:  34 19:09:51  -273.046278c -1.24  -2.13
Writing to output.gpw (mode='')

iter:  35 19:10:37  -273.051101c -1.49  -2.30
iter:  36 19:11:21  -273.055872c -1.47  -2.46
iter:  37 19:12:04  -273.059717c -1.56  -2.53
iter:  38 19:12:47  -273.063155c -1.58  -2.55
iter:  39 19:13:30  -273.066224c -1.87  -2.62
Writing to output.gpw (mode='')

iter:  40 19:14:14  -273.068144c -2.13  -2.69
iter:  41 19:14:57  -273.069734c -2.03  -2.71
iter:  42 19:15:41  -273.071210c -2.15  -3.00
iter:  43 19:16:24  -273.072598c -2.11  -3.04
iter:  44 19:17:07  -273.073677c -2.27  -3.08
Writing to output.gpw (mode='')

iter:  45 19:17:52  -273.074687c -2.30  -3.07
iter:  46 19:18:35  -273.075584c -2.40  -3.00
iter:  47 19:19:18  -273.076271c -2.55  -3.02
iter:  48 19:20:01  -273.077036c -2.36  -2.99
iter:  49 19:20:44  -273.077645c -2.49  -2.93
Writing to output.gpw (mode='')

iter:  50 19:21:27  -273.078181c -2.63  -2.90
iter:  51 19:22:10  -273.078604c -2.79  -2.87
iter:  52 19:22:53  -273.078991c -2.82  -2.84
iter:  53 19:23:36  -273.079440c -2.64  -2.89
iter:  54 19:24:19  -273.079796c -2.60  -2.83
Writing to output.gpw (mode='')

iter:  55 19:25:03  -273.080079c -3.00  -2.85
iter:  56 19:25:46  -273.080305c -2.76  -2.80
iter:  57 19:26:29  -273.080493c -2.99  -3.00
iter:  58 19:27:12  -273.080679c -2.82  -3.04
iter:  59 19:27:55  -273.080935c -2.71  -3.09
Writing to output.gpw (mode='')

iter:  60 19:28:39  -273.081049c -3.21  -3.20
iter:  61 19:29:22  -273.081150c -3.26  -3.34
iter:  62 19:30:04  -273.081248c -3.34  -3.51
iter:  63 19:30:47  -273.081359c -3.13  -3.62
iter:  64 19:31:30  -273.081428c -3.41  -3.69
Writing to output.gpw (mode='')

iter:  65 19:32:19  -273.081495c -3.44  -3.88
iter:  66 19:33:02  -273.081544c -3.61  -3.89
iter:  67 19:33:45  -273.081602c -3.40  -3.90
iter:  68 19:34:29  -273.081645c -3.54  -3.94
iter:  69 19:35:12  -273.081687c -3.48  -4.01c
Writing to output.gpw (mode='')

iter:  70 19:35:56  -273.081725c -3.53  -4.08c
iter:  71 19:36:39  -273.081759c -3.59  -4.13c
iter:  72 19:37:22  -273.081790c -3.72  -4.16c
iter:  73 19:38:04  -273.081812c -3.86  -4.32c
iter:  74 19:38:47  -273.081831c -3.80  -4.43c
Writing to output.gpw (mode='')

iter:  75 19:39:32  -273.081846c -4.02  -4.43c
iter:  76 19:40:15  -273.081859c -4.03  -4.39c
iter:  77 19:40:58  -273.081872c -4.07  -4.32c
iter:  78 19:41:41  -273.081884c -3.94  -4.20c
iter:  79 19:42:24  -273.081894c -4.19  -4.15c
Writing to output.gpw (mode='')

iter:  80 19:43:08  -273.081901c -4.25  -4.12c
iter:  81 19:43:51  -273.081912c -4.09  -4.12c
iter:  82 19:44:34  -273.081920c -4.45  -4.09c
iter:  83 19:45:17  -273.081923c -4.40  -3.94
iter:  84 19:46:00  -273.081931c -4.20  -4.02c
Writing to output.gpw (mode='')

iter:  85 19:46:44  -273.081936c -4.58  -4.04c
iter:  86 19:47:27  -273.081939c -4.45  -3.94
iter:  87 19:48:10  -273.081942c -4.55  -4.14c
iter:  88 19:48:53  -273.081945c -4.69  -4.06c
iter:  89 19:49:36  -273.081951c -4.48  -4.00c
Writing to output.gpw (mode='')

iter:  90 19:50:20  -273.081950c -4.64  -3.99
iter:  91 19:51:03  -273.081954c -4.77  -4.14c
iter:  92 19:51:46  -273.081952c -4.66  -4.08c
iter:  93 19:52:30  -273.081954c -4.72  -4.11c
iter:  94 19:53:13  -273.081956c -4.53  -4.18c
Writing to output.gpw (mode='')

iter:  95 19:53:57  -273.081956c -4.98  -4.37c
iter:  96 19:54:40  -273.081957c -4.98  -4.45c
iter:  97 19:55:23  -273.081958c -4.89  -4.53c
iter:  98 19:56:06  -273.081957c -5.00  -4.60c
iter:  99 19:56:49  -273.081958c -5.17  -4.69c
Writing to output.gpw (mode='')

iter: 100 19:57:33  -273.081958c -5.11  -4.74c
iter: 101 19:58:16  -273.081958c -5.15  -4.90c
iter: 102 19:59:00  -273.081958c -5.18  -5.13c
iter: 103 19:59:43  -273.081958c -5.24  -5.15c
iter: 104 20:00:26  -273.081958c -5.34  -5.17c
Writing to output.gpw (mode='')

iter: 105 20:01:10  -273.081958c -5.51  -5.22c
iter: 106 20:01:53  -273.081958c -5.46  -5.27c
iter: 107 20:02:36  -273.081958c -5.45  -5.31c
iter: 108 20:03:19  -273.081958c -5.66  -5.44c
iter: 109 20:04:02  -273.081958c -5.48  -5.44c
Writing to output.gpw (mode='')

iter: 110 20:04:46  -273.081958c -5.74  -5.37c
iter: 111 20:05:29  -273.081958c -5.73  -5.30c
iter: 112 20:06:12  -273.081958c -5.88  -5.22c
iter: 113 20:06:55  -273.081958c -5.91  -5.21c
iter: 114 20:07:38  -273.081958c -5.64  -5.17c
Writing to output.gpw (mode='')

iter: 115 20:08:22  -273.081958c -5.82  -5.09c
iter: 116 20:09:05  -273.081958c -5.81  -5.11c
iter: 117 20:09:48  -273.081957c -6.03  -5.06c
iter: 118 20:10:31  -273.081957c -5.96  -5.07c
iter: 119 20:11:14  -273.081957c -5.81  -5.07c
Writing to output.gpw (mode='')

iter: 120 20:11:58  -273.081957c -6.12  -5.13c
iter: 121 20:12:41  -273.081957c -5.96  -5.01c
iter: 122 20:13:24  -273.081957c -6.17  -4.91c
iter: 123 20:14:07  -273.081957c -6.29  -5.11c
iter: 124 20:14:50  -273.081956c -5.98  -4.99c
Writing to output.gpw (mode='')

iter: 125 20:15:33  -273.081956c -6.11  -5.14c
iter: 126 20:16:16  -273.081956c -6.26  -5.22c
iter: 127 20:16:59  -273.081956c -6.44  -5.27c
iter: 128 20:17:42  -273.081956c -6.32  -5.45c
iter: 129 20:18:25  -273.081956c -6.37  -5.66c
Writing to output.gpw (mode='')

iter: 130 20:19:09  -273.081956c -6.46  -5.72c
iter: 131 20:19:52  -273.081955c -6.49  -5.80c
iter: 132 20:20:35  -273.081955c -6.54  -5.89c
iter: 133 20:21:18  -273.081955c -6.63  -6.06c
iter: 134 20:22:01  -273.081955c -6.57  -6.14c
Writing to output.gpw (mode='')

iter: 135 20:22:45  -273.081955c -6.64  -6.21c
iter: 136 20:23:29  -273.081955c -6.70  -6.35c
iter: 137 20:24:12  -273.081955c -6.76  -6.40c
iter: 138 20:24:55  -273.081955c -6.80  -6.33c
iter: 139 20:25:38  -273.081955c -6.81  -6.19c
Writing to output.gpw (mode='')

iter: 140 20:26:23  -273.081955c -6.73  -6.11c
iter: 141 20:27:06  -273.081955c -6.93  -6.05c
iter: 142 20:27:49  -273.081955c -6.70  -6.01c
iter: 143 20:28:32  -273.081955c -6.89  -5.94c
iter: 144 20:29:15  -273.081955c -6.98  -5.90c
Writing to output.gpw (mode='')

iter: 145 20:29:59  -273.081955c -7.08  -5.82c
iter: 146 20:30:42  -273.081955c -7.13  -5.86c
iter: 147 20:31:25  -273.081955c -7.01  -5.88c
iter: 148 20:32:08  -273.081954c -6.93  -5.77c
iter: 149 20:32:51  -273.081954c -6.93  -5.87c
Writing to output.gpw (mode='')

iter: 150 20:33:36  -273.081954c -7.07  -5.90c
iter: 151 20:34:18  -273.081954c -7.08  -5.81c
iter: 152 20:35:01  -273.081954c -7.09  -5.90c
iter: 153 20:35:44  -273.081954c -7.23  -6.00c
iter: 154 20:36:27  -273.081954c -7.23  -5.96c
Writing to output.gpw (mode='')

iter: 155 20:37:15  -273.081954c -7.26  -6.02c
iter: 156 20:37:58  -273.081954c -7.29  -6.08c
iter: 157 20:38:41  -273.081954c -7.21  -6.24c
iter: 158 20:39:24  -273.081954c -7.44c -6.42c

Converged after 158 iterations.

Dipole moment: (-16.837176, -13.348439, 0.223219) |e|*Ang

Energy contributions relative to reference atoms: (reference = -13382.245603)

Kinetic:       +181.059390
Potential:     -159.067922
External:        +0.000000
XC:            -295.628153
Entropy (-ST):   -0.145049
Local:           +0.627256
--------------------------
Free energy:   -273.154478
Extrapolated:  -273.081954

Dipole-layer corrected work functions: 3.389792, 2.960689 eV

Showing only first 2 kpts
 Kpt  Band  Eigenvalues  Occupancy
  0    28     -3.42242    1.98584
  0    29     -3.35335    1.94481
  0    30     -2.99949    0.05777
  0    31     -2.93839    0.01738

  1    28     -3.22296    1.44396
  1    29     -3.16161    0.86454
  1    30     -3.15264    0.77777
  1    31     -3.07912    0.25517


Fermi level: -3.17524

No gap
Writing to output.gpw (mode='')


Forces in eV/Ang:
  0 Li    0.00874    0.00788   -0.26868
  1 Li   -0.00022    0.00035   -0.26884
  2 Li   -0.00860    0.00657   -0.26822
  3 Li   -0.00013    0.00111   -0.26954
  4 Li   -0.00039   -0.00085   -0.28690
  5 Li    0.00044    0.00259   -0.26983
  6 Li    0.00575   -0.00881   -0.26867
  7 Li    0.00125    0.00031   -0.26988
  8 Li   -0.00664   -0.00853   -0.26918
  9 Li    0.00061    0.00195    0.31237
 10 Li    0.01173   -0.00010    0.26101
 11 Li   -0.01252   -0.00089    0.25839
 12 Li    0.00011    0.01205    0.26295
 13 Li    0.00653    0.00286    0.25586
 14 Li   -0.00627    0.00112    0.25584
 15 Li   -0.00048   -0.01449    0.25388
 16 Li    0.00050   -0.00261    0.25693
 17 Li   -0.00065   -0.00105    0.25834
 18 Li    0.00579    0.00553   -0.00371
 19 Li    0.00015   -0.00146    0.04860
 20 Li   -0.00664    0.00465   -0.00487
 21 Li    0.00034   -0.00223    0.04531
 22 Li    0.00031    0.00139    0.02997
 23 Li   -0.00059   -0.00470    0.04402
 24 Li   -0.00006   -0.00496    0.00421
 25 Li   -0.00252    0.00019    0.04456
 26 Li    0.00225   -0.00121    0.01530
 27 Li    0.00411    0.01222   -1.70862
 28 Li    0.02886   -0.00010   -0.03028
 29 Li   -0.03070   -0.00591   -0.03345
 30 Li    0.00171    0.01931   -0.02530
 31 Li    0.00955    0.00966   -0.03159
 32 Li   -0.01044    0.00937   -0.03135
 33 Li   -0.00401   -0.02675   -0.03875
 34 Li    0.00318   -0.00764   -0.02914
 35 Li    0.00170   -0.00183   -0.02633
 36 O    -0.10231   -0.30564   17.26522
 37 C     0.22805    0.71798    7.07613
 38 H    -0.00109    0.03854    0.03321
 39 H     0.03046    0.03139    0.02908
 40 H     0.00576    0.01595    0.21651
 41 H    -0.38438   -1.14324    2.04841
 42 N     0.73597    2.18396   -4.81953
 43 N    -0.52686   -1.55826  -20.02583

System changes: positions 

Initializing position-dependent things.

Density initialized from wave functions
       .-----------------------.  
      /|                       |  
     / |                       |  
    /  |                       |  
   /   |                       |  
  /    |                       |  
 *     |                    H  |  
 |     |H                      C  
 |     |                       |  
 |     |                       O  
 |     |                      HN  
 |     |                       |  
 |H    |                       |  
 |     |                       |  
 |     |       Li      Li      |  
 |     |                       |  
 |     |     Li      Li      Li|  
 |     |  Li      Li      Li   |  
 N Li  |   Li      Li          |  
 |     |Li      Li      Li     |  
 Li    |                       |  
 |   LLi     LLi     LLi       |  
 |     |  Li      Li      Li   |  
 | Li  |   Li      Li          |  
 |     |Li      Li      Li     |  
 Li    | Li      Li            |  
 |    Li      Li      Li       |  
 |     |                       |  
 |     |                       |  
 |     |                       |  
 |     |                       |  
 |     |                       |  
 |     |                       |  
 |     .-----------------------.  
 |    /                       /   
 |   /                       /    
 |  /                       /     
 | /                       /      
 |/                       /       
 *-----------------------*        

Positions:
   0 Li     1.617037    1.617037   10.000000    ( 0.0000,  0.0000,  0.0000)
   1 Li     4.851111    1.617037   10.000000    ( 0.0000,  0.0000,  0.0000)
   2 Li     8.085185    1.617037   10.000000    ( 0.0000,  0.0000,  0.0000)
   3 Li     1.617037    4.851111   10.000000    ( 0.0000,  0.0000,  0.0000)
   4 Li     4.851111    4.851111   10.000000    ( 0.0000,  0.0000,  0.0000)
   5 Li     8.085185    4.851111   10.000000    ( 0.0000,  0.0000,  0.0000)
   6 Li     1.617037    8.085185   10.000000    ( 0.0000,  0.0000,  0.0000)
   7 Li     4.851111    8.085185   10.000000    ( 0.0000,  0.0000,  0.0000)
   8 Li     8.085185    8.085185   10.000000    ( 0.0000,  0.0000,  0.0000)
   9 Li     0.000000    0.000000   11.617037    ( 0.0000,  0.0000,  0.0000)
  10 Li     3.234074    0.000000   11.617037    ( 0.0000,  0.0000,  0.0000)
  11 Li     6.468148    0.000000   11.617037    ( 0.0000,  0.0000,  0.0000)
  12 Li     0.000000    3.234074   11.617037    ( 0.0000,  0.0000,  0.0000)
  13 Li     3.234074    3.234074   11.617037    ( 0.0000,  0.0000,  0.0000)
  14 Li     6.468148    3.234074   11.617037    ( 0.0000,  0.0000,  0.0000)
  15 Li     0.000000    6.468148   11.617037    ( 0.0000,  0.0000,  0.0000)
  16 Li     3.234074    6.468148   11.617037    ( 0.0000,  0.0000,  0.0000)
  17 Li     6.468148    6.468148   11.617037    ( 0.0000,  0.0000,  0.0000)
  18 Li     1.617050    1.617049   13.469720    ( 0.0000,  0.0000,  0.0000)
  19 Li     4.851111    1.617036   13.469826    ( 0.0000,  0.0000,  0.0000)
  20 Li     8.085171    1.617047   13.469718    ( 0.0000,  0.0000,  0.0000)
  21 Li     1.617039    4.851107   13.469820    ( 0.0000,  0.0000,  0.0000)
  22 Li     4.851112    4.851114   13.469790    ( 0.0000,  0.0000,  0.0000)
  23 Li     8.085182    4.851102   13.469817    ( 0.0000,  0.0000,  0.0000)
  24 Li     1.617038    8.085174   13.469736    ( 0.0000,  0.0000,  0.0000)
  25 Li     4.851106    8.085184   13.469818    ( 0.0000,  0.0000,  0.0000)
  26 Li     8.085188    8.085181   13.469758    ( 0.0000,  0.0000,  0.0000)
  27 Li     0.000008    0.000024   15.442538    ( 0.0000,  0.0000,  0.0000)
  28 Li     3.234131   -0.000000   15.445879    ( 0.0000,  0.0000,  0.0000)
  29 Li     6.468087   -0.000012   15.445872    ( 0.0000,  0.0000,  0.0000)
  30 Li     0.000003    3.234112   15.445888    ( 0.0000,  0.0000,  0.0000)
  31 Li     3.234095    3.234096   15.445875    ( 0.0000,  0.0000,  0.0000)
  32 Li     6.468125    3.234095   15.445876    ( 0.0000,  0.0000,  0.0000)
  33 Li    -0.000008    6.468095   15.445862    ( 0.0000,  0.0000,  0.0000)
  34 Li     3.234083    6.468130   15.445880    ( 0.0000,  0.0000,  0.0000)
  35 Li     6.468149    6.468142   15.445886    ( 0.0000,  0.0000,  0.0000)
  36 O      9.702018    9.701614   19.680309    ( 0.0000,  0.0000,  0.0000)
  37 C      9.697177    9.688578   21.089988    ( 0.0000,  0.0000,  0.0000)
  38 H     10.383870    8.937272   21.480239    ( 0.0000,  0.0000,  0.0000)
  39 H      8.694994    9.508802   21.479472    ( 0.0000,  0.0000,  0.0000)
  40 H     10.029662   10.672895   21.395777    ( 0.0000,  0.0000,  0.0000)
  41 H      9.410452    8.836817   19.338362    ( 0.0000,  0.0000,  0.0000)
  42 N      9.703465    9.706348   17.186345    ( 0.0000,  0.0000,  0.0000)
  43 N      9.700951    9.698898   18.252696    ( 0.0000,  0.0000,  0.0000)

Unit cell:
           periodic     x           y           z      points  spacing
  1. axis:    yes    9.702222    0.000000    0.000000    60     0.1617
  2. axis:    yes    0.000000    9.702222    0.000000    60     0.1617
  3. axis:    no     0.000000    0.000000   26.601111   168     0.1583

  Lengths:   9.702222   9.702222  26.601111
  Angles:   90.000000  90.000000  90.000000

Effective grid spacing dv^(1/3) = 0.1606

     iter     time        total  log10-change:
                         energy  eigst   dens
iter:   1 20:40:22  -275.004467  -0.46
iter:   2 20:41:05  -274.691230  -0.49  -1.26
iter:   3 20:41:48  -274.611669  -1.07  -1.46
iter:   4 20:42:31  -274.556052  -0.70  -1.78
Writing to output.gpw (mode='')

iter:   5 20:43:15  -274.551154  -1.31  -1.99
iter:   6 20:43:58  -274.548881c -1.39  -2.11
iter:   7 20:44:41  -274.544460c -1.12  -2.06
iter:   8 20:45:24  -274.541230c -1.90  -2.16
iter:   9 20:46:07  -274.541153c -2.11  -2.32
Writing to output.gpw (mode='')

iter:  10 20:46:52  -274.540416c -2.35  -2.42
iter:  11 20:47:35  -274.540770c -2.57  -2.70
iter:  12 20:48:18  -274.540953c -2.71  -2.73
iter:  13 20:49:00  -274.540844c -2.79  -2.85
iter:  14 20:49:44  -274.540842c -3.04  -2.86
Writing to output.gpw (mode='')

iter:  15 20:50:28  -274.540884c -3.21  -2.92
iter:  16 20:51:11  -274.540991c -3.13  -3.05
iter:  17 20:51:54  -274.540988c -3.61  -3.16
iter:  18 20:52:37  -274.540998c -3.82  -3.21
iter:  19 20:53:20  -274.540995c -4.02  -3.25
Writing to output.gpw (mode='')

iter:  20 20:54:05  -274.540992c -3.98  -3.34
iter:  21 20:54:48  -274.541025c -4.01  -3.41
iter:  22 20:55:31  -274.541021c -4.16  -3.50
iter:  23 20:56:14  -274.541020c -4.26  -3.61
iter:  24 20:56:57  -274.541015c -4.46  -3.64
Writing to output.gpw (mode='')

iter:  25 20:57:41  -274.541015c -4.59  -3.74
iter:  26 20:58:24  -274.541021c -4.76  -3.83
iter:  27 20:59:07  -274.541024c -5.01  -3.96
iter:  28 20:59:50  -274.541023c -4.88  -3.99
iter:  29 21:00:34  -274.541020c -5.06  -4.02c
Writing to output.gpw (mode='')

iter:  30 21:01:22  -274.541020c -5.07  -4.08c
iter:  31 21:02:05  -274.541021c -5.34  -4.29c
iter:  32 21:02:48  -274.541023c -5.35  -4.32c
iter:  33 21:03:31  -274.541023c -5.64  -4.36c
iter:  34 21:04:14  -274.541022c -5.81  -4.43c
Writing to output.gpw (mode='')

iter:  35 21:04:58  -274.541021c -5.73  -4.50c
iter:  36 21:05:42  -274.541025c -5.82  -4.53c
iter:  37 21:06:25  -274.541024c -5.96  -4.69c
iter:  38 21:07:08  -274.541024c -6.10  -4.86c
iter:  39 21:07:51  -274.541024c -6.28  -4.96c
Writing to output.gpw (mode='')

iter:  40 21:08:36  -274.541024c -6.06  -4.96c
iter:  41 21:09:19  -274.541024c -6.16  -5.06c
iter:  42 21:10:02  -274.541024c -6.45  -5.15c
iter:  43 21:10:45  -274.541024c -6.41  -5.19c
iter:  44 21:11:28  -274.541024c -6.61  -5.19c
Writing to output.gpw (mode='')

iter:  45 21:12:12  -274.541024c -6.63  -5.18c
iter:  46 21:12:56  -274.541024c -6.67  -5.16c
iter:  47 21:13:39  -274.541024c -6.64  -5.20c
iter:  48 21:14:22  -274.541024c -6.73  -5.15c
iter:  49 21:15:05  -274.541024c -6.69  -5.22c
Writing to output.gpw (mode='')

iter:  50 21:15:49  -274.541024c -6.83  -5.31c
iter:  51 21:16:32  -274.541024c -6.95  -5.37c
iter:  52 21:17:15  -274.541024c -7.06  -5.49c
iter:  53 21:17:58  -274.541024c -6.92  -5.63c
iter:  54 21:18:41  -274.541024c -7.05  -5.69c
Writing to output.gpw (mode='')

iter:  55 21:19:29  -274.541024c -7.14  -5.78c
iter:  56 21:20:12  -274.541024c -7.02  -5.89c
iter:  57 21:20:55  -274.541024c -7.23  -5.96c
iter:  58 21:21:38  -274.541024c -7.27  -5.98c
iter:  59 21:22:21  -274.541024c -7.35  -6.07c
Writing to output.gpw (mode='')

iter:  60 21:23:05  -274.541024c -7.44c -6.14c

Converged after 60 iterations.

Dipole moment: (-16.807142, -13.349764, 0.265967) |e|*Ang

Energy contributions relative to reference atoms: (reference = -13382.245603)

Kinetic:       +183.863301
Potential:     -162.359124
External:        +0.000000
XC:            -296.606329
Entropy (-ST):   -0.144727
Local:           +0.633492
--------------------------
Free energy:   -274.613388
Extrapolated:  -274.541024

Dipole-layer corrected work functions: 3.385818, 2.874539 eV

Showing only first 2 kpts
 Kpt  Band  Eigenvalues  Occupancy
  0    28     -3.38039    1.98667
  0    29     -3.30951    1.94611
  0    30     -2.95415    0.05746
  0    31     -2.88468    0.01464

  1    28     -3.17331    1.40645
  1    29     -3.11597    0.85888
  1    30     -3.10732    0.77529
  1    31     -3.04025    0.28407


Fermi level: -3.13018

No gap

Forces in eV/Ang:
  0 Li    0.00760    0.00703   -0.26835
  1 Li   -0.00044   -0.00027   -0.26846
  2 Li   -0.00728    0.00605   -0.26794
  3 Li   -0.00056    0.00030   -0.26893
  4 Li   -0.00031   -0.00075   -0.28491
  5 Li    0.00077    0.00167   -0.26916
  6 Li    0.00547   -0.00731   -0.26824
  7 Li    0.00092    0.00077   -0.26917
  8 Li   -0.00612   -0.00731   -0.26862
  9 Li    0.00029    0.00092    0.30898
 10 Li    0.01139    0.00015    0.25921
 11 Li   -0.01183   -0.00050    0.25774
 12 Li    0.00017    0.01205    0.26042
 13 Li    0.00511    0.00264    0.25596
 14 Li   -0.00497    0.00160    0.25664
 15 Li   -0.00032   -0.01346    0.25502
 16 Li    0.00134   -0.00254    0.25776
 17 Li   -0.00143   -0.00157    0.25850
 18 Li    0.00514    0.00535    0.00029
 19 Li    0.00011   -0.00011    0.04798
 20 Li   -0.00545    0.00462   -0.00056
 21 Li    0.00143   -0.00150    0.04558
 22 Li    0.00009    0.00072    0.02769
 23 Li   -0.00145   -0.00312    0.04467
 24 Li    0.00132   -0.00454    0.00627
 25 Li   -0.00168   -0.00037    0.04497
 26 Li    0.00003   -0.00231    0.01464
 27 Li    0.00331    0.00969   -1.85183
 28 Li    0.04182   -0.00035   -0.04195
 29 Li   -0.04265   -0.00487   -0.04513
 30 Li    0.00123    0.03798   -0.03922
 31 Li    0.00789    0.00835   -0.03198
 32 Li   -0.00881    0.00869   -0.03158
 33 Li   -0.00323   -0.04189   -0.05255
 34 Li    0.00384   -0.00697   -0.03017
 35 Li    0.00025   -0.00251   -0.02849
 36 O    -0.21591   -0.64246   16.34756
 37 C     0.11544    0.35124    5.34764
 38 H     0.07852   -0.04527    0.22275
 39 H    -0.08509    0.01302    0.21897
 40 H     0.05686    0.16718    0.31518
 41 H    -0.13393   -0.39733    2.07602
 42 N     0.59241    1.75897   -8.28868
 43 N    -0.39299   -1.16727  -14.27608

System changes: positions 

Initializing position-dependent things.

Density initialized from wave functions
       .-----------------------.  
      /|                       |  
     / |                       |  
    /  |                       |  
   /   |                       |  
  /    |                       |  
 *     |                    H  |  
 |     |H                      C  
 |     |                       |  
 |     |                       O  
 |     |                      HN  
 |     |                       |  
 |H    |                       |  
 |     |                       |  
 |     |       Li      Li      |  
 |     |                       |  
 |     |     Li      Li      Li|  
 |     |  Li      Li      Li   |  
 N Li  |   Li      Li          |  
 |     |Li      Li      Li     |  
 Li    |                       |  
 |   LLi     LLi     LLi       |  
 |     |  Li      Li      Li   |  
 | Li  |   Li      Li          |  
 |     |Li      Li      Li     |  
 Li    | Li      Li            |  
 |    Li      Li      Li       |  
 |     |                       |  
 |     |                       |  
 |     |                       |  
 |     |                       |  
 |     |                       |  
 |     |                       |  
 |     .-----------------------.  
 |    /                       /   
 |   /                       /    
 |  /                       /     
 | /                       /      
 |/                       /       
 *-----------------------*        

Positions:
   0 Li     1.617037    1.617037   10.000000    ( 0.0000,  0.0000,  0.0000)
   1 Li     4.851111    1.617037   10.000000    ( 0.0000,  0.0000,  0.0000)
   2 Li     8.085185    1.617037   10.000000    ( 0.0000,  0.0000,  0.0000)
   3 Li     1.617037    4.851111   10.000000    ( 0.0000,  0.0000,  0.0000)
   4 Li     4.851111    4.851111   10.000000    ( 0.0000,  0.0000,  0.0000)
   5 Li     8.085185    4.851111   10.000000    ( 0.0000,  0.0000,  0.0000)
   6 Li     1.617037    8.085185   10.000000    ( 0.0000,  0.0000,  0.0000)
   7 Li     4.851111    8.085185   10.000000    ( 0.0000,  0.0000,  0.0000)
   8 Li     8.085185    8.085185   10.000000    ( 0.0000,  0.0000,  0.0000)
   9 Li     0.000000    0.000000   11.617037    ( 0.0000,  0.0000,  0.0000)
  10 Li     3.234074    0.000000   11.617037    ( 0.0000,  0.0000,  0.0000)
  11 Li     6.468148    0.000000   11.617037    ( 0.0000,  0.0000,  0.0000)
  12 Li     0.000000    3.234074   11.617037    ( 0.0000,  0.0000,  0.0000)
  13 Li     3.234074    3.234074   11.617037    ( 0.0000,  0.0000,  0.0000)
  14 Li     6.468148    3.234074   11.617037    ( 0.0000,  0.0000,  0.0000)
  15 Li     0.000000    6.468148   11.617037    ( 0.0000,  0.0000,  0.0000)
  16 Li     3.234074    6.468148   11.617037    ( 0.0000,  0.0000,  0.0000)
  17 Li     6.468148    6.468148   11.617037    ( 0.0000,  0.0000,  0.0000)
  18 Li     1.617061    1.617062   13.469731    ( 0.0000,  0.0000,  0.0000)
  19 Li     4.851111    1.617039   13.469949    ( 0.0000,  0.0000,  0.0000)
  20 Li     8.085160    1.617059   13.469728    ( 0.0000,  0.0000,  0.0000)
  21 Li     1.617046    4.851104   13.469938    ( 0.0000,  0.0000,  0.0000)
  22 Li     4.851111    4.851114   13.469856    ( 0.0000,  0.0000,  0.0000)
  23 Li     8.085177    4.851098   13.469934    ( 0.0000,  0.0000,  0.0000)
  24 Li     1.617045    8.085163   13.469758    ( 0.0000,  0.0000,  0.0000)
  25 Li     4.851104    8.085182   13.469935    ( 0.0000,  0.0000,  0.0000)
  26 Li     8.085183    8.085173   13.469794    ( 0.0000,  0.0000,  0.0000)
  27 Li     0.000015    0.000043   15.437396    ( 0.0000,  0.0000,  0.0000)
  28 Li     3.234272   -0.000002   15.445741    ( 0.0000,  0.0000,  0.0000)
  29 Li     6.467947   -0.000022   15.445726    ( 0.0000,  0.0000,  0.0000)
  30 Li     0.000005    3.234257   15.445752    ( 0.0000,  0.0000,  0.0000)
  31 Li     3.234112    3.234114   15.445792    ( 0.0000,  0.0000,  0.0000)
  32 Li     6.468106    3.234116   15.445793    ( 0.0000,  0.0000,  0.0000)
  33 Li    -0.000014    6.467949   15.445691    ( 0.0000,  0.0000,  0.0000)
  34 Li     3.234094    6.468114   15.445800    ( 0.0000,  0.0000,  0.0000)
  35 Li     6.468146    6.468134   15.445807    ( 0.0000,  0.0000,  0.0000)
  36 O      9.701175    9.699108   19.720222    ( 0.0000,  0.0000,  0.0000)
  37 C      9.697192    9.688563   21.099456    ( 0.0000,  0.0000,  0.0000)
  38 H     10.384273    8.936944   21.481291    ( 0.0000,  0.0000,  0.0000)
  39 H      8.694484    9.508789   21.480514    ( 0.0000,  0.0000,  0.0000)
  40 H     10.029938   10.673707   21.396838    ( 0.0000,  0.0000,  0.0000)
  41 H      9.410735    8.837666   19.343793    ( 0.0000,  0.0000,  0.0000)
  42 N      9.704634    9.709822   17.156222    ( 0.0000,  0.0000,  0.0000)
  43 N      9.700273    9.696866   18.230274    ( 0.0000,  0.0000,  0.0000)

Unit cell:
           periodic     x           y           z      points  spacing
  1. axis:    yes    9.702222    0.000000    0.000000    60     0.1617
  2. axis:    yes    0.000000    9.702222    0.000000    60     0.1617
  3. axis:    no     0.000000    0.000000   26.601111   168     0.1583

  Lengths:   9.702222   9.702222  26.601111
  Angles:   90.000000  90.000000  90.000000

Effective grid spacing dv^(1/3) = 0.1606

     iter     time        total  log10-change:
                         energy  eigst   dens
iter:   1 21:24:03  -275.789333  -0.62
iter:   2 21:24:46  -275.780845  -1.06  -1.76
iter:   3 21:25:29  -275.775469c -1.52  -1.91
iter:   4 21:26:12  -275.779748c -1.76  -2.13
Writing to output.gpw (mode='')

iter:   5 21:27:00  -275.765801c -1.27  -2.11
iter:   6 21:27:43  -275.760854c -2.09  -2.06
iter:   7 21:28:26  -275.761194c -2.41  -2.17
iter:   8 21:29:09  -275.757000c -1.91  -2.17
iter:   9 21:29:52  -275.759153c -2.10  -2.45
Writing to output.gpw (mode='')

iter:  10 21:30:36  -275.757187c -2.19  -2.49
iter:  11 21:31:20  -275.757131c -2.56  -2.58
iter:  12 21:32:03  -275.757004c -3.45  -2.58
iter:  13 21:32:46  -275.757265c -2.60  -2.62
iter:  14 21:33:30  -275.756415c -2.64  -2.60
Writing to output.gpw (mode='')

iter:  15 21:34:14  -275.757328c -2.32  -2.91
iter:  16 21:34:58  -275.756666c -2.46  -2.55
iter:  17 21:35:41  -275.756378c -3.69  -2.79
iter:  18 21:36:24  -275.756337c -3.62  -3.13
iter:  19 21:37:08  -275.756339c -4.32  -3.33
Writing to output.gpw (mode='')

iter:  20 21:37:52  -275.756357c -4.13  -3.35
iter:  21 21:38:35  -275.756381c -3.48  -3.21
iter:  22 21:39:19  -275.756341c -4.53  -3.31
iter:  23 21:40:02  -275.756339c -4.16  -3.66
iter:  24 21:40:45  -275.756339c -5.08  -3.71
Writing to output.gpw (mode='')

iter:  25 21:41:30  -275.756341c -4.75  -3.89
iter:  26 21:42:13  -275.756332c -5.15  -3.76
iter:  27 21:42:56  -275.756331c -5.68  -4.19c
iter:  28 21:43:40  -275.756330c -5.70  -4.22c
iter:  29 21:44:23  -275.756329c -5.54  -4.26c
Writing to output.gpw (mode='')

iter:  30 21:45:08  -275.756330c -5.83  -4.39c
iter:  31 21:45:51  -275.756333c -5.69  -4.37c
iter:  32 21:46:35  -275.756331c -5.90  -4.19c
iter:  33 21:47:18  -275.756330c -5.94  -4.56c
iter:  34 21:48:01  -275.756331c -6.12  -4.65c
Writing to output.gpw (mode='')

iter:  35 21:48:45  -275.756330c -5.97  -4.51c
iter:  36 21:49:29  -275.756331c -6.62  -4.73c
iter:  37 21:50:12  -275.756331c -6.64  -4.97c
iter:  38 21:50:55  -275.756331c -6.76  -5.04c
iter:  39 21:51:39  -275.756331c -6.88  -5.05c
Writing to output.gpw (mode='')

iter:  40 21:52:22  -275.756331c -6.86  -5.15c
iter:  41 21:53:06  -275.756331c -6.85  -5.40c
iter:  42 21:53:49  -275.756331c -7.16  -5.40c
iter:  43 21:54:32  -275.756331c -7.09  -5.51c
iter:  44 21:55:15  -275.756331c -7.07  -5.55c
Writing to output.gpw (mode='')

iter:  45 21:55:59  -275.756331c -7.20  -5.55c
iter:  46 21:56:43  -275.756331c -7.30  -5.54c
iter:  47 21:57:26  -275.756331c -7.44c -5.52c

Converged after 47 iterations.

Dipole moment: (-16.734154, -13.184993, 0.295712) |e|*Ang

Energy contributions relative to reference atoms: (reference = -13382.245603)

Kinetic:       +180.547448
Potential:     -160.362412
External:        +0.000000
XC:            -296.513555
Entropy (-ST):   -0.144530
Local:           +0.644452
--------------------------
Free energy:   -275.828596
Extrapolated:  -275.756331

Dipole-layer corrected work functions: 3.385319, 2.816859 eV

Showing only first 2 kpts
 Kpt  Band  Eigenvalues  Occupancy
  0    28     -3.35165    1.98676
  0    29     -3.28127    1.94699
  0    30     -2.92381    0.05609
  0    31     -2.85727    0.01513

  1    28     -3.14205    1.38813
  1    29     -3.08678    0.85790
  1    30     -3.07974    0.78967
  1    31     -3.00990    0.27798


Fermi level: -3.10109

No gap
Writing to output.gpw (mode='')


Forces in eV/Ang:
  0 Li    0.00736    0.00696   -0.26852
  1 Li   -0.00050   -0.00061   -0.26822
  2 Li   -0.00701    0.00612   -0.26810
  3 Li   -0.00089    0.00009   -0.26861
  4 Li   -0.00025   -0.00069   -0.28470
  5 Li    0.00103    0.00145   -0.26888
  6 Li    0.00554   -0.00711   -0.26827
  7 Li    0.00085    0.00097   -0.26896
  8 Li   -0.00612   -0.00719   -0.26864
  9 Li    0.00021    0.00065    0.30887
 10 Li    0.01124    0.00021    0.25922
 11 Li   -0.01162   -0.00041    0.25793
 12 Li    0.00019    0.01200    0.26008
 13 Li    0.00505    0.00287    0.25602
 14 Li   -0.00487    0.00190    0.25666
 15 Li   -0.00029   -0.01321    0.25550
 16 Li    0.00179   -0.00271    0.25770
 17 Li   -0.00192   -0.00191    0.25834
 18 Li    0.00580    0.00620   -0.00138
 19 Li    0.00024    0.00019    0.04808
 20 Li   -0.00611    0.00551   -0.00235
 21 Li    0.00160   -0.00108    0.04595
 22 Li   -0.00001    0.00043    0.02741
 23 Li   -0.00150   -0.00267    0.04524
 24 Li    0.00242   -0.00552    0.00410
 25 Li   -0.00151   -0.00029    0.04549
 26 Li   -0.00125   -0.00351    0.01202
 27 Li    0.00305    0.00872   -2.16291
 28 Li    0.04234   -0.00032   -0.04223
 29 Li   -0.04300   -0.00461   -0.04602
 30 Li    0.00122    0.03935   -0.03937
 31 Li    0.00808    0.00881   -0.03230
 32 Li   -0.00911    0.00950   -0.03205
 33 Li   -0.00301   -0.04230   -0.05441
 34 Li    0.00493   -0.00772   -0.03118
 35 Li   -0.00111   -0.00371   -0.03009
 36 O    -0.28458   -0.84954   13.98454
 37 C     0.06894    0.20554    4.66586
 38 H     0.13221   -0.10307    0.38454
 39 H    -0.16171   -0.00074    0.37968
 40 H     0.07430    0.21802    0.41070
 41 H     0.01362    0.04369    2.02969
 42 N     0.48024    1.42470   -6.26414
 43 N    -0.32559   -0.96790  -13.16731

System changes: positions 

Initializing position-dependent things.

Density initialized from wave functions
       .-----------------------.  
      /|                       |  
     / |                       |  
    /  |                       |  
   /   |                       |  
  /    |                       |  
 *     |                    H  |  
 |     |H                      C  
 |     |                       O  
 |     |                       |  
 |     |                      HN  
 |     |                       |  
 |H    |                       |  
 |     |                       |  
 |     |       Li      Li      |  
 |     |                       |  
 |     |     Li      Li      Li|  
 |     |  Li      Li      Li   |  
 N Li  |   Li      Li          |  
 |     |Li      Li      Li     |  
 Li    |                       |  
 |   LLi     LLi     LLi       |  
 |     |  Li      Li      Li   |  
 | Li  |   Li      Li          |  
 |     |Li      Li      Li     |  
 Li    | Li      Li            |  
 |    Li      Li      Li       |  
 |     |                       |  
 |     |                       |  
 |     |                       |  
 |     |                       |  
 |     |                       |  
 |     |                       |  
 |     .-----------------------.  
 |    /                       /   
 |   /                       /    
 |  /                       /     
 | /                       /      
 |/                       /       
 *-----------------------*        

Positions:
   0 Li     1.617037    1.617037   10.000000    ( 0.0000,  0.0000,  0.0000)
   1 Li     4.851111    1.617037   10.000000    ( 0.0000,  0.0000,  0.0000)
   2 Li     8.085185    1.617037   10.000000    ( 0.0000,  0.0000,  0.0000)
   3 Li     1.617037    4.851111   10.000000    ( 0.0000,  0.0000,  0.0000)
   4 Li     4.851111    4.851111   10.000000    ( 0.0000,  0.0000,  0.0000)
   5 Li     8.085185    4.851111   10.000000    ( 0.0000,  0.0000,  0.0000)
   6 Li     1.617037    8.085185   10.000000    ( 0.0000,  0.0000,  0.0000)
   7 Li     4.851111    8.085185   10.000000    ( 0.0000,  0.0000,  0.0000)
   8 Li     8.085185    8.085185   10.000000    ( 0.0000,  0.0000,  0.0000)
   9 Li     0.000000    0.000000   11.617037    ( 0.0000,  0.0000,  0.0000)
  10 Li     3.234074    0.000000   11.617037    ( 0.0000,  0.0000,  0.0000)
  11 Li     6.468148    0.000000   11.617037    ( 0.0000,  0.0000,  0.0000)
  12 Li     0.000000    3.234074   11.617037    ( 0.0000,  0.0000,  0.0000)
  13 Li     3.234074    3.234074   11.617037    ( 0.0000,  0.0000,  0.0000)
  14 Li     6.468148    3.234074   11.617037    ( 0.0000,  0.0000,  0.0000)
  15 Li     0.000000    6.468148   11.617037    ( 0.0000,  0.0000,  0.0000)
  16 Li     3.234074    6.468148   11.617037    ( 0.0000,  0.0000,  0.0000)
  17 Li     6.468148    6.468148   11.617037    ( 0.0000,  0.0000,  0.0000)
  18 Li     1.617093    1.617100   13.469725    ( 0.0000,  0.0000,  0.0000)
  19 Li     4.851114    1.617048   13.470178    ( 0.0000,  0.0000,  0.0000)
  20 Li     8.085129    1.617095   13.469716    ( 0.0000,  0.0000,  0.0000)
  21 Li     1.617060    4.851107   13.470163    ( 0.0000,  0.0000,  0.0000)
  22 Li     4.851109    4.851110   13.469975    ( 0.0000,  0.0000,  0.0000)
  23 Li     8.085165    4.851096   13.470160    ( 0.0000,  0.0000,  0.0000)
  24 Li     1.617074    8.085129   13.469764    ( 0.0000,  0.0000,  0.0000)
  25 Li     4.851102    8.085179   13.470161    ( 0.0000,  0.0000,  0.0000)
  26 Li     8.085154    8.085139   13.469823    ( 0.0000,  0.0000,  0.0000)
  27 Li     0.000023    0.000064   15.423256    ( 0.0000,  0.0000,  0.0000)
  28 Li     3.234535   -0.000004   15.445486    ( 0.0000,  0.0000,  0.0000)
  29 Li     6.467686   -0.000037   15.445447    ( 0.0000,  0.0000,  0.0000)
  30 Li     0.000009    3.234539   15.445503    ( 0.0000,  0.0000,  0.0000)
  31 Li     3.234145    3.234155   15.445632    ( 0.0000,  0.0000,  0.0000)
  32 Li     6.468066    3.234167   15.445634    ( 0.0000,  0.0000,  0.0000)
  33 Li    -0.000023    6.467677   15.445353    ( 0.0000,  0.0000,  0.0000)
  34 Li     3.234132    6.468072   15.445635    ( 0.0000,  0.0000,  0.0000)
  35 Li     6.468121    6.468101   15.445637    ( 0.0000,  0.0000,  0.0000)
  36 O      9.698630    9.691499   19.759409    ( 0.0000,  0.0000,  0.0000)
  37 C      9.696571    9.686510   21.107558    ( 0.0000,  0.0000,  0.0000)
  38 H     10.385791    8.935506   21.485584    ( 0.0000,  0.0000,  0.0000)
  39 H      8.692439    9.508568   21.484774    ( 0.0000,  0.0000,  0.0000)
  40 H     10.030689   10.675912   21.400198    ( 0.0000,  0.0000,  0.0000)
  41 H      9.413364    8.845525   19.353175    ( 0.0000,  0.0000,  0.0000)
  42 N      9.705188    9.711454   17.131954    ( 0.0000,  0.0000,  0.0000)
  43 N      9.699965    9.695911   18.202849    ( 0.0000,  0.0000,  0.0000)

Unit cell:
           periodic     x           y           z      points  spacing
  1. axis:    yes    9.702222    0.000000    0.000000    60     0.1617
  2. axis:    yes    0.000000    9.702222    0.000000    60     0.1617
  3. axis:    no     0.000000    0.000000   26.601111   168     0.1583

  Lengths:   9.702222   9.702222  26.601111
  Angles:   90.000000  90.000000  90.000000

Effective grid spacing dv^(1/3) = 0.1606

     iter     time        total  log10-change:
                         energy  eigst   dens
iter:   1 21:58:25  -276.996903  -0.64
iter:   2 21:59:08  -276.874477  -0.69  -1.45
iter:   3 21:59:51  -276.837211  -1.48  -1.65
iter:   4 22:00:35  -276.819759  -0.94  -2.04
Writing to output.gpw (mode='')

iter:   5 22:01:18  -276.819701c -1.56  -2.09
iter:   6 22:02:01  -276.818453c -1.79  -2.21
iter:   7 22:02:44  -276.819419c -1.67  -2.43
iter:   8 22:03:27  -276.817973c -2.28  -2.53
iter:   9 22:04:10  -276.817745c -2.30  -2.66
Writing to output.gpw (mode='')

iter:  10 22:04:54  -276.818060c -2.68  -2.73
iter:  11 22:05:38  -276.818201c -2.97  -2.81
iter:  12 22:06:21  -276.818115c -2.87  -2.80
iter:  13 22:07:04  -276.818019c -3.01  -2.91
iter:  14 22:07:47  -276.818027c -2.98  -2.97
Writing to output.gpw (mode='')

iter:  15 22:08:31  -276.817924c -3.44  -3.16
iter:  16 22:09:14  -276.817950c -3.83  -3.35
iter:  17 22:09:57  -276.817974c -3.93  -3.54
iter:  18 22:10:40  -276.817966c -4.09  -3.51
iter:  19 22:11:23  -276.817983c -4.31  -3.55
Writing to output.gpw (mode='')

iter:  20 22:12:07  -276.817969c -4.55  -3.51
iter:  21 22:12:50  -276.817963c -4.56  -3.67
iter:  22 22:13:33  -276.817961c -4.57  -3.73
iter:  23 22:14:16  -276.817970c -4.79  -3.92
iter:  24 22:14:59  -276.817969c -5.13  -4.02c
Writing to output.gpw (mode='')

iter:  25 22:15:43  -276.817965c -5.16  -4.08c
iter:  26 22:16:26  -276.817966c -5.45  -4.21c
iter:  27 22:17:09  -276.817970c -5.09  -4.36c
iter:  28 22:17:51  -276.817968c -5.85  -4.35c
iter:  29 22:18:35  -276.817966c -5.69  -4.52c
Writing to output.gpw (mode='')

iter:  30 22:19:18  -276.817967c -5.83  -4.58c
iter:  31 22:20:01  -276.817967c -5.92  -4.67c
iter:  32 22:20:44  -276.817966c -5.90  -4.72c
iter:  33 22:21:27  -276.817966c -6.33  -4.81c
iter:  34 22:22:10  -276.817968c -6.30  -4.83c
Writing to output.gpw (mode='')

iter:  35 22:22:54  -276.817967c -6.40  -4.96c
iter:  36 22:23:37  -276.817967c -6.35  -5.11c
iter:  37 22:24:20  -276.817967c -6.49  -5.19c
iter:  38 22:25:03  -276.817967c -6.70  -5.26c
iter:  39 22:25:46  -276.817967c -6.75  -5.31c
Writing to output.gpw (mode='')

iter:  40 22:26:30  -276.817967c -6.80  -5.48c
iter:  41 22:27:13  -276.817967c -6.69  -5.55c
iter:  42 22:27:56  -276.817967c -6.68  -5.64c
iter:  43 22:28:39  -276.817967c -7.21  -5.60c
iter:  44 22:29:22  -276.817967c -7.26  -5.79c
Writing to output.gpw (mode='')

iter:  45 22:30:06  -276.817967c -7.16  -6.02c
iter:  46 22:30:49  -276.817967c -7.13  -6.09c
iter:  47 22:31:32  -276.817967c -7.28  -6.11c
iter:  48 22:32:15  -276.817967c -7.29  -6.20c
iter:  49 22:32:58  -276.817967c -7.38  -6.22c
Writing to output.gpw (mode='')

iter:  50 22:33:42  -276.817967c -7.42c -6.38c

Converged after 50 iterations.

Dipole moment: (-16.427429, -12.330941, 0.298713) |e|*Ang

Energy contributions relative to reference atoms: (reference = -13382.245603)

Kinetic:       +178.959940
Potential:     -159.623683
External:        +0.000000
XC:            -296.734685
Entropy (-ST):   -0.144244
Local:           +0.652583
--------------------------
Free energy:   -276.890089
Extrapolated:  -276.817967

Dipole-layer corrected work functions: 3.385564, 2.811336 eV

Showing only first 2 kpts
 Kpt  Band  Eigenvalues  Occupancy
  0    28     -3.34944    1.98688
  0    29     -3.27943    1.94781
  0    30     -2.91973    0.05454
  0    31     -2.85565    0.01544

  1    28     -3.13756    1.37233
  1    29     -3.08403    0.85679
  1    30     -3.07821    0.80033
  1    31     -3.00615    0.27268


Fermi level: -3.09845

No gap

Forces in eV/Ang:
  0 Li    0.00716    0.00688   -0.26877
  1 Li   -0.00050   -0.00090   -0.26801
  2 Li   -0.00682    0.00614   -0.26838
  3 Li   -0.00116   -0.00001   -0.26835
  4 Li   -0.00021   -0.00062   -0.28481
  5 Li    0.00127    0.00131   -0.26862
  6 Li    0.00558   -0.00698   -0.26851
  7 Li    0.00080    0.00117   -0.26873
  8 Li   -0.00610   -0.00709   -0.26887
  9 Li    0.00015    0.00043    0.30965
 10 Li    0.01121    0.00024    0.25931
 11 Li   -0.01152   -0.00034    0.25817
 12 Li    0.00020    0.01203    0.25991
 13 Li    0.00508    0.00317    0.25598
 14 Li   -0.00488    0.00228    0.25656
 15 Li   -0.00026   -0.01301    0.25595
 16 Li    0.00228   -0.00297    0.25750
 17 Li   -0.00244   -0.00233    0.25808
 18 Li    0.00752    0.00808   -0.00343
 19 Li    0.00032    0.00060    0.04757
 20 Li   -0.00782    0.00750   -0.00452
 21 Li    0.00187   -0.00076    0.04569
 22 Li   -0.00007    0.00021    0.02716
 23 Li   -0.00171   -0.00231    0.04512
 24 Li    0.00468   -0.00754    0.00134
 25 Li   -0.00136   -0.00047    0.04535
 26 Li   -0.00365   -0.00577    0.00870
 27 Li    0.00252    0.00708   -2.30441
 28 Li    0.04348   -0.00026   -0.04360
 29 Li   -0.04406   -0.00428   -0.04781
 30 Li    0.00118    0.04105   -0.04073
 31 Li    0.00767    0.00854   -0.03220
 32 Li   -0.00876    0.00942   -0.03205
 33 Li   -0.00277   -0.04347   -0.05675
 34 Li    0.00522   -0.00772   -0.03158
 35 Li   -0.00170   -0.00411   -0.03094
 36 O    -0.19779   -0.60184   10.82453
 37 C     0.02317    0.09073    4.55034
 38 H     0.14745   -0.12680    0.54335
 39 H    -0.18443   -0.01512    0.53542
 40 H     0.04886    0.14087    0.44066
 41 H     0.00683    0.00794    1.90602
 42 N     0.39108    1.15788   -6.15735
 43 N    -0.25387   -0.74609  -10.16603

System changes: positions 

Initializing position-dependent things.

Density initialized from wave functions
       .-----------------------.  
      /|                       |  
     / |                       |  
    /  |                       |  
   /   |                       |  
  /    |                       |  
 *     |                    H  |  
 |     |H                      C  
 |     |                       O  
 |     |                      H|  
 |     |                       N  
 |     |                       |  
 |H    |                       |  
 |     |                       |  
 |     |       Li      Li      |  
 |     |                       |  
 |     |     Li      Li      Li|  
 |     |  Li      Li      Li   |  
 N Li  |   Li      Li          |  
 |     |Li      Li      Li     |  
 Li    |                       |  
 |   LLi     LLi     LLi       |  
 |     |  Li      Li      Li   |  
 | Li  |   Li      Li          |  
 |     |Li      Li      Li     |  
 Li    | Li      Li            |  
 |    Li      Li      Li       |  
 |     |                       |  
 |     |                       |  
 |     |                       |  
 |     |                       |  
 |     |                       |  
 |     |                       |  
 |     .-----------------------.  
 |    /                       /   
 |   /                       /    
 |  /                       /     
 | /                       /      
 |/                       /       
 *-----------------------*        

Positions:
   0 Li     1.617037    1.617037   10.000000    ( 0.0000,  0.0000,  0.0000)
   1 Li     4.851111    1.617037   10.000000    ( 0.0000,  0.0000,  0.0000)
   2 Li     8.085185    1.617037   10.000000    ( 0.0000,  0.0000,  0.0000)
   3 Li     1.617037    4.851111   10.000000    ( 0.0000,  0.0000,  0.0000)
   4 Li     4.851111    4.851111   10.000000    ( 0.0000,  0.0000,  0.0000)
   5 Li     8.085185    4.851111   10.000000    ( 0.0000,  0.0000,  0.0000)
   6 Li     1.617037    8.085185   10.000000    ( 0.0000,  0.0000,  0.0000)
   7 Li     4.851111    8.085185   10.000000    ( 0.0000,  0.0000,  0.0000)
   8 Li     8.085185    8.085185   10.000000    ( 0.0000,  0.0000,  0.0000)
   9 Li     0.000000    0.000000   11.617037    ( 0.0000,  0.0000,  0.0000)
  10 Li     3.234074    0.000000   11.617037    ( 0.0000,  0.0000,  0.0000)
  11 Li     6.468148    0.000000   11.617037    ( 0.0000,  0.0000,  0.0000)
  12 Li     0.000000    3.234074   11.617037    ( 0.0000,  0.0000,  0.0000)
  13 Li     3.234074    3.234074   11.617037    ( 0.0000,  0.0000,  0.0000)
  14 Li     6.468148    3.234074   11.617037    ( 0.0000,  0.0000,  0.0000)
  15 Li     0.000000    6.468148   11.617037    ( 0.0000,  0.0000,  0.0000)
  16 Li     3.234074    6.468148   11.617037    ( 0.0000,  0.0000,  0.0000)
  17 Li     6.468148    6.468148   11.617037    ( 0.0000,  0.0000,  0.0000)
  18 Li     1.617180    1.617198   13.469669    ( 0.0000,  0.0000,  0.0000)
  19 Li     4.851119    1.617065   13.470592    ( 0.0000,  0.0000,  0.0000)
  20 Li     8.085041    1.617189   13.469650    ( 0.0000,  0.0000,  0.0000)
  21 Li     1.617084    4.851110   13.470570    ( 0.0000,  0.0000,  0.0000)
  22 Li     4.851106    4.851104   13.470201    ( 0.0000,  0.0000,  0.0000)
  23 Li     8.085145    4.851090   13.470566    ( 0.0000,  0.0000,  0.0000)
  24 Li     1.617153    8.085034   13.469732    ( 0.0000,  0.0000,  0.0000)
  25 Li     4.851096    8.085172   13.470567    ( 0.0000,  0.0000,  0.0000)
  26 Li     8.085078    8.085050   13.469836    ( 0.0000,  0.0000,  0.0000)
  27 Li     0.000035    0.000092   15.397377    ( 0.0000,  0.0000,  0.0000)
  28 Li     3.234978   -0.000006   15.445047    ( 0.0000,  0.0000,  0.0000)
  29 Li     6.467245   -0.000065   15.444960    ( 0.0000,  0.0000,  0.0000)
  30 Li     0.000017    3.234995   15.445083    ( 0.0000,  0.0000,  0.0000)
  31 Li     3.234206    3.234230   15.445343    ( 0.0000,  0.0000,  0.0000)
  32 Li     6.467994    3.234257   15.445345    ( 0.0000,  0.0000,  0.0000)
  33 Li    -0.000040    6.467228   15.444763    ( 0.0000,  0.0000,  0.0000)
  34 Li     3.234196    6.467997   15.445337    ( 0.0000,  0.0000,  0.0000)
  35 Li     6.468079    6.468044   15.445330    ( 0.0000,  0.0000,  0.0000)
  36 O      9.696416    9.684672   19.795294    ( 0.0000,  0.0000,  0.0000)
  37 C      9.695432    9.683302   21.132587    ( 0.0000,  0.0000,  0.0000)
  38 H     10.388150    8.933191   21.494382    ( 0.0000,  0.0000,  0.0000)
  39 H      8.689287    9.508079   21.493464    ( 0.0000,  0.0000,  0.0000)
  40 H     10.031283   10.677612   21.405852    ( 0.0000,  0.0000,  0.0000)
  41 H      9.416014    8.853192   19.368442    ( 0.0000,  0.0000,  0.0000)
  42 N      9.706006    9.713825   17.092033    ( 0.0000,  0.0000,  0.0000)
  43 N      9.699622    9.695007   18.171910    ( 0.0000,  0.0000,  0.0000)

Unit cell:
           periodic     x           y           z      points  spacing
  1. axis:    yes    9.702222    0.000000    0.000000    60     0.1617
  2. axis:    yes    0.000000    9.702222    0.000000    60     0.1617
  3. axis:    no     0.000000    0.000000   26.601111   168     0.1583

  Lengths:   9.702222   9.702222  26.601111
  Angles:   90.000000  90.000000  90.000000

Effective grid spacing dv^(1/3) = 0.1606

     iter     time        total  log10-change:
                         energy  eigst   dens
iter:   1 22:34:41  -277.975550  -0.60
iter:   2 22:35:24  -277.912424  -0.89  -1.57
iter:   3 22:36:07  -277.889769  -1.71  -1.75
iter:   4 22:36:50  -277.872879  -0.93  -2.11
Writing to output.gpw (mode='')

iter:   5 22:37:34  -277.875339c -1.42  -2.11
iter:   6 22:38:17  -277.870754c -2.05  -2.16
iter:   7 22:39:00  -277.869774c -1.87  -2.37
iter:   8 22:39:43  -277.870912c -2.08  -2.49
iter:   9 22:40:27  -277.870148c -2.58  -2.59
Writing to output.gpw (mode='')

iter:  10 22:41:11  -277.869879c -2.40  -2.66
iter:  11 22:41:54  -277.869120c -2.80  -2.81
iter:  12 22:42:37  -277.869664c -2.31  -2.93
iter:  13 22:43:20  -277.869302c -3.24  -2.86
iter:  14 22:44:03  -277.869194c -3.33  -3.04
Writing to output.gpw (mode='')

iter:  15 22:44:47  -277.869186c -3.63  -3.20
iter:  16 22:45:30  -277.869175c -3.87  -3.26
iter:  17 22:46:14  -277.869180c -3.80  -3.47
iter:  18 22:46:57  -277.869172c -4.27  -3.46
iter:  19 22:47:40  -277.869174c -4.62  -3.63
Writing to output.gpw (mode='')

iter:  20 22:48:27  -277.869178c -4.64  -3.79
iter:  21 22:49:10  -277.869178c -4.86  -3.97
iter:  22 22:49:54  -277.869177c -4.85  -3.99
iter:  23 22:50:37  -277.869179c -5.24  -4.04c
iter:  24 22:51:20  -277.869179c -5.16  -4.10c
Writing to output.gpw (mode='')

iter:  25 22:52:03  -277.869176c -5.35  -4.18c
iter:  26 22:52:47  -277.869176c -5.52  -4.37c
iter:  27 22:53:30  -277.869176c -5.69  -4.38c
iter:  28 22:54:13  -277.869177c -5.69  -4.42c
iter:  29 22:54:56  -277.869176c -5.98  -4.54c
Writing to output.gpw (mode='')

iter:  30 22:55:41  -277.869176c -5.83  -4.77c
iter:  31 22:56:24  -277.869176c -6.08  -4.76c
iter:  32 22:57:07  -277.869177c -6.13  -4.78c
iter:  33 22:57:50  -277.869177c -6.18  -4.91c
iter:  34 22:58:34  -277.869177c -6.10  -4.99c
Writing to output.gpw (mode='')

iter:  35 22:59:18  -277.869177c -6.28  -5.00c
iter:  36 23:00:02  -277.869177c -6.62  -5.02c
iter:  37 23:00:45  -277.869177c -6.72  -5.05c
iter:  38 23:01:28  -277.869177c -6.87  -5.26c
iter:  39 23:02:11  -277.869177c -6.51  -5.32c
Writing to output.gpw (mode='')

iter:  40 23:02:55  -277.869177c -6.84  -5.39c
iter:  41 23:03:38  -277.869177c -6.83  -5.45c
iter:  42 23:04:21  -277.869177c -6.95  -5.48c
iter:  43 23:05:04  -277.869177c -7.04  -5.59c
iter:  44 23:05:47  -277.869177c -7.16  -5.62c
Writing to output.gpw (mode='')

iter:  45 23:06:31  -277.869177c -7.00  -5.70c
iter:  46 23:07:15  -277.869177c -6.97  -5.81c
iter:  47 23:07:58  -277.869177c -7.08  -5.87c
iter:  48 23:08:41  -277.869177c -7.41c -6.04c

Converged after 48 iterations.

Dipole moment: (-16.147183, -11.545515, 0.278343) |e|*Ang

Energy contributions relative to reference atoms: (reference = -13382.245603)

Kinetic:       +174.643055
Potential:     -156.686418
External:        +0.000000
XC:            -296.414388
Entropy (-ST):   -0.143643
Local:           +0.660396
--------------------------
Free energy:   -277.940998
Extrapolated:  -277.869177

Dipole-layer corrected work functions: 3.387008, 2.851938 eV

Showing only first 2 kpts
 Kpt  Band  Eigenvalues  Occupancy
  0    28     -3.37069    1.98693
  0    29     -3.30185    1.94922
  0    30     -2.93790    0.05158
  0    31     -2.88054    0.01668

  1    28     -3.15622    1.35180
  1    29     -3.10575    0.86358
  1    30     -3.10071    0.81452
  1    31     -3.02309    0.25402


Fermi level: -3.11947

No gap
Writing to output.gpw (mode='')


Forces in eV/Ang:
  0 Li    0.00716    0.00699   -0.26943
  1 Li   -0.00050   -0.00125   -0.26771
  2 Li   -0.00685    0.00632   -0.26902
  3 Li   -0.00152   -0.00005   -0.26800
  4 Li   -0.00017   -0.00057   -0.28557
  5 Li    0.00159    0.00125   -0.26829
  6 Li    0.00573   -0.00708   -0.26909
  7 Li    0.00078    0.00142   -0.26847
  8 Li   -0.00623   -0.00721   -0.26944
  9 Li    0.00012    0.00035    0.31234
 10 Li    0.01117    0.00022    0.25994
 11 Li   -0.01147   -0.00034    0.25881
 12 Li    0.00020    0.01205    0.26032
 13 Li    0.00562    0.00382    0.25570
 14 Li   -0.00536    0.00290    0.25616
 15 Li   -0.00026   -0.01297    0.25656
 16 Li    0.00296   -0.00352    0.25701
 17 Li   -0.00315   -0.00296    0.25761
 18 Li    0.01136    0.01204   -0.00979
 19 Li    0.00040    0.00089    0.04712
 20 Li   -0.01172    0.01151   -0.01101
 21 Li    0.00207   -0.00055    0.04542
 22 Li   -0.00010    0.00010    0.02715
 23 Li   -0.00188   -0.00216    0.04494
 24 Li    0.00869   -0.01163   -0.00535
 25 Li   -0.00133   -0.00061    0.04516
 26 Li   -0.00770   -0.00987    0.00186
 27 Li    0.00197    0.00529   -2.47699
 28 Li    0.04079   -0.00017   -0.04184
 29 Li   -0.04138   -0.00406   -0.04653
 30 Li    0.00120    0.03822   -0.03874
 31 Li    0.00793    0.00897   -0.03226
 32 Li   -0.00908    0.01000   -0.03225
 33 Li   -0.00260   -0.04050   -0.05596
 34 Li    0.00600   -0.00832   -0.03216
 35 Li   -0.00272   -0.00500   -0.03194
 36 O    -0.09027   -0.24171    7.94028
 37 C     0.00085    0.04441    3.89698
 38 H     0.19709   -0.19705    0.73897
 39 H    -0.27256   -0.05371    0.74006
 40 H     0.04366    0.12695    0.55673
 41 H    -0.03295   -0.09912    1.70091
 42 N     0.33307    0.98221   -4.19555
 43 N    -0.16502   -0.48661   -8.72016

System changes: positions 

Initializing position-dependent things.

Density initialized from wave functions
       .-----------------------.  
      /|                       |  
     / |                       |  
    /  |                       |  
   /   |                       |  
  /    |                       |  
 *     |                    H  |  
 |     |H                      C  
 |     |                       O  
 |     |                      H|  
 |     |                       |  
 |     |                       N  
 |H    |                       |  
 |     |                       |  
 |     |       Li      Li      |  
 |     |                       |  
 |     |     Li      Li      Li|  
 |     |  Li      Li      Li   |  
 N Li  |   Li      Li          |  
 |     |Li      Li      Li     |  
 Li    |                       |  
 |   LLi     LLi     LLi       |  
 |     |  Li      Li      Li   |  
 | Li  |   Li      Li          |  
 |     |Li      Li      Li     |  
 Li    | Li      Li            |  
 |    Li      Li      Li       |  
 |     |                       |  
 |     |                       |  
 |     |                       |  
 |     |                       |  
 |     |                       |  
 |     |                       |  
 |     .-----------------------.  
 |    /                       /   
 |   /                       /    
 |  /                       /     
 | /                       /      
 |/                       /       
 *-----------------------*        

Positions:
   0 Li     1.617037    1.617037   10.000000    ( 0.0000,  0.0000,  0.0000)
   1 Li     4.851111    1.617037   10.000000    ( 0.0000,  0.0000,  0.0000)
   2 Li     8.085185    1.617037   10.000000    ( 0.0000,  0.0000,  0.0000)
   3 Li     1.617037    4.851111   10.000000    ( 0.0000,  0.0000,  0.0000)
   4 Li     4.851111    4.851111   10.000000    ( 0.0000,  0.0000,  0.0000)
   5 Li     8.085185    4.851111   10.000000    ( 0.0000,  0.0000,  0.0000)
   6 Li     1.617037    8.085185   10.000000    ( 0.0000,  0.0000,  0.0000)
   7 Li     4.851111    8.085185   10.000000    ( 0.0000,  0.0000,  0.0000)
   8 Li     8.085185    8.085185   10.000000    ( 0.0000,  0.0000,  0.0000)
   9 Li     0.000000    0.000000   11.617037    ( 0.0000,  0.0000,  0.0000)
  10 Li     3.234074    0.000000   11.617037    ( 0.0000,  0.0000,  0.0000)
  11 Li     6.468148    0.000000   11.617037    ( 0.0000,  0.0000,  0.0000)
  12 Li     0.000000    3.234074   11.617037    ( 0.0000,  0.0000,  0.0000)
  13 Li     3.234074    3.234074   11.617037    ( 0.0000,  0.0000,  0.0000)
  14 Li     6.468148    3.234074   11.617037    ( 0.0000,  0.0000,  0.0000)
  15 Li     0.000000    6.468148   11.617037    ( 0.0000,  0.0000,  0.0000)
  16 Li     3.234074    6.468148   11.617037    ( 0.0000,  0.0000,  0.0000)
  17 Li     6.468148    6.468148   11.617037    ( 0.0000,  0.0000,  0.0000)
  18 Li     1.617364    1.617397   13.469498    ( 0.0000,  0.0000,  0.0000)
  19 Li     4.851126    1.617092   13.471196    ( 0.0000,  0.0000,  0.0000)
  20 Li     8.084855    1.617384   13.469462    ( 0.0000,  0.0000,  0.0000)
  21 Li     1.617122    4.851116   13.471162    ( 0.0000,  0.0000,  0.0000)
  22 Li     4.851102    4.851096   13.470536    ( 0.0000,  0.0000,  0.0000)
  23 Li     8.085113    4.851079   13.471158    ( 0.0000,  0.0000,  0.0000)
  24 Li     1.617323    8.084838   13.469595    ( 0.0000,  0.0000,  0.0000)
  25 Li     4.851087    8.085160   13.471160    ( 0.0000,  0.0000,  0.0000)
  26 Li     8.084913    8.084864   13.469768    ( 0.0000,  0.0000,  0.0000)
  27 Li     0.000046    0.000114   15.358831    ( 0.0000,  0.0000,  0.0000)
  28 Li     3.235581   -0.000009   15.444434    ( 0.0000,  0.0000,  0.0000)
  29 Li     6.466642   -0.000106   15.444273    ( 0.0000,  0.0000,  0.0000)
  30 Li     0.000030    3.235609   15.444501    ( 0.0000,  0.0000,  0.0000)
  31 Li     3.234300    3.234344   15.444919    ( 0.0000,  0.0000,  0.0000)
  32 Li     6.467882    3.234394   15.444918    ( 0.0000,  0.0000,  0.0000)
  33 Li    -0.000065    6.466620   15.443924    ( 0.0000,  0.0000,  0.0000)
  34 Li     3.234296    6.467881   15.444896    ( 0.0000,  0.0000,  0.0000)
  35 Li     6.468010    6.467954   15.444873    ( 0.0000,  0.0000,  0.0000)
  36 O      9.695049    9.681017   19.826462    ( 0.0000,  0.0000,  0.0000)
  37 C      9.693813    9.679045   21.162167    ( 0.0000,  0.0000,  0.0000)
  38 H     10.392112    8.928995   21.509099    ( 0.0000,  0.0000,  0.0000)
  39 H      8.683650    9.506829   21.508198    ( 0.0000,  0.0000,  0.0000)
  40 H     10.032088   10.679947   21.415497    ( 0.0000,  0.0000,  0.0000)
  41 H      9.418408    8.860248   19.388194    ( 0.0000,  0.0000,  0.0000)
  42 N      9.707248    9.717384   17.052211    ( 0.0000,  0.0000,  0.0000)
  43 N      9.699980    9.696127   18.134054    ( 0.0000,  0.0000,  0.0000)

Unit cell:
           periodic     x           y           z      points  spacing
  1. axis:    yes    9.702222    0.000000    0.000000    60     0.1617
  2. axis:    yes    0.000000    9.702222    0.000000    60     0.1617
  3. axis:    no     0.000000    0.000000   26.601111   168     0.1583

  Lengths:   9.702222   9.702222  26.601111
  Angles:   90.000000  90.000000  90.000000

Effective grid spacing dv^(1/3) = 0.1606

     iter     time        total  log10-change:
                         energy  eigst   dens
iter:   1 23:09:42  -278.914492  -0.55
iter:   2 23:10:25  -278.829324  -0.80  -1.53
iter:   3 23:11:09  -278.803661  -1.72  -1.73
iter:   4 23:11:52  -278.801251c -0.81  -2.12
Writing to output.gpw (mode='')

iter:   5 23:12:36  -278.790103c -1.84  -1.95
iter:   6 23:13:19  -278.785410c -1.95  -2.14
iter:   7 23:14:02  -278.790192c -1.68  -2.40
iter:   8 23:14:45  -278.786647c -2.21  -2.47
iter:   9 23:15:28  -278.785867c -2.06  -2.60
Writing to output.gpw (mode='')

iter:  10 23:16:12  -278.785837c -2.39  -2.72
iter:  11 23:16:56  -278.786015c -2.64  -2.76
iter:  12 23:17:38  -278.785548c -2.74  -2.80
iter:  13 23:18:22  -278.785465c -3.60  -2.87
iter:  14 23:19:05  -278.785439c -3.60  -3.14
Writing to output.gpw (mode='')

iter:  15 23:19:49  -278.785439c -3.66  -3.20
iter:  16 23:20:32  -278.785425c -4.07  -3.33
iter:  17 23:21:15  -278.785427c -4.04  -3.35
iter:  18 23:21:58  -278.785433c -4.29  -3.60
iter:  19 23:22:41  -278.785433c -4.66  -3.63
Writing to output.gpw (mode='')

iter:  20 23:23:25  -278.785439c -4.43  -3.64
iter:  21 23:24:08  -278.785446c -4.50  -4.01c
iter:  22 23:24:51  -278.785443c -5.09  -3.93
iter:  23 23:25:34  -278.785441c -5.10  -4.05c
iter:  24 23:26:17  -278.785436c -5.43  -4.10c
Writing to output.gpw (mode='')

iter:  25 23:27:01  -278.785437c -5.52  -4.23c
iter:  26 23:27:44  -278.785436c -5.79  -4.34c
iter:  27 23:28:27  -278.785436c -5.80  -4.48c
iter:  28 23:29:10  -278.785437c -5.69  -4.51c
iter:  29 23:29:54  -278.785435c -5.88  -4.57c
Writing to output.gpw (mode='')

iter:  30 23:30:37  -278.785435c -6.06  -4.65c
iter:  31 23:31:21  -278.785436c -6.00  -4.66c
iter:  32 23:32:04  -278.785436c -6.23  -4.82c
iter:  33 23:32:47  -278.785436c -6.14  -4.86c
iter:  34 23:33:30  -278.785436c -6.52  -4.92c
Writing to output.gpw (mode='')

iter:  35 23:34:14  -278.785436c -6.26  -5.08c
iter:  36 23:34:58  -278.785436c -6.35  -5.16c
iter:  37 23:35:41  -278.785436c -6.60  -5.33c
iter:  38 23:36:24  -278.785436c -6.72  -5.34c
iter:  39 23:37:08  -278.785436c -6.89  -5.37c
Writing to output.gpw (mode='')

iter:  40 23:37:52  -278.785436c -7.06  -5.47c
iter:  41 23:38:35  -278.785436c -6.86  -5.60c
iter:  42 23:39:18  -278.785436c -7.09  -5.67c
iter:  43 23:40:01  -278.785436c -7.16  -5.66c
iter:  44 23:40:45  -278.785436c -7.26  -5.68c
Writing to output.gpw (mode='')

iter:  45 23:41:33  -278.785436c -7.35  -5.71c
iter:  46 23:42:16  -278.785436c -7.27  -5.70c
iter:  47 23:43:00  -278.785436c -7.42c -6.03c

Converged after 47 iterations.

Dipole moment: (-16.018059, -11.261850, 0.252447) |e|*Ang

Energy contributions relative to reference atoms: (reference = -13382.245603)

Kinetic:       +170.782251
Potential:     -154.100496
External:        +0.000000
XC:            -296.062039
Entropy (-ST):   -0.142946
Local:           +0.666321
--------------------------
Free energy:   -278.856909
Extrapolated:  -278.785436

Dipole-layer corrected work functions: 3.388145, 2.902855 eV

Showing only first 2 kpts
 Kpt  Band  Eigenvalues  Occupancy
  0    28     -3.39726    1.98707
  0    29     -3.32919    1.95050
  0    30     -2.96073    0.04847
  0    31     -2.90940    0.01764

  1    28     -3.17964    1.32873
  1    29     -3.13347    0.88032
  1    30     -3.12714    0.81840
  1    31     -3.04498    0.23621


Fermi level: -3.14550

No gap
Writing to output.gpw (mode='')


Forces in eV/Ang:
  0 Li    0.00719    0.00706   -0.27037
  1 Li   -0.00045   -0.00173   -0.26725
  2 Li   -0.00692    0.00645   -0.26999
  3 Li   -0.00197   -0.00003   -0.26752
  4 Li   -0.00016   -0.00053   -0.28652
  5 Li    0.00201    0.00118   -0.26783
  6 Li    0.00589   -0.00717   -0.27003
  7 Li    0.00074    0.00182   -0.26806
  8 Li   -0.00635   -0.00728   -0.27036
  9 Li    0.00010    0.00028    0.31643
 10 Li    0.01118    0.00021    0.26077
 11 Li   -0.01147   -0.00034    0.25964
 12 Li    0.00020    0.01201    0.26110
 13 Li    0.00637    0.00471    0.25533
 14 Li   -0.00610    0.00378    0.25574
 15 Li   -0.00026   -0.01291    0.25746
 16 Li    0.00381   -0.00436    0.25654
 17 Li   -0.00399   -0.00382    0.25714
 18 Li    0.01747    0.01812   -0.01879
 19 Li    0.00039    0.00134    0.04636
 20 Li   -0.01782    0.01759   -0.01986
 21 Li    0.00238   -0.00048    0.04484
 22 Li   -0.00012    0.00002    0.02664
 23 Li   -0.00216   -0.00202    0.04443
 24 Li    0.01487   -0.01775   -0.01441
 25 Li   -0.00125   -0.00095    0.04460
 26 Li   -0.01394   -0.01604   -0.00759
 27 Li    0.00086    0.00204   -2.46180
 28 Li    0.03919   -0.00021   -0.04122
 29 Li   -0.03982   -0.00374   -0.04624
 30 Li    0.00109    0.03682   -0.03808
 31 Li    0.00817    0.00925   -0.03213
 32 Li   -0.00922    0.01022   -0.03213
 33 Li   -0.00236   -0.03904   -0.05600
 34 Li    0.00647   -0.00860   -0.03232
 35 Li   -0.00350   -0.00562   -0.03245
 36 O    -0.01740   -0.05367    5.58131
 37 C     0.01536    0.05275    3.19253
 38 H     0.18312   -0.21523    0.86906
 39 H    -0.28413   -0.06046    0.87361
 40 H     0.01560    0.04864    0.66683
 41 H    -0.05995   -0.17346    1.49393
 42 N     0.26036    0.78489   -3.51076
 43 N    -0.15180   -0.44446   -6.48881

System changes: positions 

Initializing position-dependent things.

Density initialized from wave functions
       .-----------------------.  
      /|                       |  
     / |                       |  
    /  |                       |  
   /   |                       |  
  /    |                       |  
 *     |                    H  |  
 |     |H                      C  
 |     |                       O  
 |     |                      H|  
 |     |                       |  
 |     |                       N  
 |H    |                       |  
 |     |                       |  
 |     |       Li      Li      |  
 |     |                       |  
 |     |     Li      Li      Li|  
 |     |  Li      Li      Li   |  
 N Li  |   Li      Li          |  
 |     |Li      Li      Li     |  
 Li    |                       |  
 |   LLi     LLi     LLi       |  
 |     |  Li      Li      Li   |  
 | Li  |   Li      Li          |  
 |     |Li      Li      Li     |  
 Li    | Li      Li            |  
 |    Li      Li      Li       |  
 |     |                       |  
 |     |                       |  
 |     |                       |  
 |     |                       |  
 |     |                       |  
 |     |                       |  
 |     .-----------------------.  
 |    /                       /   
 |   /                       /    
 |  /                       /     
 | /                       /      
 |/                       /       
 *-----------------------*        

Positions:
   0 Li     1.617037    1.617037   10.000000    ( 0.0000,  0.0000,  0.0000)
   1 Li     4.851111    1.617037   10.000000    ( 0.0000,  0.0000,  0.0000)
   2 Li     8.085185    1.617037   10.000000    ( 0.0000,  0.0000,  0.0000)
   3 Li     1.617037    4.851111   10.000000    ( 0.0000,  0.0000,  0.0000)
   4 Li     4.851111    4.851111   10.000000    ( 0.0000,  0.0000,  0.0000)
   5 Li     8.085185    4.851111   10.000000    ( 0.0000,  0.0000,  0.0000)
   6 Li     1.617037    8.085185   10.000000    ( 0.0000,  0.0000,  0.0000)
   7 Li     4.851111    8.085185   10.000000    ( 0.0000,  0.0000,  0.0000)
   8 Li     8.085185    8.085185   10.000000    ( 0.0000,  0.0000,  0.0000)
   9 Li     0.000000    0.000000   11.617037    ( 0.0000,  0.0000,  0.0000)
  10 Li     3.234074    0.000000   11.617037    ( 0.0000,  0.0000,  0.0000)
  11 Li     6.468148    0.000000   11.617037    ( 0.0000,  0.0000,  0.0000)
  12 Li     0.000000    3.234074   11.617037    ( 0.0000,  0.0000,  0.0000)
  13 Li     3.234074    3.234074   11.617037    ( 0.0000,  0.0000,  0.0000)
  14 Li     6.468148    3.234074   11.617037    ( 0.0000,  0.0000,  0.0000)
  15 Li     0.000000    6.468148   11.617037    ( 0.0000,  0.0000,  0.0000)
  16 Li     3.234074    6.468148   11.617037    ( 0.0000,  0.0000,  0.0000)
  17 Li     6.468148    6.468148   11.617037    ( 0.0000,  0.0000,  0.0000)
  18 Li     1.617642    1.617689   13.469193    ( 0.0000,  0.0000,  0.0000)
[...]

  1    28     -3.48694    1.28148
  1    29     -3.43736    0.79633
  1    30     -3.43068    0.73331
  1    31     -3.37515    0.32024


Fermi level: -3.45801

No gap
Writing to output.gpw (mode='')


Forces in eV/Ang:
  0 Li    0.00230    0.00463   -0.26655
  1 Li    0.00041    0.00226   -0.28003
  2 Li   -0.00253    0.00771   -0.26700
  3 Li    0.00135   -0.00134   -0.27705
  4 Li    0.00048    0.00136   -0.28522
  5 Li    0.00011   -0.00402   -0.27360
  6 Li    0.00894   -0.00333   -0.26799
  7 Li   -0.00226    0.00049   -0.27131
  8 Li   -0.00707   -0.00419   -0.26879
  9 Li    0.00329    0.00662    0.27081
 10 Li    0.00386    0.01741    0.25252
 11 Li   -0.00553    0.01971    0.26010
 12 Li    0.00665   -0.00062    0.24943
 13 Li   -0.03087   -0.02439    0.27424
 14 Li    0.02228   -0.01387    0.27089
 15 Li    0.00825   -0.00189    0.27342
 16 Li   -0.00125    0.00530    0.26822
 17 Li   -0.00832   -0.00691    0.26729
 18 Li    0.00595    0.00430   -0.00512
 19 Li   -0.00407    0.00209    0.00857
 20 Li   -0.00935   -0.00015    0.00197
 21 Li    0.00441   -0.00645    0.00704
 22 Li    0.00134    0.00122    0.00988
 23 Li   -0.00716   -0.00553    0.00674
 24 Li    0.00151   -0.01266    0.00311
 25 Li   -0.00340   -0.01107    0.00809
 26 Li   -0.00642   -0.00992    0.00781
 27 Li    0.01282   -0.00231   -0.02174
 28 Li    0.00271    0.00528   -0.00958
 29 Li   -0.01180    0.00558   -0.00944
 30 Li    0.00121    0.00201   -0.01056
 31 Li   -0.00565   -0.00532    0.00668
 32 Li    0.00570   -0.00537    0.00565
 33 Li    0.00154   -0.01604   -0.00591
 34 Li   -0.00414    0.00409    0.00201
 35 Li    0.00434    0.00424    0.00093
 36 O    -0.00909    0.05546    0.00159
 37 C     0.01922   -0.01559    0.00938
 38 H     0.00773   -0.05173    0.03537
 39 H     0.00673    0.01527   -0.00966
 40 H    -0.01176    0.02535   -0.01725
 41 H     0.00053   -0.00338    0.01783
 42 N    -0.01857    0.00803   -0.00345
 43 N     0.02469    0.02749    0.10217

System changes: positions 

Initializing position-dependent things.

Density initialized from wave functions
       .-----------------------.  
      /|                       |  
     / |                       |  
    /  |                       |  
   /   |                       |  
  /    |                    H  |  
 *     |H                      |  
 |     |                       |  
 |     |                       |  
 |     |                       |  
 |H    |                       |  
 |     |                 C   N |  
 |O    |                      N|  
 |     |                       |  
 H     |       Li      Li      Li 
 |     |                       |  
 |   Li|     Li      Li        |  
 |     |  Li      Li      Li   |  
 |     |   Li      Li      Li  |  
 |     |Li      Li      Li     |  
 |     |                       |  
 |   LLi     LLi     LLi       |  
 |     |  Li      Li      Li   |  
 | Li  |   Li      Li          |  
 |     |Li      Li      Li     |  
 Li    | Li      Li            |  
 |    Li      Li      Li       |  
 |     |                       |  
 |     |                       |  
 |     |                       |  
 |     |                       |  
 |     |                       |  
 |     |                       |  
 |     .-----------------------.  
 |    /                       /   
 |   /                       /    
 |  /                       /     
 | /                       /      
 |/                       /       
 *-----------------------*        

Positions:
   0 Li     1.617037    1.617037   10.000000    ( 0.0000,  0.0000,  0.0000)
   1 Li     4.851111    1.617037   10.000000    ( 0.0000,  0.0000,  0.0000)
   2 Li     8.085185    1.617037   10.000000    ( 0.0000,  0.0000,  0.0000)
   3 Li     1.617037    4.851111   10.000000    ( 0.0000,  0.0000,  0.0000)
   4 Li     4.851111    4.851111   10.000000    ( 0.0000,  0.0000,  0.0000)
   5 Li     8.085185    4.851111   10.000000    ( 0.0000,  0.0000,  0.0000)
   6 Li     1.617037    8.085185   10.000000    ( 0.0000,  0.0000,  0.0000)
   7 Li     4.851111    8.085185   10.000000    ( 0.0000,  0.0000,  0.0000)
   8 Li     8.085185    8.085185   10.000000    ( 0.0000,  0.0000,  0.0000)
   9 Li     0.000000    0.000000   11.617037    ( 0.0000,  0.0000,  0.0000)
  10 Li     3.234074    0.000000   11.617037    ( 0.0000,  0.0000,  0.0000)
  11 Li     6.468148    0.000000   11.617037    ( 0.0000,  0.0000,  0.0000)
  12 Li     0.000000    3.234074   11.617037    ( 0.0000,  0.0000,  0.0000)
  13 Li     3.234074    3.234074   11.617037    ( 0.0000,  0.0000,  0.0000)
  14 Li     6.468148    3.234074   11.617037    ( 0.0000,  0.0000,  0.0000)
  15 Li     0.000000    6.468148   11.617037    ( 0.0000,  0.0000,  0.0000)
  16 Li     3.234074    6.468148   11.617037    ( 0.0000,  0.0000,  0.0000)
  17 Li     6.468148    6.468148   11.617037    ( 0.0000,  0.0000,  0.0000)
  18 Li     1.581718    1.586243   13.527096    ( 0.0000,  0.0000,  0.0000)
  19 Li     4.845998    1.606725   13.478789    ( 0.0000,  0.0000,  0.0000)
  20 Li     8.116905    1.599863   13.505295    ( 0.0000,  0.0000,  0.0000)
  21 Li     1.600500    4.838990   13.483107    ( 0.0000,  0.0000,  0.0000)
  22 Li     4.844807    4.837901   13.448692    ( 0.0000,  0.0000,  0.0000)
  23 Li     8.105877    4.838788   13.480359    ( 0.0000,  0.0000,  0.0000)
  24 Li     1.611698    8.109293   13.477536    ( 0.0000,  0.0000,  0.0000)
  25 Li     4.845883    8.110462   13.474435    ( 0.0000,  0.0000,  0.0000)
  26 Li     8.087089    8.096721   13.452080    ( 0.0000,  0.0000,  0.0000)
  27 Li    -0.038871   -0.069701   15.544236    ( 0.0000,  0.0000,  0.0000)
  28 Li     3.229422   -0.006356   15.470414    ( 0.0000,  0.0000,  0.0000)
  29 Li     6.445312   -0.000792   15.432341    ( 0.0000,  0.0000,  0.0000)
  30 Li    -0.003727    3.204341   15.499389    ( 0.0000,  0.0000,  0.0000)
  31 Li     3.250394    3.249101   15.423268    ( 0.0000,  0.0000,  0.0000)
  32 Li     6.457542    3.243993   15.412442    ( 0.0000,  0.0000,  0.0000)
  33 Li     0.000718    6.438938   15.405936    ( 0.0000,  0.0000,  0.0000)
  34 Li     3.247882    6.457237   15.392551    ( 0.0000,  0.0000,  0.0000)
  35 Li     6.443749    6.448580   15.369954    ( 0.0000,  0.0000,  0.0000)
  36 O      9.932635   10.377542   21.136370    ( 0.0000,  0.0000,  0.0000)
  37 C      9.692426    9.757458   22.402032    ( 0.0000,  0.0000,  0.0000)
  38 H     10.327975    8.877651   22.545022    ( 0.0000,  0.0000,  0.0000)
  39 H      8.643935    9.463604   22.525812    ( 0.0000,  0.0000,  0.0000)
  40 H      9.942472   10.492309   23.166942    ( 0.0000,  0.0000,  0.0000)
  41 H      9.711068    9.742075   20.446278    ( 0.0000,  0.0000,  0.0000)
  42 N      9.443465    8.989865   17.424741    ( 0.0000,  0.0000,  0.0000)
  43 N      9.304672    8.679222   18.487601    ( 0.0000,  0.0000,  0.0000)

Unit cell:
           periodic     x           y           z      points  spacing
  1. axis:    yes    9.702222    0.000000    0.000000    60     0.1617
  2. axis:    yes    0.000000    9.702222    0.000000    60     0.1617
  3. axis:    no     0.000000    0.000000   26.601111   168     0.1583

  Lengths:   9.702222   9.702222  26.601111
  Angles:   90.000000  90.000000  90.000000

Effective grid spacing dv^(1/3) = 0.1606

     iter     time        total  log10-change:
                         energy  eigst   dens
iter:   1 14:33:06  -283.944541  -0.22
iter:   2 14:33:49  -283.399017  -0.77  -1.20
iter:   3 14:34:32  -283.342847  -1.92  -1.58
iter:   4 14:35:16  -283.309513  -1.30  -1.80
Writing to output.gpw (mode='')

iter:   5 14:36:00  -283.312972  -1.16  -2.07
iter:   6 14:36:43  -283.307445c -2.52  -2.13
iter:   7 14:37:27  -283.309836c -1.35  -2.39
iter:   8 14:38:10  -283.305468c -2.64  -2.20
iter:   9 14:38:53  -283.305981c -2.13  -2.63
Writing to output.gpw (mode='')

iter:  10 14:39:38  -283.305515c -3.23  -2.71
iter:  11 14:40:21  -283.305491c -3.29  -2.91
iter:  12 14:41:04  -283.305513c -3.39  -3.04
iter:  13 14:41:48  -283.305570c -3.75  -3.12
iter:  14 14:42:31  -283.305476c -3.60  -3.13
Writing to output.gpw (mode='')

iter:  15 14:43:15  -283.305478c -4.11  -3.26
iter:  16 14:43:58  -283.305492c -4.33  -3.46
iter:  17 14:44:42  -283.305515c -4.38  -3.53
iter:  18 14:45:25  -283.305522c -4.46  -3.82
iter:  19 14:46:08  -283.305519c -4.80  -3.80
Writing to output.gpw (mode='')

iter:  20 14:46:52  -283.305521c -4.98  -3.88
iter:  21 14:47:35  -283.305520c -5.11  -3.95
iter:  22 14:48:18  -283.305520c -5.08  -4.00c
iter:  23 14:49:01  -283.305523c -5.15  -4.23c
iter:  24 14:49:44  -283.305525c -5.57  -4.33c
Writing to output.gpw (mode='')

iter:  25 14:50:31  -283.305526c -5.46  -4.37c
iter:  26 14:51:15  -283.305527c -5.61  -4.40c
iter:  27 14:51:58  -283.305527c -5.72  -4.45c
iter:  28 14:52:41  -283.305525c -5.72  -4.56c
iter:  29 14:53:24  -283.305526c -6.11  -4.65c
Writing to output.gpw (mode='')

iter:  30 14:54:11  -283.305526c -6.05  -4.70c
iter:  31 14:54:54  -283.305526c -6.19  -4.70c
iter:  32 14:55:37  -283.305526c -6.09  -4.90c
iter:  33 14:56:20  -283.305527c -5.98  -4.96c
iter:  34 14:57:03  -283.305527c -6.28  -5.14c
Writing to output.gpw (mode='')

iter:  35 14:57:51  -283.305527c -6.47  -5.18c
iter:  36 14:58:34  -283.305527c -6.44  -5.28c
iter:  37 14:59:17  -283.305527c -6.37  -5.31c
iter:  38 15:00:01  -283.305527c -6.65  -5.39c
iter:  39 15:00:44  -283.305527c -6.76  -5.43c
Writing to output.gpw (mode='')

iter:  40 15:01:32  -283.305528c -6.71  -5.47c
iter:  41 15:02:15  -283.305528c -7.01  -5.63c
iter:  42 15:02:59  -283.305528c -6.99  -5.71c
iter:  43 15:03:42  -283.305528c -6.97  -5.76c
iter:  44 15:04:25  -283.305528c -7.24  -5.79c
Writing to output.gpw (mode='')

iter:  45 15:05:09  -283.305528c -7.17  -5.71c
iter:  46 15:05:52  -283.305528c -7.33  -5.72c
iter:  47 15:06:35  -283.305528c -7.32  -5.69c
iter:  48 15:07:18  -283.305528c -7.41c -5.61c

Converged after 48 iterations.

Dipole moment: (2.206949, -4.849187, -0.056770) |e|*Ang

Energy contributions relative to reference atoms: (reference = -13382.245603)

Kinetic:       +132.909188
Potential:     -127.137313
External:        +0.000000
XC:            -289.710308
Entropy (-ST):   -0.146615
Local:           +0.706213
--------------------------
Free energy:   -283.378835
Extrapolated:  -283.305528

Dipole-layer corrected work functions: 3.407270, 3.516401 eV

Showing only first 2 kpts
 Kpt  Band  Eigenvalues  Occupancy
  0    28     -3.70859    1.98572
  0    29     -3.63938    1.94421
  0    30     -3.28562    0.05726
  0    31     -3.23601    0.02162

  1    28     -3.49478    1.31802
  1    29     -3.44414    0.82487
  1    30     -3.43421    0.73061
  1    31     -3.38016    0.32669


Fermi level: -3.46184

No gap
Writing to output.gpw (mode='')


Forces in eV/Ang:
  0 Li    0.00181    0.00438   -0.26649
  1 Li    0.00067    0.00293   -0.27908
  2 Li   -0.00191    0.00746   -0.26687
  3 Li    0.00181   -0.00080   -0.27592
  4 Li    0.00057    0.00168   -0.28673
  5 Li    0.00008   -0.00352   -0.27207
  6 Li    0.00871   -0.00276   -0.26805
  7 Li   -0.00202    0.00079   -0.26945
  8 Li   -0.00671   -0.00366   -0.26885
  9 Li    0.00214    0.00294    0.27195
 10 Li   -0.00029    0.01671    0.25430
 11 Li   -0.00371    0.01886    0.26098
 12 Li    0.00647   -0.00481    0.25120
 13 Li   -0.03563   -0.02906    0.28425
 14 Li    0.02506   -0.01783    0.27946
 15 Li    0.00789   -0.00155    0.27448
 16 Li   -0.00358    0.00602    0.27506
 17 Li   -0.00783   -0.00666    0.27261
 18 Li    0.01428    0.00963   -0.00374
 19 Li   -0.00524    0.00649    0.00866
 20 Li   -0.01641    0.00064    0.00693
 21 Li    0.00900   -0.00819    0.00628
 22 Li    0.00200    0.00251    0.01619
 23 Li   -0.01197   -0.00655    0.00592
 24 Li    0.00011   -0.01534    0.00881
 25 Li   -0.00392   -0.01686    0.00768
 26 Li   -0.00465   -0.00935    0.01629
 27 Li    0.01818   -0.00656   -0.02435
 28 Li    0.00758    0.00734   -0.02100
 29 Li   -0.01202    0.00777   -0.02093
 30 Li    0.00181    0.01100   -0.02073
 31 Li   -0.01598   -0.01443    0.00317
 32 Li    0.01481   -0.01222    0.00233
 33 Li    0.00212   -0.01462   -0.01570
 34 Li   -0.00904    0.01068   -0.00184
 35 Li    0.00899    0.00938   -0.00305
 36 O    -0.03096    0.03513   -0.00242
 37 C     0.02304   -0.00948   -0.00688
 38 H     0.00621   -0.03532    0.03404
 39 H     0.01119    0.01504   -0.00854
 40 H    -0.01470    0.00891   -0.01966
 41 H     0.00189    0.00188    0.03694
 42 N    -0.02262    0.03107   -0.01587
 43 N     0.02478   -0.00953    0.01142

Timing:                                      incl.     excl.
-------------------------------------------------------------------
Density initialized from wave functions:    70.926    70.920   0.0% |
 Symmetrize density:                         0.005     0.005   0.0% |
Forces:                                    471.219   471.219   0.3% |
Hamiltonian:                              2168.852     0.025   0.0% |
 Atomic:                                     9.520     0.123   0.0% |
  XC Correction:                             9.397     9.397   0.0% |
 Calculate atomic Hamiltonians:              8.741     8.741   0.0% |
 Communicate:                               15.035    15.035   0.0% |
 Hartree integrate/restrict:                 7.175     7.175   0.0% |
 Initialize Hamiltonian:                     0.000     0.000   0.0% |
 Poisson:                                  233.409   108.977   0.1% |
  Communicate from 1D:                      15.408    15.408   0.0% |
  Communicate from 2D:                      22.802    22.802   0.0% |
  Communicate to 1D:                         5.523     5.523   0.0% |
  Communicate to 2D:                        22.777    22.777   0.0% |
  FFT 1D:                                   23.746    23.746   0.0% |
  FFT 2D:                                   34.177    34.177   0.0% |
 XC 3D grid:                              1892.211   587.501   0.4% |
  VdW-DF integral:                        1304.711    16.888   0.0% |
   Convolution:                            252.686   252.686   0.2% |
   FFT:                                     78.302    78.302   0.0% |
   gather:                                 322.173   322.173   0.2% |
   hmm1:                                    56.087    56.087   0.0% |
   hmm2:                                    84.958    84.958   0.1% |
   iFFT:                                    78.124    78.124   0.0% |
   potential:                              406.628    13.094   0.0% |
    collect:                                32.957    32.957   0.0% |
    p1:                                    177.739   177.739   0.1% |
    p2:                                    119.270   119.270   0.1% |
    sum:                                    63.568    63.568   0.0% |
   splines:                                  8.864     8.864   0.0% |
 vbar:                                       2.735     2.735   0.0% |
LCAO initialization:                         7.538     0.530   0.0% |
 LCAO eigensolver:                           2.155     0.000   0.0% |
  Calculate projections:                     0.000     0.000   0.0% |
  DenseAtomicCorrection:                     0.000     0.000   0.0% |
  Distribute overlap matrix:                 2.022     2.022   0.0% |
  Orbital Layouts:                           0.036     0.036   0.0% |
  Potential matrix:                          0.094     0.094   0.0% |
  Sum over cells:                            0.002     0.002   0.0% |
 LCAO to grid:                               3.766     3.766   0.0% |
 Set positions (LCAO WFS):                   1.087     0.825   0.0% |
  Basic WFS set positions:                   0.004     0.004   0.0% |
  Basis functions set positions:             0.001     0.001   0.0% |
  P tci:                                     0.000     0.000   0.0% |
  ST tci:                                    0.160     0.160   0.0% |
  mktci:                                     0.097     0.097   0.0% |
Redistribute:                                0.083     0.083   0.0% |
SCF-cycle:                               156104.022  1909.132   1.2% |
 Davidson:                               75627.429 26632.705  16.7% |------|
  Apply hamiltonian:                      4627.332  4627.332   2.9% ||
  Subspace diag:                         12544.705     0.773   0.0% |
   calc_h_matrix:                         7037.480  2236.799   1.4% ||
    Apply hamiltonian:                    4800.681  4800.681   3.0% ||
   diagonalize:                            133.629   133.629   0.1% |
   rotate_psi:                            5372.823  5372.823   3.4% ||
  calc. matrices:                        22646.308 14869.490   9.3% |---|
   Apply hamiltonian:                     7776.818  7776.818   4.9% |-|
  diagonalize:                              41.878    41.878   0.0% |
  rotate_psi:                             9134.501  9134.501   5.7% |-|
 Density:                                 1255.658     0.257   0.0% |
  Atomic density matrices:                  31.487    31.487   0.0% |
  Mix:                                     693.889   693.889   0.4% |
  Multipole moments:                         6.225     6.225   0.0% |
  Pseudo density:                          523.800   523.606   0.3% |
   Symmetrize density:                       0.194     0.194   0.0% |
 Hamiltonian:                            77163.231     0.908   0.0% |
  Atomic:                                  340.938     4.503   0.0% |
   XC Correction:                          336.435   336.435   0.2% |
  Calculate atomic Hamiltonians:           312.857   312.857   0.2% |
  Communicate:                             538.971   538.971   0.3% |
  Hartree integrate/restrict:              259.970   259.970   0.2% |
  Poisson:                                8341.082  3897.817   2.4% ||
   Communicate from 1D:                    550.164   550.164   0.3% |
   Communicate from 2D:                    818.819   818.819   0.5% |
   Communicate to 1D:                      199.859   199.859   0.1% |
   Communicate to 2D:                      811.946   811.946   0.5% |
   FFT 1D:                                 845.980   845.980   0.5% |
   FFT 2D:                                1216.497  1216.497   0.8% |
  XC 3D grid:                            67270.205 20993.138  13.1% |----|
   VdW-DF integral:                      46277.067   604.084   0.4% |
    Convolution:                          9093.394  9093.394   5.7% |-|
    FFT:                                  2806.518  2806.518   1.8% ||
    gather:                              11406.856 11406.856   7.1% |--|
    hmm1:                                 2006.998  2006.998   1.3% ||
    hmm2:                                 3045.164  3045.164   1.9% ||
    iFFT:                                 2831.093  2831.093   1.8% ||
    potential:                           14482.903   469.740   0.3% |
     collect:                             1147.586  1147.586   0.7% |
     p1:                                  6376.806  6376.806   4.0% |-|
     p2:                                  4331.495  4331.495   2.7% ||
     sum:                                 2157.275  2157.275   1.4% ||
    splines:                                 0.057     0.057   0.0% |
  vbar:                                     98.300    98.300   0.1% |
 Orthonormalize:                           148.572     0.042   0.0% |
  calc_s_matrix:                            32.349    32.349   0.0% |
  inverse-cholesky:                          1.490     1.490   0.0% |
  projections:                              34.443    34.443   0.0% |
  rotate_psi_s:                             80.247    80.247   0.1% |
Set symmetry:                                0.005     0.005   0.0% |
Other:                                     938.947   938.947   0.6% |
-------------------------------------------------------------------
Total:                                             159761.592 100.0%

Memory usage: 1.65 GiB
Date: Wed Mar  8 15:07:26 2023
