
  ___ ___ ___ _ _ _  
 |   |   |_  | | | | 
 | | | | | . | | | | 
 |__ |  _|___|_____|  22.8.0
 |___|_|             

User:   vazumah@c11.hercules
Date:   Tue Jan 17 05:26:47 2023
Arch:   x86_64
Pid:    665
CWD:    /home/vazumah/Python_projects/LiNRR/Li_adsorb_studies/autocat/proton_donor_calcs/adsorbates/BH3/bridge/0.0_1.617
Python: 3.10.8
gpaw:   /home/vazumah/.conda/envs/GPAW/lib/python3.10/site-packages/gpaw
_gpaw:  /home/vazumah/.conda/envs/GPAW/lib/python3.10/site-packages/
        _gpaw.cpython-310-x86_64-linux-gnu.so
ase:    /home/vazumah/.conda/envs/GPAW/lib/python3.10/site-packages/ase (version 3.22.1)
numpy:  /home/vazumah/.conda/envs/GPAW/lib/python3.10/site-packages/numpy (version 1.24.1)
scipy:  /home/vazumah/.conda/envs/GPAW/lib/python3.10/site-packages/scipy (version 1.10.0)
libxc:  5.2.3
units:  Angstrom and eV
cores: 24
OpenMP: True
OMP_NUM_THREADS: 1

Input parameters:
  h: 0.16
  kpts: {size: [4, 4, 1]}
  occupations: {name: fermi-dirac,
                width: 0.05}
  poissonsolver: {dipolelayer: xy}
  xc: BEEF-vdW

System changes: positions, numbers, cell, pbc, initial_charges, initial_magmoms 

Initialize ...

species:
  Li:
    name: Lithium
    id: 830b4218f175192f93f959cfc0aad614
    Z: 3.0
    valence: 1
    core: 2
    charge: 0.0
    file: /home/vazumah/.conda/envs/GPAW/share/gpaw/Li.PBE.gz
    compensation charges: {type: gauss,
                           rc: 0.33,
                           lmax: 2}
    cutoffs: {filter: 1.91,
              core: 2.55}
    valence states:
      #              energy  rcut
      - 2s(1.00)    -2.874   1.058
      - 2p(0.00)    -1.090   1.058
      -  s          24.337   1.058
  
    # Using partial waves for Li as LCAO basis

  B:
    name: Boron
    id: 6e91439235a05fd7549e31636e8f777c
    Z: 5.0
    valence: 3
    core: 2
    charge: 0.0
    file: /home/vazumah/.conda/envs/GPAW/share/gpaw/B.PBE.gz
    compensation charges: {type: gauss,
                           rc: 0.20,
                           lmax: 2}
    cutoffs: {filter: 1.14,
              core: 1.38}
    valence states:
      #              energy  rcut
      - 2s(2.00)    -9.443   0.635
      - 2p(1.00)    -3.606   0.635
      -  s          17.768   0.635
      -  p          23.605   0.635
      -  d           0.000   0.635
  
    # Using partial waves for B as LCAO basis

  H:
    name: Hydrogen
    id: d65de229564ff8ea4db303e23b6d1ecf
    Z: 1.0
    valence: 1
    core: 0
    charge: 0.0
    file: /home/vazumah/.conda/envs/GPAW/share/gpaw/H.PBE.gz
    compensation charges: {type: gauss,
                           rc: 0.15,
                           lmax: 2}
    cutoffs: {filter: 0.85,
              core: 0.53}
    valence states:
      #              energy  rcut
      - 1s(1.00)    -6.494   0.476
      -  s          20.717   0.476
      -  p           0.000   0.476
  
    # Using partial waves for H as LCAO basis

Reference energy: -8007.321583  # eV

Spin-paired calculation

Convergence criteria:
 Maximum [total energy] change in last 3 cyles: 0.0005 eV / electron
 Maximum integral of absolute [dens]ity change: 0.0001 electrons / valence electron
 Maximum integral of absolute [eigenst]ate change: 4e-08 eV^2 / valence electron
 Maximum number of scf [iter]ations: 333
 (Square brackets indicate name in SCF output, whereas a 'c' in
 the SCF output indicates the quantity has converged.)

Symmetries present (total): 1

  ( 1  0  0)
  ( 0  1  0)
  ( 0  0  1)

16 k-points: 4 x 4 x 1 Monkhorst-Pack grid
8 k-points in the irreducible part of the Brillouin zone
       k-points in crystal coordinates                weights
   0:     0.12500000   -0.37500000    0.00000000          2/16
   1:     0.12500000   -0.12500000    0.00000000          2/16
   2:     0.12500000    0.12500000    0.00000000          2/16
   3:     0.12500000    0.37500000    0.00000000          2/16
   4:     0.37500000   -0.37500000    0.00000000          2/16
   5:     0.37500000   -0.12500000    0.00000000          2/16
   6:     0.37500000    0.12500000    0.00000000          2/16
   7:     0.37500000    0.37500000    0.00000000          2/16

Wave functions: Uniform real-space grid
  Kinetic energy operator: 6*3+1=19 point O(h^6) finite-difference Laplacian
  ScaLapack parameters: grid=1x1, blocksize=None
  Wavefunction extrapolation:
    Improved wavefunction reuse through dual PAW basis 

Occupation numbers: Fermi-Dirac:
  width: 0.0500  # eV
 

Eigensolver
   Davidson(niter=2) 

Densities:
  Coarse grid: 60*60*156 grid
  Fine grid: 120*120*312 grid
  Total Charge: 0.000000 

Density mixing:
  Method: separate
  Backend: pulay
  Linear mixing parameter: 0.05
  old densities: 5
  Damping of long wavelength oscillations: 50 

Hamiltonian:
  XC and Coulomb potentials evaluated on a 120*120*312 grid
  Using the BEEF-vdW Exchange-Correlation functional
  Interpolation: tri-quintic (5. degree polynomial)
  Poisson solver: FastPoissonSolver using
    Stencil: 6*3+1=19 point O(h^6) finite-difference Laplacian
    FFT axes: [0, 1]
    FST axes: [2]

Dipole correction along z-axis 

XC parameters: BEEF-vdW with 2 nearest neighbor stencil

Memory estimate:
  Process memory now: 215.27 MiB
  Calculator: 330.73 MiB
    Density: 116.01 MiB
      Arrays: 36.75 MiB
      Localized functions: 65.25 MiB
      Mixer: 14.01 MiB
    Hamiltonian: 29.19 MiB
      Arrays: 24.03 MiB
      XC: 0.00 MiB
      Poisson: 0.00 MiB
      vbar: 5.16 MiB
    Wavefunctions: 185.52 MiB
      Arrays psit_nG: 84.05 MiB
      Eigensolver: 98.19 MiB
      Projections: 0.03 MiB
      Projectors: 3.26 MiB

Total number of cores used: 24
Parallelization over k-points: 8
Domain decomposition: 1 x 1 x 3

Number of atoms: 40
Number of atomic orbitals: 151
Number of bands in calculation: 30
Number of valence electrons: 42
Bands to converge: occupied

... initialized

Initializing position-dependent things.

Density initialized from atomic densities
Creating initial wave functions:
  30 bands from LCAO basis set

       .-----------------------.  
      /|                       |  
     / |                       |  
    /  |                       |  
   /   |                       |  
  /    |                       |  
 *     |                       |  
 |     |                       |  
 |     |                       |  
 |B  H |                H      |  
 H     |                       |  
 |     |                       |  
 |     |                       |  
 |     |                       |  
 |   Li|     Li      Li        |  
 |     |  Li      Li      Li   |  
 | Li  |   Li      Li          |  
 |     |Li      Li      Li     |  
 Li    | Li      Li            |  
 |   LLi     LLi     LLi       |  
 |     |  Li      Li      Li   |  
 | Li  |   Li      Li          |  
 |     |Li      Li      Li     |  
 Li    | Li      Li            |  
 |    Li      Li      Li       |  
 |     |                       |  
 |     |                       |  
 |     |                       |  
 |     |                       |  
 |     |                       |  
 |     |                       |  
 |     .-----------------------.  
 |    /                       /   
 |   /                       /    
 |  /                       /     
 | /                       /      
 |/                       /       
 *-----------------------*        

Positions:
   0 Li     1.617037    1.617037   10.000000    ( 0.0000,  0.0000,  0.0000)
   1 Li     4.851111    1.617037   10.000000    ( 0.0000,  0.0000,  0.0000)
   2 Li     8.085185    1.617037   10.000000    ( 0.0000,  0.0000,  0.0000)
   3 Li     1.617037    4.851111   10.000000    ( 0.0000,  0.0000,  0.0000)
   4 Li     4.851111    4.851111   10.000000    ( 0.0000,  0.0000,  0.0000)
   5 Li     8.085185    4.851111   10.000000    ( 0.0000,  0.0000,  0.0000)
   6 Li     1.617037    8.085185   10.000000    ( 0.0000,  0.0000,  0.0000)
   7 Li     4.851111    8.085185   10.000000    ( 0.0000,  0.0000,  0.0000)
   8 Li     8.085185    8.085185   10.000000    ( 0.0000,  0.0000,  0.0000)
   9 Li     0.000000    0.000000   11.617037    ( 0.0000,  0.0000,  0.0000)
  10 Li     3.234074    0.000000   11.617037    ( 0.0000,  0.0000,  0.0000)
  11 Li     6.468148    0.000000   11.617037    ( 0.0000,  0.0000,  0.0000)
  12 Li     0.000000    3.234074   11.617037    ( 0.0000,  0.0000,  0.0000)
  13 Li     3.234074    3.234074   11.617037    ( 0.0000,  0.0000,  0.0000)
  14 Li     6.468148    3.234074   11.617037    ( 0.0000,  0.0000,  0.0000)
  15 Li     0.000000    6.468148   11.617037    ( 0.0000,  0.0000,  0.0000)
  16 Li     3.234074    6.468148   11.617037    ( 0.0000,  0.0000,  0.0000)
  17 Li     6.468148    6.468148   11.617037    ( 0.0000,  0.0000,  0.0000)
  18 Li     1.617038    1.617038   13.469728    ( 0.0000,  0.0000,  0.0000)
  19 Li     4.851111    1.617038   13.469729    ( 0.0000,  0.0000,  0.0000)
  20 Li     8.085184    1.617038   13.469728    ( 0.0000,  0.0000,  0.0000)
  21 Li     1.617038    4.851111   13.469729    ( 0.0000,  0.0000,  0.0000)
  22 Li     4.851111    4.851111   13.469730    ( 0.0000,  0.0000,  0.0000)
  23 Li     8.085184    4.851111   13.469729    ( 0.0000,  0.0000,  0.0000)
  24 Li     1.617038    8.085184   13.469728    ( 0.0000,  0.0000,  0.0000)
  25 Li     4.851111    8.085184   13.469729    ( 0.0000,  0.0000,  0.0000)
  26 Li     8.085184    8.085184   13.469728    ( 0.0000,  0.0000,  0.0000)
  27 Li    -0.000000   -0.000000   15.445939    ( 0.0000,  0.0000,  0.0000)
  28 Li     3.234074    0.000000   15.445939    ( 0.0000,  0.0000,  0.0000)
  29 Li     6.468148    0.000000   15.445939    ( 0.0000,  0.0000,  0.0000)
  30 Li     0.000000    3.234074   15.445939    ( 0.0000,  0.0000,  0.0000)
  31 Li     3.234076    3.234076   15.445938    ( 0.0000,  0.0000,  0.0000)
  32 Li     6.468146    3.234076   15.445938    ( 0.0000,  0.0000,  0.0000)
  33 Li     0.000000    6.468148   15.445939    ( 0.0000,  0.0000,  0.0000)
  34 Li     3.234076    6.468146   15.445938    ( 0.0000,  0.0000,  0.0000)
  35 Li     6.468146    6.468146   15.445938    ( 0.0000,  0.0000,  0.0000)
  36 B      0.000000    1.617037   21.445939    ( 0.0000,  0.0000,  0.0000)
  37 H      1.032569    2.209323   21.445939    ( 0.0000,  0.0000,  0.0000)
  38 H     -1.029909    2.213996   21.445939    ( 0.0000,  0.0000,  0.0000)
  39 H      0.000086    0.428437   21.445939    ( 0.0000,  0.0000,  0.0000)

Unit cell:
           periodic     x           y           z      points  spacing
  1. axis:    yes    9.702222    0.000000    0.000000    60     0.1617
  2. axis:    yes    0.000000    9.702222    0.000000    60     0.1617
  3. axis:    no     0.000000    0.000000   24.851111   156     0.1593

  Lengths:   9.702222   9.702222  24.851111
  Angles:   90.000000  90.000000  90.000000

Effective grid spacing dv^(1/3) = 0.1609

     iter     time        total  log10-change:
                         energy  eigst   dens
iter:   1 05:29:56  -243.096418
iter:   2 05:32:20  -205.353308  +1.73  -0.28
iter:   3 05:34:43  -188.834004  +1.89  -0.40
iter:   4 05:36:58  -174.136339  +2.31  -0.45
Writing to output.gpw (mode='')

iter:   5 05:39:16  -179.567381  +1.69  -0.60
iter:   6 05:41:29  -186.645041  +1.81  -0.72
iter:   7 05:43:47  -200.563251  +2.34  -0.84
iter:   8 05:45:57  -212.395321  +2.21  -0.88
iter:   9 05:48:16  -223.051258  +2.15  -0.98
Writing to output.gpw (mode='')

iter:  10 05:50:33  -230.859327  +2.03  -0.91
iter:  11 05:52:54  -236.557903  +1.78  -0.84
iter:  12 05:55:12  -240.459092  +1.50  -0.81
iter:  13 05:57:30  -241.305080  +1.10  -0.78
iter:  14 05:59:50  -232.698727  +0.44  -0.76
Writing to output.gpw (mode='')

iter:  15 06:02:09  -223.197216  +0.76  -0.80
iter:  16 06:04:30  -219.986827  +0.97  -0.68
iter:  17 06:06:46  -220.035777  +0.40  -0.80
iter:  18 06:09:01  -219.812570  +0.34  -0.81
iter:  19 06:11:15  -219.426906  +0.70  -0.87
Writing to output.gpw (mode='')

iter:  20 06:13:33  -219.196896  -0.15  -1.18
iter:  21 06:15:53  -219.136258  +0.25  -1.20
iter:  22 06:18:13  -219.191625  -0.18  -1.11
iter:  23 06:20:11  -222.899471  +0.75  -1.08
iter:  24 06:22:24  -220.285689  -0.45  -0.73
Writing to output.gpw (mode='')

iter:  25 06:24:45  -219.097639  -0.08  -0.78
iter:  26 06:26:58  -219.045043  +0.06  -1.01
iter:  27 06:29:21  -219.378587  +0.53  -1.06
iter:  28 06:31:48  -219.396914  -0.60  -1.15
iter:  29 06:34:07  -219.267485  -0.82  -1.16
Writing to output.gpw (mode='')

iter:  30 06:36:25  -219.092764  -0.11  -1.21
iter:  31 06:38:44  -219.072125  -0.39  -1.25
iter:  32 06:40:59  -219.255391  -0.36  -1.45
iter:  33 06:43:16  -219.339226  -0.47  -1.44
iter:  34 06:45:32  -218.894664  -0.57  -1.50
Writing to output.gpw (mode='')

iter:  35 06:47:52  -218.908025  -1.10  -1.67
iter:  36 06:50:17  -218.870843  -0.99  -1.70
iter:  37 06:52:37  -218.835299  -0.76  -1.74
iter:  38 06:55:01  -218.839100  -1.40  -1.70
iter:  39 06:57:16  -218.837362c -1.47  -1.82
Writing to output.gpw (mode='')

iter:  40 06:59:33  -218.821611c -1.48  -1.87
iter:  41 07:01:50  -218.826483c -1.54  -1.92
iter:  42 07:04:20  -218.828227c -1.82  -2.07
iter:  43 07:06:35  -218.815947c -1.88  -2.09
iter:  44 07:09:02  -218.815476c -1.51  -2.44
Writing to output.gpw (mode='')

iter:  45 07:11:25  -218.816055c -2.05  -2.53
iter:  46 07:13:40  -218.816576c -2.21  -2.59
iter:  47 07:15:37  -218.816959c -2.24  -2.67
iter:  48 07:17:58  -218.817366c -2.33  -2.78
iter:  49 07:20:15  -218.817700c -2.38  -2.81
Writing to output.gpw (mode='')

iter:  50 07:22:31  -218.818020c -2.45  -2.93
iter:  51 07:24:40  -218.818285c -2.52  -3.07
iter:  52 07:26:57  -218.818566c -2.66  -3.13
iter:  53 07:29:11  -218.818728c -2.79  -3.27
iter:  54 07:31:32  -218.818892c -2.83  -3.38
Writing to output.gpw (mode='')

iter:  55 07:33:50  -218.819056c -2.81  -3.40
iter:  56 07:36:04  -218.819184c -2.92  -3.45
iter:  57 07:38:19  -218.819301c -3.03  -3.67
iter:  58 07:40:32  -218.819412c -3.01  -3.73
iter:  59 07:42:45  -218.819497c -3.11  -3.84
Writing to output.gpw (mode='')

iter:  60 07:45:06  -218.819587c -3.04  -3.84
iter:  61 07:47:13  -218.819676c -3.06  -3.78
iter:  62 07:49:22  -218.819752c -3.18  -3.68
iter:  63 07:51:38  -218.819811c -3.33  -3.64
iter:  64 07:53:51  -218.819865c -3.38  -3.57
Writing to output.gpw (mode='')

iter:  65 07:56:03  -218.819920c -3.28  -3.61
iter:  66 07:58:24  -218.819975c -3.19  -3.58
iter:  67 08:00:45  -218.820019c -3.42  -3.53
iter:  68 08:03:06  -218.820065c -3.36  -3.53
iter:  69 08:05:25  -218.820102c -3.53  -3.48
Writing to output.gpw (mode='')

iter:  70 08:07:50  -218.820133c -3.54  -3.44
iter:  71 08:10:10  -218.820153c -3.66  -3.45
iter:  72 08:12:20  -218.820183c -3.70  -3.50
iter:  73 08:14:38  -218.820210c -3.47  -3.42
iter:  74 08:16:58  -218.820230c -3.70  -3.45
Writing to output.gpw (mode='')

iter:  75 08:19:19  -218.820247c -3.79  -3.47
iter:  76 08:21:36  -218.820268c -3.78  -3.45
iter:  77 08:23:50  -218.820286c -3.67  -3.34
iter:  78 08:26:07  -218.820290c -3.89  -3.36
iter:  79 08:28:22  -218.820302c -3.75  -3.38
Writing to output.gpw (mode='')

iter:  80 08:30:35  -218.820317c -3.81  -3.39
iter:  81 08:32:54  -218.820336c -3.94  -3.31
iter:  82 08:35:11  -218.820329c -4.07  -3.31
iter:  83 08:37:28  -218.820353c -3.78  -3.33
iter:  84 08:39:51  -218.820338c -4.00  -3.41
Writing to output.gpw (mode='')

iter:  85 08:42:07  -218.820367c -3.95  -3.44
iter:  86 08:44:25  -218.820373c -4.16  -3.35
iter:  87 08:46:48  -218.820372c -4.33  -3.49
iter:  88 08:49:10  -218.820357c -4.26  -3.50
iter:  89 08:51:29  -218.820342c -4.12  -3.45
Writing to output.gpw (mode='')

iter:  90 08:53:53  -218.820378c -4.15  -3.36
iter:  91 08:56:12  -218.820397c -4.06  -3.51
iter:  92 08:58:25  -218.820411c -4.16  -3.60
iter:  93 09:00:42  -218.820387c -4.12  -3.76
iter:  94 09:02:57  -218.820378c -4.16  -3.98
Writing to output.gpw (mode='')

iter:  95 09:05:09  -218.820381c -4.52  -3.99
iter:  96 09:07:19  -218.820389c -4.34  -3.98
iter:  97 09:09:36  -218.820384c -4.54  -4.03c
iter:  98 09:11:51  -218.820380c -4.57  -4.31c
iter:  99 09:14:04  -218.820376c -4.61  -4.38c
Writing to output.gpw (mode='')

iter: 100 09:16:17  -218.820361c -4.22  -4.32c
iter: 101 09:18:33  -218.820359c -4.77  -4.18c
iter: 102 09:20:48  -218.820358c -4.75  -4.19c
iter: 103 09:23:04  -218.820355c -4.78  -4.18c
iter: 104 09:25:23  -218.820348c -4.63  -4.16c
Writing to output.gpw (mode='')

iter: 105 09:27:46  -218.820341c -4.68  -4.09c
iter: 106 09:30:07  -218.820343c -4.74  -4.03c
iter: 107 09:31:26  -218.820342c -4.55  -4.06c
iter: 108 09:33:48  -218.820339c -4.80  -4.05c
iter: 109 09:36:13  -218.820338c -4.84  -4.07c
Writing to output.gpw (mode='')

iter: 110 09:38:38  -218.820348c -4.75  -4.06c
iter: 111 09:40:50  -218.820313c -4.61  -4.04c
iter: 112 09:43:09  -218.820317c -4.91  -3.82
iter: 113 09:45:26  -218.820332c -4.90  -3.94
iter: 114 09:47:47  -218.820362c -4.59  -3.99
Writing to output.gpw (mode='')

iter: 115 09:50:12  -218.820371c -4.70  -4.21c
iter: 116 09:52:33  -218.820370c -4.77  -4.27c
iter: 117 09:54:53  -218.820370c -4.74  -4.34c
iter: 118 09:57:16  -218.820368c -4.90  -4.39c
iter: 119 09:59:40  -218.820371c -5.01  -4.42c
Writing to output.gpw (mode='')

iter: 120 10:02:00  -218.820368c -5.10  -4.56c
iter: 121 10:04:17  -218.820365c -5.12  -4.62c
iter: 122 10:06:34  -218.820363c -5.11  -4.79c
iter: 123 10:08:55  -218.820363c -5.16  -4.95c
iter: 124 10:11:25  -218.820362c -5.29  -4.94c
Writing to output.gpw (mode='')

iter: 125 10:13:45  -218.820361c -5.32  -4.91c
iter: 126 10:16:03  -218.820360c -5.24  -4.89c
iter: 127 10:18:22  -218.820359c -5.36  -4.87c
iter: 128 10:20:36  -218.820359c -5.35  -4.83c
iter: 129 10:22:56  -218.820358c -5.49  -4.91c
Writing to output.gpw (mode='')

iter: 130 10:25:16  -218.820357c -5.60  -4.86c
iter: 131 10:27:27  -218.820357c -5.65  -4.82c
iter: 132 10:29:43  -218.820354c -5.19  -4.84c
iter: 133 10:31:59  -218.820355c -5.53  -4.74c
iter: 134 10:34:13  -218.820357c -5.43  -4.77c
Writing to output.gpw (mode='')

iter: 135 10:36:31  -218.820360c -5.54  -4.86c
iter: 136 10:38:48  -218.820358c -5.81  -4.93c
iter: 137 10:41:10  -218.820361c -5.73  -4.86c
iter: 138 10:43:29  -218.820358c -5.84  -4.92c
iter: 139 10:45:44  -218.820358c -5.86  -4.79c
Writing to output.gpw (mode='')

iter: 140 10:47:59  -218.820359c -5.82  -4.83c
iter: 141 10:50:22  -218.820359c -5.88  -4.90c
iter: 142 10:52:38  -218.820359c -5.76  -5.00c
iter: 143 10:55:02  -218.820359c -5.62  -5.06c
iter: 144 10:57:21  -218.820359c -5.63  -5.11c
Writing to output.gpw (mode='')

iter: 145 10:59:46  -218.820358c -5.86  -5.24c
iter: 146 11:02:07  -218.820358c -5.96  -5.38c
iter: 147 11:04:31  -218.820358c -6.02  -5.42c
iter: 148 11:06:39  -218.820358c -5.69  -5.46c
iter: 149 11:08:51  -218.820358c -6.19  -5.63c
Writing to output.gpw (mode='')

iter: 150 11:11:14  -218.820358c -6.11  -5.65c
iter: 151 11:13:31  -218.820358c -6.24  -5.66c
iter: 152 11:15:45  -218.820358c -6.26  -5.53c
iter: 153 11:18:04  -218.820358c -6.10  -5.61c
iter: 154 11:20:21  -218.820358c -6.14  -5.80c
Writing to output.gpw (mode='')

iter: 155 11:22:47  -218.820358c -6.14  -5.89c
iter: 156 11:25:12  -218.820358c -6.35  -5.97c
iter: 157 11:27:29  -218.820358c -6.36  -5.94c
iter: 158 11:29:43  -218.820358c -6.30  -6.02c
iter: 159 11:31:57  -218.820358c -6.27  -6.02c
Writing to output.gpw (mode='')

iter: 160 11:34:13  -218.820358c -6.40  -6.03c
iter: 161 11:36:29  -218.820357c -6.43  -5.95c
iter: 162 11:38:51  -218.820357c -6.45  -5.68c
iter: 163 11:41:15  -218.820357c -6.53  -5.65c
iter: 164 11:43:40  -218.820357c -6.56  -5.57c
Writing to output.gpw (mode='')

iter: 165 11:45:55  -218.820357c -6.39  -5.62c
iter: 166 11:48:14  -218.820357c -6.60  -5.68c
iter: 167 11:50:35  -218.820357c -6.56  -5.51c
iter: 168 11:52:55  -218.820357c -6.50  -5.59c
iter: 169 11:55:14  -218.820357c -6.66  -5.56c
Writing to output.gpw (mode='')

iter: 170 11:57:27  -218.820357c -6.68  -5.57c
iter: 171 11:59:46  -218.820357c -6.60  -5.41c
iter: 172 12:02:06  -218.820357c -6.55  -5.59c
iter: 173 12:04:20  -218.820357c -6.72  -5.70c
iter: 174 12:06:38  -218.820357c -6.64  -5.39c
Writing to output.gpw (mode='')

iter: 175 12:08:58  -218.820357c -6.72  -5.61c
iter: 176 12:11:09  -218.820358c -6.54  -5.59c
iter: 177 12:13:25  -218.820358c -6.52  -5.81c
iter: 178 12:15:37  -218.820358c -6.67  -5.92c
iter: 179 12:17:56  -218.820358c -6.74  -5.99c
Writing to output.gpw (mode='')

iter: 180 12:20:19  -218.820358c -6.80  -6.10c
iter: 181 12:22:33  -218.820358c -6.73  -6.14c
iter: 182 12:24:50  -218.820358c -6.61  -6.34c
iter: 183 12:27:04  -218.820358c -6.78  -6.50c
iter: 184 12:29:17  -218.820358c -6.68  -6.52c
Writing to output.gpw (mode='')

iter: 185 12:31:41  -218.820358c -6.89  -6.80c
iter: 186 12:34:02  -218.820358c -6.90  -6.69c
iter: 187 12:36:23  -218.820357c -6.95  -6.66c
iter: 188 12:38:48  -218.820357c -6.94  -6.38c
iter: 189 12:41:03  -218.820357c -6.92  -6.27c
Writing to output.gpw (mode='')

iter: 190 12:43:21  -218.820357c -7.02  -6.29c
iter: 191 12:45:39  -218.820357c -6.88  -6.21c
iter: 192 12:47:49  -218.820357c -7.05  -6.25c
iter: 193 12:50:12  -218.820357c -7.05  -6.16c
iter: 194 12:52:29  -218.820357c -6.92  -6.16c
Writing to output.gpw (mode='')

iter: 195 12:54:41  -218.820357c -6.84  -6.16c
iter: 196 12:56:47  -218.820357c -6.89  -6.05c
iter: 197 12:59:04  -218.820357c -6.57  -6.04c
iter: 198 13:01:18  -218.820357c -7.00  -5.94c
iter: 199 13:03:27  -218.820357c -6.76  -6.02c
Writing to output.gpw (mode='')

iter: 200 13:05:50  -218.820357c -6.74  -6.23c
iter: 201 13:08:03  -218.820357c -6.91  -6.42c
iter: 202 13:10:21  -218.820357c -6.73  -6.36c
iter: 203 13:12:39  -218.820357c -7.07  -6.52c
iter: 204 13:15:01  -218.820357c -7.11  -6.49c
Writing to output.gpw (mode='')

iter: 205 13:17:18  -218.820357c -7.03  -6.41c
iter: 206 13:19:36  -218.820357c -7.06  -6.38c
iter: 207 13:21:47  -218.820357c -6.92  -6.36c
iter: 208 13:24:01  -218.820357c -6.89  -6.36c
iter: 209 13:26:15  -218.820357c -7.11  -6.38c
Writing to output.gpw (mode='')

iter: 210 13:28:35  -218.820357c -6.96  -6.13c
iter: 211 13:30:50  -218.820357c -6.99  -6.16c
iter: 212 13:33:02  -218.820357c -7.08  -6.14c
iter: 213 13:35:12  -218.820357c -7.11  -6.42c
iter: 214 13:37:14  -218.820357c -7.01  -6.47c
Writing to output.gpw (mode='')

iter: 215 13:39:29  -218.820357c -6.85  -6.54c
iter: 216 13:41:43  -218.820357c -6.99  -6.63c
iter: 217 13:43:52  -218.820357c -7.07  -6.81c
iter: 218 13:46:09  -218.820357c -6.86  -6.94c
iter: 219 13:48:24  -218.820357c -6.79  -7.00c
Writing to output.gpw (mode='')

iter: 220 13:50:44  -218.820357c -6.95  -7.06c
iter: 221 13:52:57  -218.820356c -7.04  -7.16c
iter: 222 13:55:10  -218.820356c -7.03  -7.20c
iter: 223 13:57:30  -218.820356c -7.10  -7.24c
iter: 224 13:59:44  -218.820356c -7.12  -7.32c
Writing to output.gpw (mode='')

iter: 225 14:01:55  -218.820356c -7.25  -7.29c
iter: 226 14:04:20  -218.820356c -7.19  -7.51c
iter: 227 14:06:34  -218.820356c -7.05  -7.51c
iter: 228 14:08:48  -218.820356c -7.13  -7.50c
iter: 229 14:10:58  -218.820356c -7.23  -7.39c
Writing to output.gpw (mode='')

iter: 230 14:13:17  -218.820356c -7.28  -7.25c
iter: 231 14:15:32  -218.820356c -7.18  -7.13c
iter: 232 14:17:58  -218.820356c -7.13  -7.09c
iter: 233 14:20:24  -218.820356c -7.24  -7.14c
iter: 234 14:22:46  -218.820356c -7.01  -7.03c
Writing to output.gpw (mode='')

iter: 235 14:25:04  -218.820356c -7.08  -6.98c
iter: 236 14:27:27  -218.820356c -7.15  -6.97c
iter: 237 14:29:54  -218.820356c -7.36  -6.89c
iter: 238 14:32:21  -218.820356c -7.24  -6.90c
iter: 239 14:34:45  -218.820356c -7.36  -6.76c
Writing to output.gpw (mode='')

iter: 240 14:37:03  -218.820356c -7.16  -6.83c
iter: 241 14:39:25  -218.820356c -7.15  -6.93c
iter: 242 14:41:47  -218.820356c -7.34  -6.96c
iter: 243 14:43:52  -218.820356c -7.29  -6.79c
iter: 244 14:46:12  -218.820356c -7.43c -6.95c

Converged after 244 iterations.

Dipole moment: (-6.540694, -4.140648, -0.032155) |e|*Ang

Energy contributions relative to reference atoms: (reference = -8007.321583)

Kinetic:        +88.971037
Potential:      -78.882367
External:        +0.000000
XC:            -228.632980
Entropy (-ST):   -0.154425
Local:           -0.198833
--------------------------
Free energy:   -218.897568
Extrapolated:  -218.820356

Dipole-layer corrected work functions: 3.382147, 3.443961 eV

Showing only first 2 kpts
 Kpt  Band  Eigenvalues  Occupancy
  0    19     -3.66621    1.98743
  0    20     -3.58053    1.93218
  0    21     -3.25039    0.07443
  0    22     -3.15957    0.01249

  1    19     -3.42516    1.12049
  1    20     -3.41974    1.06679
  1    21     -3.36692    0.56885
  1    22     -3.36674    0.56735


Fermi level: -3.41305

No gap
Writing to output.gpw (mode='')


Forces in eV/Ang:
  0 Li   -0.00001   -0.00000   -0.27271
  1 Li    0.00000   -0.00000   -0.27205
  2 Li    0.00001    0.00000   -0.27271
  3 Li    0.00039    0.00032   -0.27255
  4 Li    0.00000    0.00072   -0.27256
  5 Li   -0.00039    0.00032   -0.27255
  6 Li    0.00039   -0.00032   -0.27255
  7 Li   -0.00000   -0.00072   -0.27255
  8 Li   -0.00039   -0.00032   -0.27255
  9 Li    0.00000   -0.00009    0.26117
 10 Li   -0.00000   -0.00012    0.26049
 11 Li    0.00000   -0.00012    0.26049
 12 Li   -0.00000    0.00009    0.26116
 13 Li   -0.00000    0.00011    0.26050
 14 Li    0.00000    0.00011    0.26050
 15 Li   -0.00000   -0.00000    0.26030
 16 Li    0.00077    0.00000    0.25907
 17 Li   -0.00077    0.00000    0.25907
 18 Li    0.00027    0.00000    0.03471
 19 Li   -0.00000   -0.00001    0.03469
 20 Li   -0.00027    0.00000    0.03471
 21 Li    0.00021    0.00053    0.03457
 22 Li   -0.00000   -0.00015    0.03575
 23 Li   -0.00021    0.00053    0.03458
 24 Li    0.00021   -0.00053    0.03458
 25 Li    0.00000    0.00015    0.03578
 26 Li   -0.00021   -0.00053    0.03458
 27 Li   -0.00000    0.00241   -0.01781
 28 Li   -0.00122    0.00049   -0.02048
 29 Li    0.00122    0.00049   -0.02048
 30 Li   -0.00000   -0.00246   -0.01784
 31 Li   -0.00125   -0.00050   -0.02033
 32 Li    0.00125   -0.00050   -0.02034
 33 Li   -0.00000    0.00004   -0.02155
 34 Li    0.00032    0.00001   -0.02308
 35 Li   -0.00032    0.00000   -0.02308
 36 B     0.00982    0.03621   -0.01341
 37 H    -0.02451   -0.00839   -0.00629
 38 H     0.02527   -0.01674   -0.00251
 39 H    -0.00872   -0.02237   -0.01083

Timing:                              incl.     excl.
-----------------------------------------------------------
Forces:                              6.173     6.173   0.0% |
Hamiltonian:                       127.272     0.000   0.0% |
 Atomic:                             0.200     0.001   0.0% |
  XC Correction:                     0.199     0.199   0.0% |
 Calculate atomic Hamiltonians:      0.294     0.294   0.0% |
 Communicate:                        0.420     0.420   0.0% |
 Hartree integrate/restrict:         0.160     0.160   0.0% |
 Initialize Hamiltonian:             0.000     0.000   0.0% |
 Poisson:                            4.194     2.058   0.0% |
  Communicate from 1D:               0.217     0.217   0.0% |
  Communicate from 2D:               0.482     0.482   0.0% |
  Communicate to 1D:                 0.121     0.121   0.0% |
  Communicate to 2D:                 0.501     0.501   0.0% |
  FFT 1D:                            0.423     0.423   0.0% |
  FFT 2D:                            0.392     0.392   0.0% |
 XC 3D grid:                       121.949     9.702   0.0% |
  VdW-DF integral:                 112.247     0.201   0.0% |
   Convolution:                      5.534     5.534   0.0% |
   FFT:                              0.536     0.536   0.0% |
   gather:                          82.259    82.259   0.2% |
   hmm1:                             0.938     0.938   0.0% |
   hmm2:                             0.729     0.729   0.0% |
   iFFT:                             1.146     1.146   0.0% |
   potential:                        7.307     0.104   0.0% |
    collect:                         0.538     0.538   0.0% |
    p1:                              2.774     2.774   0.0% |
    p2:                              1.906     1.906   0.0% |
    sum:                             1.984     1.984   0.0% |
   splines:                         13.597    13.597   0.0% |
 vbar:                               0.054     0.054   0.0% |
LCAO initialization:                 9.818     0.210   0.0% |
 LCAO eigensolver:                   3.703     0.001   0.0% |
  Calculate projections:             0.000     0.000   0.0% |
  DenseAtomicCorrection:             0.000     0.000   0.0% |
  Distribute overlap matrix:         3.519     3.519   0.0% |
  Orbital Layouts:                   0.060     0.060   0.0% |
  Potential matrix:                  0.106     0.106   0.0% |
  Sum over cells:                    0.018     0.018   0.0% |
 LCAO to grid:                       4.392     4.392   0.0% |
 Set positions (LCAO WFS):           1.513     1.278   0.0% |
  Basic WFS set positions:           0.004     0.004   0.0% |
  Basis functions set positions:     0.001     0.001   0.0% |
  P tci:                             0.001     0.001   0.0% |
  ST tci:                            0.144     0.144   0.0% |
  mktci:                             0.086     0.086   0.0% |
SCF-cycle:                       33410.067   431.260   1.3% ||
 Davidson:                        7144.034  3091.280   9.2% |---|
  Apply hamiltonian:               471.523   471.523   1.4% ||
  Subspace diag:                   970.965     0.055   0.0% |
   calc_h_matrix:                  617.925   152.857   0.5% |
    Apply hamiltonian:             465.068   465.068   1.4% ||
   diagonalize:                     43.851    43.851   0.1% |
   rotate_psi:                     309.133   309.133   0.9% |
  calc. matrices:                 2029.083  1165.997   3.5% ||
   Apply hamiltonian:              863.086   863.086   2.6% ||
  diagonalize:                       2.045     2.045   0.0% |
  rotate_psi:                      579.139   579.139   1.7% ||
 Density:                          212.069     0.010   0.0% |
  Atomic density matrices:          62.801    62.801   0.2% |
  Mix:                              71.760    71.760   0.2% |
  Multipole moments:                 0.938     0.938   0.0% |
  Pseudo density:                   76.560    76.553   0.2% |
   Symmetrize density:               0.008     0.008   0.0% |
 Hamiltonian:                    25620.210     0.087   0.0% |
  Atomic:                           39.962     0.478   0.0% |
   XC Correction:                   39.483    39.483   0.1% |
  Calculate atomic Hamiltonians:   128.118   128.118   0.4% |
  Communicate:                     124.027   124.027   0.4% |
  Hartree integrate/restrict:       44.463    44.463   0.1% |
  Poisson:                         952.682   431.311   1.3% ||
   Communicate from 1D:             68.928    68.928   0.2% |
   Communicate from 2D:            121.755   121.755   0.4% |
   Communicate to 1D:               28.251    28.251   0.1% |
   Communicate to 2D:              111.479   111.479   0.3% |
   FFT 1D:                          94.288    94.288   0.3% |
   FFT 2D:                          96.669    96.669   0.3% |
  XC 3D grid:                    24319.947  2328.863   6.9% |--|
   VdW-DF integral:              21991.083    49.928   0.1% |
    Convolution:                  1377.046  1377.046   4.1% |-|
    FFT:                           230.494   230.494   0.7% |
    gather:                      17796.413 17796.413  53.0% |--------------------|
    hmm1:                          234.065   234.065   0.7% |
    hmm2:                          317.914   317.914   0.9% |
    iFFT:                          247.329   247.329   0.7% |
    potential:                    1737.893    20.294   0.1% |
     collect:                      160.117   160.117   0.5% |
     p1:                           686.880   686.880   2.0% ||
     p2:                           440.116   440.116   1.3% ||
     sum:                          430.486   430.486   1.3% ||
    splines:                         0.002     0.002   0.0% |
  vbar:                             10.924    10.924   0.0% |
 Orthonormalize:                     2.493     0.000   0.0% |
  calc_s_matrix:                     0.218     0.218   0.0% |
  inverse-cholesky:                  0.178     0.178   0.0% |
  projections:                       1.352     1.352   0.0% |
  rotate_psi_s:                      0.745     0.745   0.0% |
Set symmetry:                        0.002     0.002   0.0% |
Other:                              19.608    19.608   0.1% |
-----------------------------------------------------------
Total:                                     33572.939 100.0%

Memory usage: 1.42 GiB
Date: Tue Jan 17 14:46:20 2023
