
  ___ ___ ___ _ _ _  
 |   |   |_  | | | | 
 | | | | | . | | | | 
 |__ |  _|___|_____|  22.8.0
 |___|_|             

User:   vazumah@r133.ib.bridges2.psc.edu
Date:   Wed Mar  8 21:38:40 2023
Arch:   x86_64
Pid:    23238
CWD:    /jet/home/vazumah/Calcs/N2_with_proton_donor/CH3CH2OH_y/bridge/0.0_1.617/N2_y
Python: 3.11.0
gpaw:   /jet/home/vazumah/.conda/envs/GPAW_mpich/lib/python3.11/site-packages/gpaw
_gpaw:  /jet/home/vazumah/.conda/envs/GPAW_mpich/lib/python3.11/site-packages/
        _gpaw.cpython-311-x86_64-linux-gnu.so
ase:    /jet/home/vazumah/.conda/envs/GPAW_mpich/lib/python3.11/site-packages/ase (version 3.22.1)
numpy:  /jet/home/vazumah/.conda/envs/GPAW_mpich/lib/python3.11/site-packages/numpy (version 1.24.2)
scipy:  /jet/home/vazumah/.conda/envs/GPAW_mpich/lib/python3.11/site-packages/scipy (version 1.10.1)
libxc:  5.2.3
units:  Angstrom and eV
cores: 128
OpenMP: True
OMP_NUM_THREADS: 1

Input parameters:
  h: 0.16
  kpts: {size: [4, 4, 1]}
  occupations: {name: fermi-dirac,
                width: 0.05}
  poissonsolver: {dipolelayer: xy}
  xc: BEEF-vdW

System changes: positions, numbers, cell, pbc, initial_charges, initial_magmoms 

Initialize ...

species:
  Li:
    name: Lithium
    id: 830b4218f175192f93f959cfc0aad614
    Z: 3.0
    valence: 1
    core: 2
    charge: 0.0
    file: /jet/home/vazumah/datasets/gpaw-setups-0.9.20000/Li.PBE.gz
    compensation charges: {type: gauss,
                           rc: 0.33,
                           lmax: 2}
    cutoffs: {filter: 1.91,
              core: 2.55}
    valence states:
      #              energy  rcut
      - 2s(1.00)    -2.874   1.058
      - 2p(0.00)    -1.090   1.058
      -  s          24.337   1.058
  
    # Using partial waves for Li as LCAO basis

  O:
    name: Oxygen
    id: 32ecd46bf208036f09c70b0ec9a88b78
    Z: 8.0
    valence: 6
    core: 2
    charge: 0.0
    file: /jet/home/vazumah/datasets/gpaw-setups-0.9.20000/O.PBE.gz
    compensation charges: {type: gauss,
                           rc: 0.21,
                           lmax: 2}
    cutoffs: {filter: 1.17,
              core: 0.83}
    valence states:
      #              energy  rcut
      - 2s(2.00)   -23.961   0.688
      - 2p(4.00)    -9.029   0.598
      -  s           3.251   0.688
      -  p          18.182   0.598
      -  d           0.000   0.619
  
    # Using partial waves for O as LCAO basis

  C:
    name: Carbon
    id: 4aa54d4b901d75f77cc0ea3eec22967b
    Z: 6.0
    valence: 4
    core: 2
    charge: 0.0
    file: /jet/home/vazumah/datasets/gpaw-setups-0.9.20000/C.PBE.gz
    compensation charges: {type: gauss,
                           rc: 0.20,
                           lmax: 2}
    cutoffs: {filter: 1.14,
              core: 1.14}
    valence states:
      #              energy  rcut
      - 2s(2.00)   -13.751   0.635
      - 2p(2.00)    -5.284   0.635
      -  s          13.461   0.635
      -  p          21.927   0.635
      -  d           0.000   0.635
  
    # Using partial waves for C as LCAO basis

  H:
    name: Hydrogen
    id: d65de229564ff8ea4db303e23b6d1ecf
    Z: 1.0
    valence: 1
    core: 0
    charge: 0.0
    file: /jet/home/vazumah/datasets/gpaw-setups-0.9.20000/H.PBE.gz
    compensation charges: {type: gauss,
                           rc: 0.15,
                           lmax: 2}
    cutoffs: {filter: 0.85,
              core: 0.53}
    valence states:
      #              energy  rcut
      - 1s(1.00)    -6.494   0.476
      -  s          20.717   0.476
      -  p           0.000   0.476
  
    # Using partial waves for H as LCAO basis

  N:
    name: Nitrogen
    id: f7500608b86eaa90eef8b1d9a670dc53
    Z: 7.0
    valence: 5
    core: 2
    charge: 0.0
    file: /jet/home/vazumah/datasets/gpaw-setups-0.9.20000/N.PBE.gz
    compensation charges: {type: gauss,
                           rc: 0.18,
                           lmax: 2}
    cutoffs: {filter: 1.11,
              core: 0.96}
    valence states:
      #              energy  rcut
      - 2s(2.00)   -18.583   0.603
      - 2p(3.00)    -7.089   0.529
      -  s           8.629   0.603
      -  p          20.123   0.529
      -  d           0.000   0.577
  
    # Using partial waves for N as LCAO basis

Reference energy: -14434.854043  # eV

Spin-paired calculation

Convergence criteria:
 Maximum [total energy] change in last 3 cyles: 0.0005 eV / electron
 Maximum integral of absolute [dens]ity change: 0.0001 electrons / valence electron
 Maximum integral of absolute [eigenst]ate change: 4e-08 eV^2 / valence electron
 Maximum number of scf [iter]ations: 333
 (Square brackets indicate name in SCF output, whereas a 'c' in
 the SCF output indicates the quantity has converged.)

Symmetries present (total): 1

  ( 1  0  0)
  ( 0  1  0)
  ( 0  0  1)

16 k-points: 4 x 4 x 1 Monkhorst-Pack grid
8 k-points in the irreducible part of the Brillouin zone
       k-points in crystal coordinates                weights
   0:     0.12500000   -0.37500000    0.00000000          2/16
   1:     0.12500000   -0.12500000    0.00000000          2/16
   2:     0.12500000    0.12500000    0.00000000          2/16
   3:     0.12500000    0.37500000    0.00000000          2/16
   4:     0.37500000   -0.37500000    0.00000000          2/16
   5:     0.37500000   -0.12500000    0.00000000          2/16
   6:     0.37500000    0.12500000    0.00000000          2/16
   7:     0.37500000    0.37500000    0.00000000          2/16

Wave functions: Uniform real-space grid
  Kinetic energy operator: 6*3+1=19 point O(h^6) finite-difference Laplacian
  ScaLapack parameters: grid=1x1, blocksize=None
  Wavefunction extrapolation:
    Improved wavefunction reuse through dual PAW basis 

Occupation numbers: Fermi-Dirac:
  width: 0.0500  # eV
 

Eigensolver
   Davidson(niter=2) 

Densities:
  Coarse grid: 60*60*164 grid
  Fine grid: 120*120*328 grid
  Total Charge: 0.000000 

Density mixing:
  Method: separate
  Backend: pulay
  Linear mixing parameter: 0.05
  old densities: 5
  Damping of long wavelength oscillations: 50 

Hamiltonian:
  XC and Coulomb potentials evaluated on a 120*120*328 grid
  Using the BEEF-vdW Exchange-Correlation functional
  Interpolation: tri-quintic (5. degree polynomial)
  Poisson solver: FastPoissonSolver using
    Stencil: 6*3+1=19 point O(h^6) finite-difference Laplacian
    FFT axes: [0, 1]
    FST axes: [2]

Dipole correction along z-axis 

XC parameters: BEEF-vdW with 2 nearest neighbor stencil

Memory estimate:
  Process memory now: 125.96 MiB
  Calculator: 80.22 MiB
    Density: 22.47 MiB
      Arrays: 7.22 MiB
      Localized functions: 12.50 MiB
      Mixer: 2.75 MiB
    Hamiltonian: 5.71 MiB
      Arrays: 4.72 MiB
      XC: 0.00 MiB
      Poisson: 0.00 MiB
      vbar: 0.99 MiB
    Wavefunctions: 52.04 MiB
      Arrays psit_nG: 24.17 MiB
      Eigensolver: 27.21 MiB
      Projections: 0.01 MiB
      Projectors: 0.65 MiB

Total number of cores used: 128
Parallelization over k-points: 8
Domain decomposition: 2 x 2 x 4

Number of atoms: 47
Number of atomic orbitals: 170
Number of bands in calculation: 44
Number of valence electrons: 66
Bands to converge: occupied

... initialized

Initializing position-dependent things.

Density initialized from atomic densities
Creating initial wave functions:
  44 bands from LCAO basis set

       .-----------------------.  
      /|                       |  
     / |                       |  
    /  |                       |  
   /   |                       |  
  /    |                       |  
 *     |                       |  
 |     |                       |  
 |     |                       |  
 |     |                       |  
 |     |                       |  
 |     |                       |  
 |     |                  H    |  
 |    H|                    C  |  
 |   C |                 HH    |  
 |O  LH|     Li      Li        |  
 |NN   |                       |  
 | Li  |  LLi     LLi     Li   |  
 |     |                       |  
 Li    |LLi     LLi     Li     |  
 |   Li|     Li      Li        |  
 |    Li  Li  Li  Li  Li  Li   |  
 | Li  |   Li      Li          |  
 |     |Li      Li      Li     |  
 Li    | Li      Li            |  
 |    Li      Li      Li       |  
 |     |                       |  
 |     |                       |  
 |     |                       |  
 |     |                       |  
 |     |                       |  
 |     |                       |  
 |     .-----------------------.  
 |    /                       /   
 |   /                       /    
 |  /                       /     
 | /                       /      
 |/                       /       
 *-----------------------*        

Positions:
   0 Li     1.617037    1.617037   10.000000    ( 0.0000,  0.0000,  0.0000)
   1 Li     4.851111    1.617037   10.000000    ( 0.0000,  0.0000,  0.0000)
   2 Li     8.085185    1.617037   10.000000    ( 0.0000,  0.0000,  0.0000)
   3 Li     1.617037    4.851111   10.000000    ( 0.0000,  0.0000,  0.0000)
   4 Li     4.851111    4.851111   10.000000    ( 0.0000,  0.0000,  0.0000)
   5 Li     8.085185    4.851111   10.000000    ( 0.0000,  0.0000,  0.0000)
   6 Li     1.617037    8.085185   10.000000    ( 0.0000,  0.0000,  0.0000)
   7 Li     4.851111    8.085185   10.000000    ( 0.0000,  0.0000,  0.0000)
   8 Li     8.085185    8.085185   10.000000    ( 0.0000,  0.0000,  0.0000)
   9 Li     0.000000    0.000000   11.617037    ( 0.0000,  0.0000,  0.0000)
  10 Li     3.234074    0.000000   11.617037    ( 0.0000,  0.0000,  0.0000)
  11 Li     6.468148    0.000000   11.617037    ( 0.0000,  0.0000,  0.0000)
  12 Li     0.000000    3.234074   11.617037    ( 0.0000,  0.0000,  0.0000)
  13 Li     3.234074    3.234074   11.617037    ( 0.0000,  0.0000,  0.0000)
  14 Li     6.468148    3.234074   11.617037    ( 0.0000,  0.0000,  0.0000)
  15 Li     0.000000    6.468148   11.617037    ( 0.0000,  0.0000,  0.0000)
  16 Li     3.234074    6.468148   11.617037    ( 0.0000,  0.0000,  0.0000)
  17 Li     6.468148    6.468148   11.617037    ( 0.0000,  0.0000,  0.0000)
  18 Li     1.617038    1.617038   13.469728    ( 0.0000,  0.0000,  0.0000)
  19 Li     4.851111    1.617038   13.469729    ( 0.0000,  0.0000,  0.0000)
  20 Li     8.085184    1.617038   13.469728    ( 0.0000,  0.0000,  0.0000)
  21 Li     1.617038    4.851111   13.469729    ( 0.0000,  0.0000,  0.0000)
  22 Li     4.851111    4.851111   13.469730    ( 0.0000,  0.0000,  0.0000)
  23 Li     8.085184    4.851111   13.469729    ( 0.0000,  0.0000,  0.0000)
  24 Li     1.617038    8.085184   13.469728    ( 0.0000,  0.0000,  0.0000)
  25 Li     4.851111    8.085184   13.469729    ( 0.0000,  0.0000,  0.0000)
  26 Li     8.085184    8.085184   13.469728    ( 0.0000,  0.0000,  0.0000)
  27 Li    -0.000000   -0.000000   15.445939    ( 0.0000,  0.0000,  0.0000)
  28 Li     3.234074    0.000000   15.445939    ( 0.0000,  0.0000,  0.0000)
  29 Li     6.468148    0.000000   15.445939    ( 0.0000,  0.0000,  0.0000)
  30 Li     0.000000    3.234074   15.445939    ( 0.0000,  0.0000,  0.0000)
  31 Li     3.234076    3.234076   15.445938    ( 0.0000,  0.0000,  0.0000)
  32 Li     6.468146    3.234076   15.445938    ( 0.0000,  0.0000,  0.0000)
  33 Li     0.000000    6.468148   15.445939    ( 0.0000,  0.0000,  0.0000)
  34 Li     3.234076    6.468146   15.445938    ( 0.0000,  0.0000,  0.0000)
  35 Li     6.468146    6.468146   15.445938    ( 0.0000,  0.0000,  0.0000)
  36 O      0.000000    1.617037   18.445939    ( 0.0000,  0.0000,  0.0000)
  37 C      0.816757    2.799444   18.450238    ( 0.0000,  0.0000,  0.0000)
  38 C     -0.002861    4.083659   18.435704    ( 0.0000,  0.0000,  0.0000)
  39 H      1.500293    2.790821   19.310398    ( 0.0000,  0.0000,  0.0000)
  40 H      1.426483    2.724056   17.547442    ( 0.0000,  0.0000,  0.0000)
  41 H      0.651085    4.960586   18.420269    ( 0.0000,  0.0000,  0.0000)
  42 H     -0.651884    4.118370   17.558886    ( 0.0000,  0.0000,  0.0000)
  43 H     -0.631349    4.153847   19.328265    ( 0.0000,  0.0000,  0.0000)
  44 H     -0.582977    1.656204   19.214164    ( 0.0000,  0.0000,  0.0000)
  45 N      0.000000    1.617000   16.945939    ( 0.0000,  0.0000,  0.0000)
  46 N      0.000000    2.713622   16.945939    ( 0.0000,  0.0000,  0.0000)

Unit cell:
           periodic     x           y           z      points  spacing
  1. axis:    yes    9.702222    0.000000    0.000000    60     0.1617
  2. axis:    yes    0.000000    9.702222    0.000000    60     0.1617
  3. axis:    no     0.000000    0.000000   26.351111   164     0.1607

  Lengths:   9.702222   9.702222  26.351111
  Angles:   90.000000  90.000000  90.000000

Effective grid spacing dv^(1/3) = 0.1614

     iter     time        total  log10-change:
                         energy  eigst   dens
iter:   1 21:38:55  -515.570855
iter:   2 21:39:02  -131.333748  +2.51  -0.02
iter:   3 21:39:09  -144.013802  +3.23  -0.23
iter:   4 21:39:19  -235.793488  +2.97  -0.32
Writing to output.gpw (mode='')

iter:   5 21:39:29  -250.425283  +2.58  -0.38
iter:   6 21:39:36  -286.408108  +2.42  -0.69
iter:   7 21:39:43  -303.962867  +2.08  -0.72
iter:   8 21:39:50  -309.008985  +1.71  -0.69
iter:   9 21:39:57  -310.011698  +1.47  -0.69
Writing to output.gpw (mode='')

iter:  10 21:40:05  -313.559539  +1.17  -0.70
iter:  11 21:40:12  -329.970878  +1.55  -0.68
iter:  12 21:40:19  -325.836574  +1.49  -0.59
iter:  13 21:40:26  -305.911699  +0.86  -0.65
iter:  14 21:40:33  -300.478921  +0.88  -0.76
Writing to output.gpw (mode='')

iter:  15 21:40:40  -299.989136  +0.94  -0.82
iter:  16 21:40:47  -300.187748  +0.72  -0.84
iter:  17 21:40:54  -300.661785  +0.64  -0.90
iter:  18 21:41:02  -299.353092  +0.77  -0.89
iter:  19 21:41:09  -299.694048  +0.77  -0.96
Writing to output.gpw (mode='')

iter:  20 21:41:16  -298.165693  +0.15  -0.95
iter:  21 21:41:23  -298.032997  -0.58  -1.36
iter:  22 21:41:30  -297.917163  -0.37  -1.35
iter:  23 21:41:37  -297.895978  -0.15  -1.41
iter:  24 21:41:44  -297.915005c -0.43  -1.46
Writing to output.gpw (mode='')

iter:  25 21:41:51  -298.193913  -0.05  -1.52
iter:  26 21:41:59  -297.874828  -0.40  -1.39
iter:  27 21:42:06  -297.843463  -1.28  -1.72
iter:  28 21:42:13  -297.841454  -1.33  -1.84
iter:  29 21:42:20  -297.887584  -0.92  -1.92
Writing to output.gpw (mode='')

iter:  30 21:42:27  -297.863141  -1.65  -2.00
iter:  31 21:42:34  -297.850727  -1.73  -2.09
iter:  32 21:42:41  -297.847157c -1.99  -2.15
iter:  33 21:42:48  -297.837470c -1.84  -2.24
iter:  34 21:42:55  -297.839028c -2.19  -2.64
Writing to output.gpw (mode='')

iter:  35 21:43:02  -297.838869c -2.07  -2.67
iter:  36 21:43:10  -297.839735c -2.43  -2.85
iter:  37 21:43:17  -297.840134c -2.54  -2.88
iter:  38 21:43:24  -297.840833c -2.41  -2.91
iter:  39 21:43:31  -297.841169c -2.62  -3.05
Writing to output.gpw (mode='')

iter:  40 21:43:38  -297.841409c -2.84  -3.16
iter:  41 21:43:45  -297.841798c -2.58  -3.21
iter:  42 21:43:52  -297.842036c -3.05  -3.33
iter:  43 21:43:59  -297.842200c -3.18  -3.50
iter:  44 21:44:06  -297.842332c -3.16  -3.56
Writing to output.gpw (mode='')

iter:  45 21:44:13  -297.842488c -3.08  -3.58
iter:  46 21:44:25  -297.842621c -3.23  -3.67
iter:  47 21:44:33  -297.842717c -3.34  -3.78
iter:  48 21:44:40  -297.842794c -3.33  -3.84
iter:  49 21:44:47  -297.842862c -3.70  -3.86
Writing to output.gpw (mode='')

iter:  50 21:44:54  -297.842909c -3.66  -3.95
iter:  51 21:45:01  -297.842950c -3.86  -4.12c
iter:  52 21:45:09  -297.842981c -3.85  -4.16c
iter:  53 21:45:16  -297.843022c -3.89  -4.18c
iter:  54 21:45:23  -297.843036c -4.00  -4.34c
Writing to output.gpw (mode='')

iter:  55 21:45:30  -297.843059c -4.01  -4.27c
iter:  56 21:45:37  -297.843074c -4.12  -4.34c
iter:  57 21:45:44  -297.843090c -4.07  -4.34c
iter:  58 21:45:51  -297.843097c -4.40  -4.28c
iter:  59 21:45:58  -297.843107c -4.38  -4.13c
Writing to output.gpw (mode='')

iter:  60 21:46:06  -297.843114c -4.36  -4.19c
iter:  61 21:46:13  -297.843122c -4.28  -4.19c
iter:  62 21:46:20  -297.843132c -4.51  -4.18c
iter:  63 21:46:27  -297.843133c -4.46  -4.19c
iter:  64 21:46:34  -297.843140c -4.47  -4.16c
Writing to output.gpw (mode='')

iter:  65 21:46:41  -297.843143c -4.83  -4.09c
iter:  66 21:46:48  -297.843149c -4.76  -4.19c
iter:  67 21:46:55  -297.843153c -4.90  -4.35c
iter:  68 21:47:02  -297.843156c -4.73  -4.39c
iter:  69 21:47:10  -297.843158c -5.05  -4.47c
Writing to output.gpw (mode='')

iter:  70 21:47:17  -297.843160c -4.89  -4.60c
iter:  71 21:47:24  -297.843164c -5.10  -4.64c
iter:  72 21:47:31  -297.843166c -5.10  -4.80c
iter:  73 21:47:38  -297.843167c -5.17  -4.88c
iter:  74 21:47:45  -297.843168c -5.24  -4.90c
Writing to output.gpw (mode='')

iter:  75 21:47:52  -297.843169c -5.44  -4.97c
iter:  76 21:47:59  -297.843169c -5.52  -5.09c
iter:  77 21:48:06  -297.843170c -5.36  -5.23c
iter:  78 21:48:14  -297.843170c -5.55  -5.31c
iter:  79 21:48:21  -297.843171c -5.54  -5.41c
Writing to output.gpw (mode='')

iter:  80 21:48:28  -297.843171c -5.58  -5.57c
iter:  81 21:48:35  -297.843171c -5.72  -5.57c
iter:  82 21:48:42  -297.843171c -5.80  -5.55c
iter:  83 21:48:49  -297.843171c -5.92  -5.48c
iter:  84 21:48:56  -297.843171c -5.99  -5.50c
Writing to output.gpw (mode='')

iter:  85 21:49:03  -297.843171c -6.02  -5.50c
iter:  86 21:49:10  -297.843171c -6.00  -5.45c
iter:  87 21:49:23  -297.843171c -5.82  -5.39c
iter:  88 21:49:31  -297.843171c -6.24  -5.34c
iter:  89 21:49:38  -297.843171c -6.28  -5.26c
Writing to output.gpw (mode='')

iter:  90 21:49:45  -297.843171c -6.33  -5.26c
iter:  91 21:49:52  -297.843171c -6.36  -5.27c
iter:  92 21:49:59  -297.843171c -6.30  -5.23c
iter:  93 21:50:06  -297.843171c -6.07  -5.25c
iter:  94 21:50:14  -297.843171c -6.49  -5.19c
Writing to output.gpw (mode='')

iter:  95 21:50:21  -297.843171c -6.62  -5.20c
iter:  96 21:50:28  -297.843171c -6.44  -5.15c
iter:  97 21:50:35  -297.843171c -6.67  -5.17c
iter:  98 21:50:42  -297.843171c -6.69  -5.29c
iter:  99 21:50:49  -297.843171c -6.50  -5.27c
Writing to output.gpw (mode='')

iter: 100 21:50:56  -297.843172c -6.72  -5.31c
iter: 101 21:51:03  -297.843172c -6.79  -5.32c
iter: 102 21:51:10  -297.843172c -6.82  -5.36c
iter: 103 21:51:18  -297.843172c -7.01  -5.51c
iter: 104 21:51:25  -297.843172c -7.01  -5.47c
Writing to output.gpw (mode='')

iter: 105 21:51:32  -297.843172c -6.87  -5.49c
iter: 106 21:51:39  -297.843172c -6.97  -5.41c
iter: 107 21:51:46  -297.843172c -7.09  -5.49c
iter: 108 21:51:53  -297.843172c -7.10  -5.51c
iter: 109 21:52:00  -297.843172c -7.26  -5.41c
Writing to output.gpw (mode='')

iter: 110 21:52:07  -297.843172c -7.24  -5.53c
iter: 111 21:52:15  -297.843172c -7.20  -5.59c
iter: 112 21:52:22  -297.843172c -7.31  -5.82c
iter: 113 21:52:29  -297.843172c -7.30  -5.87c
iter: 114 21:52:36  -297.843172c -7.38  -5.97c
Writing to output.gpw (mode='')

iter: 115 21:52:43  -297.843172c -7.42c -5.99c

Converged after 115 iterations.

Dipole moment: (-17.177470, -3.261733, 0.394420) |e|*Ang

Energy contributions relative to reference atoms: (reference = -14434.854043)

Kinetic:       +207.940862
Potential:     -181.594223
External:        +0.000000
XC:            -324.861373
Entropy (-ST):   -0.153883
Local:           +0.748504
--------------------------
Free energy:   -297.920113
Extrapolated:  -297.843172

Dipole-layer corrected work functions: 3.378860, 2.620650 eV

Showing only first 2 kpts
 Kpt  Band  Eigenvalues  Occupancy
  0    31     -3.25383    1.98766
  0    32     -3.14348    1.89315
  0    33     -2.86889    0.13607
  0    34     -2.76543    0.01827

  1    31     -3.05852    1.52819
  1    32     -3.01802    1.18065
  1    33     -2.94458    0.49814
  1    34     -2.92298    0.35436


Fermi level: -2.99976

Gap: 0.011 eV
Transition (v -> c):
  (s=0, k=2, n=32, [0.12, 0.12, 0.00]) -> (s=0, k=7, n=33, [0.38, 0.38, 0.00])

Forces in eV/Ang:
  0 Li    0.02069   -0.00181   -0.27744
  1 Li   -0.00408    0.00218   -0.26722
  2 Li   -0.01565   -0.00089   -0.27637
  3 Li   -0.00146    0.01422   -0.27464
  4 Li   -0.00081   -0.00621   -0.26708
  5 Li    0.00169    0.01982   -0.27450
  6 Li   -0.00724   -0.01353   -0.26664
  7 Li    0.00084    0.00200   -0.27997
  8 Li    0.00534   -0.01485   -0.26553
  9 Li   -0.00364    0.00240    0.29953
 10 Li    0.01397   -0.00595    0.25908
 11 Li   -0.01261   -0.00015    0.26806
 12 Li    0.00430   -0.00841    0.33027
 13 Li    0.01575    0.00087    0.26000
 14 Li   -0.02066    0.00189    0.25866
 15 Li   -0.00314    0.00278    0.23700
 16 Li   -0.00564    0.01175    0.25507
 17 Li    0.01115   -0.00090    0.25374
 18 Li    0.04809   -0.00850   -0.08954
 19 Li   -0.00253    0.00214    0.07096
 20 Li   -0.04394   -0.00015   -0.11161
 21 Li   -0.00096   -0.00875    0.03338
 22 Li   -0.00240    0.01286    0.04081
 23 Li    0.00295   -0.02006    0.03214
 24 Li   -0.01714    0.02073    0.05761
 25 Li    0.00473   -0.01832    0.01125
 26 Li    0.01523    0.01725    0.06708
 27 Li    0.00936    0.09473    0.30321
 28 Li    0.06239   -0.03113   -0.02693
 29 Li   -0.07365   -0.06098   -0.04706
 30 Li   -0.04461    1.89808   -4.74149
 31 Li    0.14272    0.03865   -0.10954
 32 Li   -0.10767    0.04843   -0.07001
 33 Li   -0.00266    0.04795   -0.07702
 34 Li   -0.01196   -0.00870   -0.02685
 35 Li    0.01244    0.00546   -0.02155
 36 O     1.86631   -3.56344   11.77902
 37 C     2.47182    2.81540    3.87469
 38 C    -0.19306    2.24845    2.43337
 39 H    -0.29142   -0.33436    0.74174
 40 H     2.19097    0.64190    1.76333
 41 H     0.15392    0.04123    0.19659
 42 H    -0.23231    1.28970    1.32881
 43 H     0.09010    0.04334    0.30479
 44 H    -0.91123   -0.69823    1.28703
 45 N    -3.01970   -8.50072   -8.44846
 46 N    -2.10093    3.91982  -10.50429

System changes: positions 

Initializing position-dependent things.

Density initialized from wave functions
       .-----------------------.  
      /|                       |  
     / |                       |  
    /  |                       |  
   /   |                       |  
  /    |                       |  
 *     |                       |  
 |     |                       |  
 |     |                       |  
 |     |                       |  
 |     |                       |  
 |     |                       |  
 |     |                  H    |  
 |    H|       Li      Li   C  |  
 |   C |                 HH    |  
 |O   H|     Li      Li      Li|  
 |     |                  NN   |  
 |     |  LLi     LLi     LLi  |  
 |     |                       |  
 Li    |Li      Li      Li     |  
 |   Li|     Li      Li        |  
 |    Li  Li  Li  Li  Li  Li   |  
 | Li  |   Li      Li          |  
 |     |Li      Li      Li     |  
 Li    | Li      Li            |  
 |    Li      Li      Li       |  
 |     |                       |  
 |     |                       |  
 |     |                       |  
 |     |                       |  
 |     |                       |  
 |     |                       |  
 |     .-----------------------.  
 |    /                       /   
 |   /                       /    
 |  /                       /     
 | /                       /      
 |/                       /       
 *-----------------------*        

Positions:
   0 Li     1.617037    1.617037   10.000000    ( 0.0000,  0.0000,  0.0000)
   1 Li     4.851111    1.617037   10.000000    ( 0.0000,  0.0000,  0.0000)
   2 Li     8.085185    1.617037   10.000000    ( 0.0000,  0.0000,  0.0000)
   3 Li     1.617037    4.851111   10.000000    ( 0.0000,  0.0000,  0.0000)
   4 Li     4.851111    4.851111   10.000000    ( 0.0000,  0.0000,  0.0000)
   5 Li     8.085185    4.851111   10.000000    ( 0.0000,  0.0000,  0.0000)
   6 Li     1.617037    8.085185   10.000000    ( 0.0000,  0.0000,  0.0000)
   7 Li     4.851111    8.085185   10.000000    ( 0.0000,  0.0000,  0.0000)
   8 Li     8.085185    8.085185   10.000000    ( 0.0000,  0.0000,  0.0000)
   9 Li     0.000000    0.000000   11.617037    ( 0.0000,  0.0000,  0.0000)
  10 Li     3.234074    0.000000   11.617037    ( 0.0000,  0.0000,  0.0000)
  11 Li     6.468148    0.000000   11.617037    ( 0.0000,  0.0000,  0.0000)
  12 Li     0.000000    3.234074   11.617037    ( 0.0000,  0.0000,  0.0000)
  13 Li     3.234074    3.234074   11.617037    ( 0.0000,  0.0000,  0.0000)
  14 Li     6.468148    3.234074   11.617037    ( 0.0000,  0.0000,  0.0000)
  15 Li     0.000000    6.468148   11.617037    ( 0.0000,  0.0000,  0.0000)
  16 Li     3.234074    6.468148   11.617037    ( 0.0000,  0.0000,  0.0000)
  17 Li     6.468148    6.468148   11.617037    ( 0.0000,  0.0000,  0.0000)
  18 Li     1.617193    1.617011   13.469440    ( 0.0000,  0.0000,  0.0000)
  19 Li     4.851103    1.617045   13.469957    ( 0.0000,  0.0000,  0.0000)
  20 Li     8.085043    1.617038   13.469369    ( 0.0000,  0.0000,  0.0000)
  21 Li     1.617035    4.851083   13.469837    ( 0.0000,  0.0000,  0.0000)
  22 Li     4.851103    4.851152   13.469861    ( 0.0000,  0.0000,  0.0000)
  23 Li     8.085193    4.851047   13.469833    ( 0.0000,  0.0000,  0.0000)
  24 Li     1.616983    8.085251   13.469913    ( 0.0000,  0.0000,  0.0000)
  25 Li     4.851126    8.085125   13.469766    ( 0.0000,  0.0000,  0.0000)
  26 Li     8.085233    8.085239   13.469943    ( 0.0000,  0.0000,  0.0000)
  27 Li     0.000030    0.000304   15.446914    ( 0.0000,  0.0000,  0.0000)
  28 Li     3.234274   -0.000100   15.445852    ( 0.0000,  0.0000,  0.0000)
  29 Li     6.467912   -0.000196   15.445788    ( 0.0000,  0.0000,  0.0000)
  30 Li    -0.000143    3.240173   15.430701    ( 0.0000,  0.0000,  0.0000)
  31 Li     3.234535    3.234201   15.445586    ( 0.0000,  0.0000,  0.0000)
  32 Li     6.467800    3.234232   15.445713    ( 0.0000,  0.0000,  0.0000)
  33 Li    -0.000009    6.468302   15.445691    ( 0.0000,  0.0000,  0.0000)
  34 Li     3.234038    6.468118   15.445852    ( 0.0000,  0.0000,  0.0000)
  35 Li     6.468186    6.468163   15.445869    ( 0.0000,  0.0000,  0.0000)
  36 O      0.005998    1.605585   18.483793    ( 0.0000,  0.0000,  0.0000)
  37 C      0.824701    2.808492   18.462689    ( 0.0000,  0.0000,  0.0000)
  38 C     -0.003482    4.090885   18.443524    ( 0.0000,  0.0000,  0.0000)
  39 H      1.499356    2.789747   19.312781    ( 0.0000,  0.0000,  0.0000)
  40 H      1.433524    2.726119   17.553109    ( 0.0000,  0.0000,  0.0000)
  41 H      0.651580    4.960718   18.420901    ( 0.0000,  0.0000,  0.0000)
  42 H     -0.652630    4.122515   17.563156    ( 0.0000,  0.0000,  0.0000)
  43 H     -0.631059    4.153986   19.329245    ( 0.0000,  0.0000,  0.0000)
  44 H     -0.585905    1.653960   19.218300    ( 0.0000,  0.0000,  0.0000)
  45 N     -0.009704    1.589682   16.918789    ( 0.0000,  0.0000,  0.0000)
  46 N     -0.006752    2.726219   16.912182    ( 0.0000,  0.0000,  0.0000)

Unit cell:
           periodic     x           y           z      points  spacing
  1. axis:    yes    9.702222    0.000000    0.000000    60     0.1617
  2. axis:    yes    0.000000    9.702222    0.000000    60     0.1617
  3. axis:    no     0.000000    0.000000   26.351111   164     0.1607

  Lengths:   9.702222   9.702222  26.351111
  Angles:   90.000000  90.000000  90.000000

Effective grid spacing dv^(1/3) = 0.1614

     iter     time        total  log10-change:
                         energy  eigst   dens
iter:   1 21:52:52  -299.745673  -0.26
iter:   2 21:52:59  -299.490742  -0.67  -1.43
iter:   3 21:53:06  -299.389536  -0.89  -1.44
iter:   4 21:53:13  -299.301624  -1.25  -1.62
Writing to output.gpw (mode='')

iter:   5 21:53:21  -299.282123  -1.40  -1.94
iter:   6 21:53:31  -299.283365c -1.00  -2.15
iter:   7 21:53:38  -299.277577c -1.75  -2.10
iter:   8 21:53:45  -299.275787c -1.91  -2.33
iter:   9 21:53:53  -299.273871c -2.33  -2.36
Writing to output.gpw (mode='')

iter:  10 21:54:00  -299.273278c -2.71  -2.55
iter:  11 21:54:07  -299.272912c -2.65  -2.78
iter:  12 21:54:14  -299.273060c -3.03  -2.80
iter:  13 21:54:25  -299.273004c -3.49  -2.90
iter:  14 21:54:33  -299.273135c -3.33  -3.03
Writing to output.gpw (mode='')

iter:  15 21:54:40  -299.273139c -3.60  -3.21
iter:  16 21:54:47  -299.273186c -3.81  -3.22
iter:  17 21:54:54  -299.273144c -3.88  -3.21
iter:  18 21:55:01  -299.273176c -3.91  -3.37
iter:  19 21:55:08  -299.273195c -4.30  -3.46
Writing to output.gpw (mode='')

iter:  20 21:55:16  -299.273175c -4.38  -3.54
iter:  21 21:55:23  -299.273185c -4.57  -3.64
iter:  22 21:55:30  -299.273171c -4.43  -3.68
iter:  23 21:55:37  -299.273178c -4.78  -3.74
iter:  24 21:55:44  -299.273178c -4.84  -3.93
Writing to output.gpw (mode='')

iter:  25 21:55:51  -299.273183c -5.01  -4.12c
iter:  26 21:55:59  -299.273183c -5.19  -4.14c
iter:  27 21:56:08  -299.273183c -5.26  -4.14c
iter:  28 21:56:22  -299.273184c -5.61  -4.13c
iter:  29 21:56:33  -299.273184c -5.66  -4.14c
Writing to output.gpw (mode='')

iter:  30 21:56:41  -299.273180c -5.50  -4.10c
iter:  31 21:56:49  -299.273182c -5.73  -4.06c
iter:  32 21:56:56  -299.273186c -5.64  -4.12c
iter:  33 21:57:03  -299.273187c -5.83  -4.21c
iter:  34 21:57:10  -299.273180c -5.83  -4.12c
Writing to output.gpw (mode='')

iter:  35 21:57:17  -299.273181c -5.83  -4.22c
iter:  36 21:57:24  -299.273175c -5.94  -4.41c
iter:  37 21:57:31  -299.273177c -6.22  -4.49c
iter:  38 21:57:39  -299.273178c -6.55  -4.56c
iter:  39 21:57:46  -299.273179c -6.34  -4.60c
Writing to output.gpw (mode='')

iter:  40 21:57:53  -299.273180c -6.46  -4.74c
iter:  41 21:58:00  -299.273179c -6.42  -4.86c
iter:  42 21:58:07  -299.273180c -6.79  -4.92c
iter:  43 21:58:14  -299.273179c -6.85  -4.94c
iter:  44 21:58:21  -299.273180c -7.01  -4.95c
Writing to output.gpw (mode='')

iter:  45 21:58:29  -299.273178c -7.02  -5.04c
iter:  46 21:58:36  -299.273179c -6.97  -5.24c
iter:  47 21:58:43  -299.273179c -7.05  -5.27c
iter:  48 21:58:50  -299.273179c -6.84  -5.32c
iter:  49 21:58:57  -299.273179c -7.22  -5.43c
Writing to output.gpw (mode='')

iter:  50 21:59:04  -299.273179c -7.16  -5.57c
iter:  51 21:59:12  -299.273179c -7.40c -5.53c

Converged after 51 iterations.

Dipole moment: (-16.000676, -3.154670, 0.374282) |e|*Ang

Energy contributions relative to reference atoms: (reference = -14434.854043)

Kinetic:       +198.124575
Potential:     -174.687354
External:        +0.000000
XC:            -323.389206
Entropy (-ST):   -0.155557
Local:           +0.756585
--------------------------
Free energy:   -299.350958
Extrapolated:  -299.273179

Dipole-layer corrected work functions: 3.381862, 2.662365 eV

Showing only first 2 kpts
 Kpt  Band  Eigenvalues  Occupancy
  0    31     -3.27637    1.98770
  0    32     -3.16178    1.88462
  0    33     -2.90838    0.18649
  0    34     -2.78609    0.01766

  1    31     -3.09274    1.60835
  1    32     -3.03896    1.16684
  1    33     -2.95517    0.41540
  1    34     -2.93839    0.31568


Fermi level: -3.02211

Gap: 0.010 eV
Transition (v -> c):
  (s=0, k=2, n=32, [0.12, 0.12, 0.00]) -> (s=0, k=7, n=33, [0.38, 0.38, 0.00])
Writing to output.gpw (mode='')


Forces in eV/Ang:
  0 Li    0.02105   -0.00204   -0.27898
  1 Li   -0.00366    0.00226   -0.26757
  2 Li   -0.01641   -0.00089   -0.27851
  3 Li   -0.00151    0.01544   -0.27581
  4 Li   -0.00085   -0.00675   -0.26537
  5 Li    0.00239    0.02075   -0.27594
  6 Li   -0.00784   -0.01472   -0.26692
  7 Li    0.00059    0.00260   -0.28010
  8 Li    0.00603   -0.01535   -0.26581
  9 Li   -0.00386    0.00069    0.30022
 10 Li    0.01411   -0.00470    0.26014
 11 Li   -0.01189    0.00071    0.27040
 12 Li    0.00413   -0.00692    0.33414
 13 Li    0.01387   -0.00011    0.26195
 14 Li   -0.01914    0.00122    0.26094
 15 Li   -0.00265    0.00267    0.23779
 16 Li   -0.00379    0.01255    0.25373
 17 Li    0.00861   -0.00132    0.25223
 18 Li    0.04721   -0.01122   -0.09805
 19 Li   -0.00219    0.00276    0.07426
 20 Li   -0.04297   -0.00194   -0.12092
 21 Li    0.00322   -0.00474    0.02599
 22 Li   -0.00191    0.00999    0.04314
 23 Li   -0.00262   -0.01453    0.02109
 24 Li   -0.01683    0.02119    0.05538
 25 Li    0.00419   -0.01768    0.01224
 26 Li    0.01517    0.01526    0.06403
 27 Li    0.00283    0.10168    0.33884
 28 Li    0.06176   -0.03563   -0.02368
 29 Li   -0.07468   -0.06441   -0.04274
 30 Li   -0.02499    2.00143   -5.03775
 31 Li    0.13419    0.04169   -0.10296
 32 Li   -0.09561    0.04946   -0.05903
 33 Li   -0.00098    0.04556   -0.07534
 34 Li   -0.01011   -0.00930   -0.02806
 35 Li    0.00935    0.00588   -0.02345
 36 O     2.62513   -2.36291    8.84887
 37 C     1.78954    1.96495    3.14666
 38 C    -0.14540    1.76315    1.98491
 39 H    -0.04815   -0.21178    0.95244
 40 H     1.74422    0.53310    1.80525
 41 H     0.21222    0.16635    0.20975
 42 H    -0.15640    1.17799    1.35823
 43 H    -0.01339    0.09733    0.45893
 44 H    -1.37624   -0.42353    1.80958
 45 N    -2.55014   -3.27251   -7.21362
 46 N    -2.04251   -1.58194   -8.35414

System changes: positions 

Initializing position-dependent things.

Density initialized from wave functions
       .-----------------------.  
      /|                       |  
     / |                       |  
    /  |                       |  
   /   |                       |  
  /    |                       |  
 *     |                       |  
 |     |                       |  
 |     |                       |  
 |     |                       |  
 |     |                       |  
 |     |                       |  
 |     |                  H    |  
 |    H|       Li      Li   C  |  
 |   C |                 HH    |  
 |O   H|     Li      Li      Li|  
 |     |                   N   |  
 |     |  LLi     LLi     NLi  |  
 |     |                       |  
 Li    |Li      Li      Li     |  
 |   Li|     Li      Li        |  
 |    Li  Li  Li  Li  Li  Li   |  
 | Li  |   Li      Li          |  
 |     |Li      Li      Li     |  
 Li    | Li      Li            |  
 |    Li      Li      Li       |  
 |     |                       |  
 |     |                       |  
 |     |                       |  
 |     |                       |  
 |     |                       |  
 |     |                       |  
 |     .-----------------------.  
 |    /                       /   
 |   /                       /    
 |  /                       /     
 | /                       /      
 |/                       /       
 *-----------------------*        

Positions:
   0 Li     1.617037    1.617037   10.000000    ( 0.0000,  0.0000,  0.0000)
   1 Li     4.851111    1.617037   10.000000    ( 0.0000,  0.0000,  0.0000)
   2 Li     8.085185    1.617037   10.000000    ( 0.0000,  0.0000,  0.0000)
   3 Li     1.617037    4.851111   10.000000    ( 0.0000,  0.0000,  0.0000)
   4 Li     4.851111    4.851111   10.000000    ( 0.0000,  0.0000,  0.0000)
   5 Li     8.085185    4.851111   10.000000    ( 0.0000,  0.0000,  0.0000)
   6 Li     1.617037    8.085185   10.000000    ( 0.0000,  0.0000,  0.0000)
   7 Li     4.851111    8.085185   10.000000    ( 0.0000,  0.0000,  0.0000)
   8 Li     8.085185    8.085185   10.000000    ( 0.0000,  0.0000,  0.0000)
   9 Li     0.000000    0.000000   11.617037    ( 0.0000,  0.0000,  0.0000)
  10 Li     3.234074    0.000000   11.617037    ( 0.0000,  0.0000,  0.0000)
  11 Li     6.468148    0.000000   11.617037    ( 0.0000,  0.0000,  0.0000)
  12 Li     0.000000    3.234074   11.617037    ( 0.0000,  0.0000,  0.0000)
  13 Li     3.234074    3.234074   11.617037    ( 0.0000,  0.0000,  0.0000)
  14 Li     6.468148    3.234074   11.617037    ( 0.0000,  0.0000,  0.0000)
  15 Li     0.000000    6.468148   11.617037    ( 0.0000,  0.0000,  0.0000)
  16 Li     3.234074    6.468148   11.617037    ( 0.0000,  0.0000,  0.0000)
  17 Li     6.468148    6.468148   11.617037    ( 0.0000,  0.0000,  0.0000)
  18 Li     1.617409    1.616953   13.468970    ( 0.0000,  0.0000,  0.0000)
  19 Li     4.851093    1.617059   13.470307    ( 0.0000,  0.0000,  0.0000)
  20 Li     8.084846    1.617025   13.468792    ( 0.0000,  0.0000,  0.0000)
  21 Li     1.617059    4.851069   13.469942    ( 0.0000,  0.0000,  0.0000)
  22 Li     4.851095    4.851193   13.470065    ( 0.0000,  0.0000,  0.0000)
  23 Li     8.085170    4.850991   13.469908    ( 0.0000,  0.0000,  0.0000)
  24 Li     1.616906    8.085349   13.470164    ( 0.0000,  0.0000,  0.0000)
  25 Li     4.851144    8.085044   13.469824    ( 0.0000,  0.0000,  0.0000)
  26 Li     8.085303    8.085306   13.470233    ( 0.0000,  0.0000,  0.0000)
  27 Li     0.000030    0.000788   15.448551    ( 0.0000,  0.0000,  0.0000)
  28 Li     3.234558   -0.000274   15.445749    ( 0.0000,  0.0000,  0.0000)
  29 Li     6.467564   -0.000501   15.445599    ( 0.0000,  0.0000,  0.0000)
  30 Li    -0.000219    3.249631   15.406824    ( 0.0000,  0.0000,  0.0000)
  31 Li     3.235138    3.234399   15.445123    ( 0.0000,  0.0000,  0.0000)
  32 Li     6.467382    3.234463   15.445462    ( 0.0000,  0.0000,  0.0000)
  33 Li    -0.000010    6.468508   15.445346    ( 0.0000,  0.0000,  0.0000)
  34 Li     3.233995    6.468073   15.445720    ( 0.0000,  0.0000,  0.0000)
  35 Li     6.468223    6.468191   15.445757    ( 0.0000,  0.0000,  0.0000)
  36 O      0.019656    1.597081   18.518792    ( 0.0000,  0.0000,  0.0000)
  37 C      0.831598    2.815862   18.475767    ( 0.0000,  0.0000,  0.0000)
  38 C     -0.004058    4.098057   18.451795    ( 0.0000,  0.0000,  0.0000)
  39 H      1.499623    2.789015   19.317607    ( 0.0000,  0.0000,  0.0000)
  40 H      1.440686    2.728363   17.561536    ( 0.0000,  0.0000,  0.0000)
  41 H      0.652678    4.961739   18.421897    ( 0.0000,  0.0000,  0.0000)
  42 H     -0.653200    4.127734   17.569492    ( 0.0000,  0.0000,  0.0000)
  43 H     -0.631329    4.154544   19.331676    ( 0.0000,  0.0000,  0.0000)
  44 H     -0.593201    1.652555   19.227714    ( 0.0000,  0.0000,  0.0000)
  45 N     -0.020545    1.585078   16.887936    ( 0.0000,  0.0000,  0.0000)
  46 N     -0.016073    2.707838   16.877900    ( 0.0000,  0.0000,  0.0000)

Unit cell:
           periodic     x           y           z      points  spacing
  1. axis:    yes    9.702222    0.000000    0.000000    60     0.1617
  2. axis:    yes    0.000000    9.702222    0.000000    60     0.1617
  3. axis:    no     0.000000    0.000000   26.351111   164     0.1607

  Lengths:   9.702222   9.702222  26.351111
  Angles:   90.000000  90.000000  90.000000

Effective grid spacing dv^(1/3) = 0.1614

     iter     time        total  log10-change:
                         energy  eigst   dens
iter:   1 21:59:27  -300.832216  -0.51
iter:   2 21:59:34  -300.583981  -0.46  -1.37
iter:   3 21:59:41  -300.514324  -1.26  -1.55
iter:   4 21:59:48  -300.492167  -0.79  -1.96
Writing to output.gpw (mode='')

iter:   5 21:59:56  -300.519315c -1.30  -1.93
iter:   6 22:00:03  -300.562035  -1.23  -2.01
iter:   7 22:00:10  -300.495900  -1.71  -1.85
iter:   8 22:00:17  -300.470802  -1.39  -2.05
iter:   9 22:00:24  -300.472701c -2.17  -2.40
Writing to output.gpw (mode='')

iter:  10 22:00:31  -300.481898c -2.26  -2.54
iter:  11 22:00:39  -300.471213c -1.85  -2.25
iter:  12 22:00:46  -300.471623c -2.57  -2.69
iter:  13 22:00:53  -300.471638c -3.05  -2.90
iter:  14 22:01:00  -300.471420c -2.83  -2.94
Writing to output.gpw (mode='')

iter:  15 22:01:07  -300.471700c -3.02  -3.00
iter:  16 22:01:14  -300.471643c -3.13  -3.10
iter:  17 22:01:21  -300.471700c -3.54  -3.19
iter:  18 22:01:29  -300.471797c -3.43  -3.23
iter:  19 22:01:36  -300.471724c -3.63  -3.28
Writing to output.gpw (mode='')

iter:  20 22:01:43  -300.471771c -3.90  -3.45
iter:  21 22:01:50  -300.471795c -3.79  -3.52
iter:  22 22:01:57  -300.471822c -4.14  -3.65
iter:  23 22:02:04  -300.471827c -4.37  -3.69
iter:  24 22:02:11  -300.471872c -4.34  -3.73
Writing to output.gpw (mode='')

iter:  25 22:02:18  -300.471872c -4.73  -3.75
iter:  26 22:02:26  -300.471870c -4.61  -3.87
iter:  27 22:02:33  -300.471875c -4.97  -4.00
iter:  28 22:02:40  -300.471878c -4.77  -4.04c
iter:  29 22:02:47  -300.471876c -4.92  -4.12c
Writing to output.gpw (mode='')

iter:  30 22:02:54  -300.471885c -5.14  -4.31c
iter:  31 22:03:01  -300.471887c -5.15  -4.32c
iter:  32 22:03:08  -300.471888c -5.46  -4.48c
iter:  33 22:03:15  -300.471888c -5.54  -4.58c
iter:  34 22:03:23  -300.471889c -5.31  -4.70c
Writing to output.gpw (mode='')

iter:  35 22:03:30  -300.471889c -5.66  -4.70c
iter:  36 22:03:37  -300.471889c -5.64  -4.66c
iter:  37 22:03:44  -300.471891c -5.75  -4.68c
iter:  38 22:03:51  -300.471892c -6.01  -4.79c
iter:  39 22:03:58  -300.471892c -5.91  -4.80c
Writing to output.gpw (mode='')

iter:  40 22:04:06  -300.471893c -5.90  -4.78c
iter:  41 22:04:13  -300.471892c -6.00  -4.72c
iter:  42 22:04:25  -300.471895c -6.23  -4.68c
iter:  43 22:04:33  -300.471894c -6.54  -4.78c
iter:  44 22:04:40  -300.471894c -6.46  -4.71c
Writing to output.gpw (mode='')

iter:  45 22:04:47  -300.471895c -6.48  -4.71c
iter:  46 22:04:54  -300.471897c -6.28  -4.81c
iter:  47 22:05:01  -300.471899c -6.47  -5.02c
iter:  48 22:05:09  -300.471898c -6.65  -5.17c
iter:  49 22:05:16  -300.471899c -6.73  -5.25c
Writing to output.gpw (mode='')

iter:  50 22:05:23  -300.471900c -6.63  -5.37c
iter:  51 22:05:30  -300.471900c -6.72  -5.44c
iter:  52 22:05:37  -300.471900c -6.99  -5.59c
iter:  53 22:05:44  -300.471900c -6.85  -5.61c
iter:  54 22:05:51  -300.471900c -7.04  -5.67c
Writing to output.gpw (mode='')

iter:  55 22:05:58  -300.471901c -7.00  -5.72c
iter:  56 22:06:05  -300.471901c -7.03  -5.82c
iter:  57 22:06:13  -300.471901c -7.32  -5.92c
iter:  58 22:06:20  -300.471901c -7.24  -5.95c
iter:  59 22:06:27  -300.471901c -7.52c -5.95c

Converged after 59 iterations.

Dipole moment: (-15.004705, -3.130175, 0.386856) |e|*Ang

Energy contributions relative to reference atoms: (reference = -14434.854043)

Kinetic:       +195.473154
Potential:     -173.581442
External:        +0.000000
XC:            -323.046791
Entropy (-ST):   -0.154391
Local:           +0.760373
--------------------------
Free energy:   -300.549096
Extrapolated:  -300.471901

Dipole-layer corrected work functions: 3.381995, 2.638325 eV

Showing only first 2 kpts
 Kpt  Band  Eigenvalues  Occupancy
  0    31     -3.26571    1.98801
  0    32     -3.15017    1.88537
  0    33     -2.89113    0.16933
  0    34     -2.77348    0.01744

  1    31     -3.08077    1.60824
  1    32     -3.02926    1.18875
  1    33     -2.94495    0.42692
  1    34     -2.92507    0.30848


Fermi level: -3.01016

Gap: 0.010 eV
Transition (v -> c):
  (s=0, k=2, n=32, [0.12, 0.12, 0.00]) -> (s=0, k=7, n=33, [0.38, 0.38, 0.00])
Writing to output.gpw (mode='')


Forces in eV/Ang:
  0 Li    0.02141   -0.00157   -0.27933
  1 Li   -0.00316    0.00225   -0.26759
  2 Li   -0.01722   -0.00096   -0.27934
  3 Li   -0.00194    0.01582   -0.27610
  4 Li   -0.00117   -0.00743   -0.26499
  5 Li    0.00310    0.02075   -0.27597
  6 Li   -0.00822   -0.01533   -0.26676
  7 Li    0.00046    0.00340   -0.28024
  8 Li    0.00640   -0.01534   -0.26594
  9 Li   -0.00341    0.00089    0.30042
 10 Li    0.01472   -0.00412    0.25946
 11 Li   -0.01261   -0.00009    0.26970
 12 Li    0.00339   -0.00690    0.33673
 13 Li    0.01424    0.00025    0.26090
 14 Li   -0.01927    0.00128    0.26178
 15 Li   -0.00219    0.00241    0.23791
 16 Li   -0.00397    0.01161    0.25395
 17 Li    0.00846   -0.00047    0.25154
 18 Li    0.05045   -0.01356   -0.10164
 19 Li   -0.00181    0.00271    0.07497
 20 Li   -0.04660   -0.00559   -0.12580
 21 Li    0.00662   -0.00363    0.02529
 22 Li   -0.00011    0.01092    0.04202
 23 Li   -0.00729   -0.01028    0.01623
 24 Li   -0.01677    0.02333    0.05644
 25 Li    0.00341   -0.01875    0.01228
 26 Li    0.01547    0.01651    0.06393
 27 Li   -0.00121    0.04794    0.29998
 28 Li    0.06423   -0.03867   -0.02667
 29 Li   -0.07722   -0.06505   -0.04341
 30 Li    0.00970    2.06816   -4.95772
 31 Li    0.13700    0.04623   -0.10662
 32 Li   -0.09966    0.05048   -0.06259
 33 Li    0.00015    0.04591   -0.07618
 34 Li   -0.01244   -0.01114   -0.02687
 35 Li    0.01033    0.00439   -0.02368
 36 O     2.77598   -1.71145    7.34086
 37 C     1.32736    1.36315    2.72299
 38 C    -0.08258    1.19130    1.47473
 39 H     0.17425   -0.06188    1.05453
 40 H     1.38986    0.49204    1.84907
 41 H     0.23123    0.25222    0.20747
 42 H    -0.07517    1.03261    1.28329
 43 H    -0.09501    0.14214    0.56069
 44 H    -1.36222   -0.19756    1.82341
 45 N    -2.30592   -3.65814   -6.45508
 46 N    -2.01593   -1.00068   -6.89694

System changes: positions 

Initializing position-dependent things.

Density initialized from wave functions
       .-----------------------.  
      /|                       |  
     / |                       |  
    /  |                       |  
   /   |                       |  
  /    |                       |  
 *     |                       |  
 |     |                       |  
 |     |                       |  
 |     |                       |  
 |     |                       |  
 |     |                       |  
 |     |                  H    |  
 |    H|       Li      Li   C  |  
 |O  C |                 HH    |  
 |   LH|     Li      Li        |  
 |     |                   N   |  
 | Li  |  LLi     LLi     Ni   |  
 |     |                       |  
 |     |Li      Li      LLi    |  
 |   Li|     Li      Li        |  
 |    Li  Li  Li  Li  Li  Li   |  
 | Li  |   Li      Li          |  
 |     |Li      Li      Li     |  
 Li    | Li      Li            |  
 |    Li      Li      Li       |  
 |     |                       |  
 |     |                       |  
 |     |                       |  
 |     |                       |  
 |     |                       |  
 |     |                       |  
 |     .-----------------------.  
 |    /                       /   
 |   /                       /    
 |  /                       /     
 | /                       /      
 |/                       /       
 *-----------------------*        

Positions:
   0 Li     1.617037    1.617037   10.000000    ( 0.0000,  0.0000,  0.0000)
   1 Li     4.851111    1.617037   10.000000    ( 0.0000,  0.0000,  0.0000)
   2 Li     8.085185    1.617037   10.000000    ( 0.0000,  0.0000,  0.0000)
   3 Li     1.617037    4.851111   10.000000    ( 0.0000,  0.0000,  0.0000)
   4 Li     4.851111    4.851111   10.000000    ( 0.0000,  0.0000,  0.0000)
   5 Li     8.085185    4.851111   10.000000    ( 0.0000,  0.0000,  0.0000)
   6 Li     1.617037    8.085185   10.000000    ( 0.0000,  0.0000,  0.0000)
   7 Li     4.851111    8.085185   10.000000    ( 0.0000,  0.0000,  0.0000)
   8 Li     8.085185    8.085185   10.000000    ( 0.0000,  0.0000,  0.0000)
   9 Li     0.000000    0.000000   11.617037    ( 0.0000,  0.0000,  0.0000)
  10 Li     3.234074    0.000000   11.617037    ( 0.0000,  0.0000,  0.0000)
  11 Li     6.468148    0.000000   11.617037    ( 0.0000,  0.0000,  0.0000)
  12 Li     0.000000    3.234074   11.617037    ( 0.0000,  0.0000,  0.0000)
  13 Li     3.234074    3.234074   11.617037    ( 0.0000,  0.0000,  0.0000)
  14 Li     6.468148    3.234074   11.617037    ( 0.0000,  0.0000,  0.0000)
  15 Li     0.000000    6.468148   11.617037    ( 0.0000,  0.0000,  0.0000)
  16 Li     3.234074    6.468148   11.617037    ( 0.0000,  0.0000,  0.0000)
  17 Li     6.468148    6.468148   11.617037    ( 0.0000,  0.0000,  0.0000)
  18 Li     1.617770    1.616839   13.468239    ( 0.0000,  0.0000,  0.0000)
  19 Li     4.851085    1.617079   13.470826    ( 0.0000,  0.0000,  0.0000)
  20 Li     8.084509    1.616957   13.467886    ( 0.0000,  0.0000,  0.0000)
  21 Li     1.617138    4.851062   13.470089    ( 0.0000,  0.0000,  0.0000)
  22 Li     4.851109    4.851266   13.470346    ( 0.0000,  0.0000,  0.0000)
  23 Li     8.085074    4.850965   13.469956    ( 0.0000,  0.0000,  0.0000)
  24 Li     1.616794    8.085523   13.470547    ( 0.0000,  0.0000,  0.0000)
  25 Li     4.851161    8.084912   13.469910    ( 0.0000,  0.0000,  0.0000)
  26 Li     8.085409    8.085421   13.470656    ( 0.0000,  0.0000,  0.0000)
  27 Li    -0.000023    0.000747   15.450384    ( 0.0000,  0.0000,  0.0000)
  28 Li     3.235007   -0.000567   15.445556    ( 0.0000,  0.0000,  0.0000)
  29 Li     6.467023   -0.000952   15.445312    ( 0.0000,  0.0000,  0.0000)
  30 Li     0.000141    3.264295   15.373257    ( 0.0000,  0.0000,  0.0000)
  31 Li     3.236060    3.234751   15.444395    ( 0.0000,  0.0000,  0.0000)
  32 Li     6.466711    3.234813   15.445042    ( 0.0000,  0.0000,  0.0000)
  33 Li     0.000003    6.468814   15.444831    ( 0.0000,  0.0000,  0.0000)
  34 Li     3.233899    6.467984   15.445544    ( 0.0000,  0.0000,  0.0000)
  35 Li     6.468291    6.468211   15.445591    ( 0.0000,  0.0000,  0.0000)
  36 O      0.041302    1.593134   18.550324    ( 0.0000,  0.0000,  0.0000)
  37 C      0.835578    2.818677   18.489311    ( 0.0000,  0.0000,  0.0000)
  38 C     -0.004050    4.100826   18.457003    ( 0.0000,  0.0000,  0.0000)
  39 H      1.502976    2.789964   19.325957    ( 0.0000,  0.0000,  0.0000)
  40 H      1.446433    2.731119   17.574410    ( 0.0000,  0.0000,  0.0000)
  41 H      0.654515    4.964357   18.423311    ( 0.0000,  0.0000,  0.0000)
  42 H     -0.652943    4.133384   17.577680    ( 0.0000,  0.0000,  0.0000)
  43 H     -0.632804    4.155954   19.336557    ( 0.0000,  0.0000,  0.0000)
  44 H     -0.603426    1.653506   19.241386    ( 0.0000,  0.0000,  0.0000)
  45 N     -0.033191    1.570567   16.852872    ( 0.0000,  0.0000,  0.0000)
  46 N     -0.029324    2.691673   16.847077    ( 0.0000,  0.0000,  0.0000)

Unit cell:
           periodic     x           y           z      points  spacing
  1. axis:    yes    9.702222    0.000000    0.000000    60     0.1617
  2. axis:    yes    0.000000    9.702222    0.000000    60     0.1617
  3. axis:    no     0.000000    0.000000   26.351111   164     0.1607

  Lengths:   9.702222   9.702222  26.351111
  Angles:   90.000000  90.000000  90.000000

Effective grid spacing dv^(1/3) = 0.1614

     iter     time        total  log10-change:
                         energy  eigst   dens
iter:   1 22:06:35  -301.734184  -0.57
iter:   2 22:06:43  -301.660210  -0.82  -1.57
iter:   3 22:06:50  -301.632635  -1.54  -1.73
iter:   4 22:06:57  -301.621362  -1.52  -2.10
Writing to output.gpw (mode='')

iter:   5 22:07:04  -301.627773c -1.92  -2.25
iter:   6 22:07:11  -301.624615c -1.88  -2.15
iter:   7 22:07:19  -301.611449c -1.77  -2.12
iter:   8 22:07:26  -301.612372c -2.35  -2.55
iter:   9 22:07:33  -301.612127c -2.28  -2.62
Writing to output.gpw (mode='')

iter:  10 22:07:40  -301.612008c -2.52  -2.66
iter:  11 22:07:47  -301.612084c -3.17  -2.85
iter:  12 22:07:54  -301.612645c -2.58  -2.83
iter:  13 22:08:02  -301.612129c -3.28  -2.87
iter:  14 22:08:09  -301.611584c -3.03  -2.95
Writing to output.gpw (mode='')

iter:  15 22:08:16  -301.611633c -3.60  -3.14
iter:  16 22:08:23  -301.611697c -3.74  -3.11
iter:  17 22:08:30  -301.611664c -3.96  -3.17
iter:  18 22:08:37  -301.611696c -3.71  -3.24
iter:  19 22:08:45  -301.611702c -4.04  -3.38
Writing to output.gpw (mode='')

iter:  20 22:08:52  -301.611683c -4.05  -3.53
iter:  21 22:08:59  -301.611702c -4.11  -3.56
iter:  22 22:09:06  -301.611720c -4.47  -3.60
iter:  23 22:09:13  -301.611730c -4.59  -3.77
iter:  24 22:09:25  -301.611723c -4.71  -3.89
Writing to output.gpw (mode='')

iter:  25 22:09:33  -301.611725c -4.75  -4.01c
iter:  26 22:09:43  -301.611726c -4.75  -4.10c
iter:  27 22:09:50  -301.611728c -5.41  -4.16c
iter:  28 22:09:57  -301.611735c -5.22  -4.23c
iter:  29 22:10:04  -301.611731c -5.35  -4.39c
Writing to output.gpw (mode='')

iter:  30 22:10:12  -301.611732c -5.40  -4.41c
iter:  31 22:10:19  -301.611734c -5.55  -4.42c
iter:  32 22:10:26  -301.611736c -5.82  -4.50c
iter:  33 22:10:33  -301.611735c -5.80  -4.57c
iter:  34 22:10:40  -301.611736c -6.11  -4.62c
Writing to output.gpw (mode='')

iter:  35 22:10:48  -301.611737c -6.04  -4.67c
iter:  36 22:10:55  -301.611735c -6.00  -4.83c
iter:  37 22:11:02  -301.611737c -6.37  -4.81c
iter:  38 22:11:09  -301.611737c -6.42  -4.97c
iter:  39 22:11:16  -301.611738c -6.41  -5.00c
Writing to output.gpw (mode='')

iter:  40 22:11:24  -301.611738c -6.56  -5.00c
iter:  41 22:11:31  -301.611739c -6.36  -4.98c
iter:  42 22:11:38  -301.611739c -6.64  -5.00c
iter:  43 22:11:45  -301.611739c -6.75  -5.08c
iter:  44 22:11:52  -301.611739c -6.78  -5.22c
Writing to output.gpw (mode='')

iter:  45 22:12:00  -301.611739c -6.71  -5.34c
iter:  46 22:12:07  -301.611739c -7.12  -5.51c
iter:  47 22:12:14  -301.611739c -7.27  -5.69c
iter:  48 22:12:21  -301.611739c -7.15  -5.78c
iter:  49 22:12:28  -301.611740c -7.10  -5.87c
Writing to output.gpw (mode='')

iter:  50 22:12:36  -301.611740c -7.47c -5.99c

Converged after 50 iterations.

Dipole moment: (-13.950424, -3.078633, 0.378859) |e|*Ang

Energy contributions relative to reference atoms: (reference = -14434.854043)

Kinetic:       +190.805192
Potential:     -170.779738
External:        +0.000000
XC:            -322.322089
Entropy (-ST):   -0.153687
Local:           +0.761739
--------------------------
Free energy:   -301.688583
Extrapolated:  -301.611740

Dipole-layer corrected work functions: 3.382813, 2.654517 eV

Showing only first 2 kpts
 Kpt  Band  Eigenvalues  Occupancy
  0    31     -3.27568    1.98836
  0    32     -3.15873    1.88549
  0    33     -2.89919    0.16797
  0    34     -2.78057    0.01695

  1    31     -3.09401    1.63718
  1    32     -3.03692    1.18051
  1    33     -2.95287    0.42300
  1    34     -2.92944    0.28751


Fermi level: -3.01867

Gap: 0.010 eV
Transition (v -> c):
  (s=0, k=2, n=32, [0.12, 0.12, 0.00]) -> (s=0, k=7, n=33, [0.38, 0.38, 0.00])

Forces in eV/Ang:
  0 Li    0.02158   -0.00133   -0.28033
  1 Li   -0.00298    0.00228   -0.26748
  2 Li   -0.01761   -0.00088   -0.28072
  3 Li   -0.00232    0.01617   -0.27706
  4 Li   -0.00130   -0.00790   -0.26434
  5 Li    0.00374    0.02100   -0.27675
  6 Li   -0.00862   -0.01587   -0.26647
  7 Li    0.00029    0.00395   -0.28051
  8 Li    0.00674   -0.01561   -0.26596
  9 Li   -0.00321    0.00065    0.30125
 10 Li    0.01571   -0.00373    0.25900
 11 Li   -0.01317   -0.00075    0.26981
 12 Li    0.00282   -0.00645    0.34094
 13 Li    0.01381    0.00026    0.26124
 14 Li   -0.01886    0.00136    0.26325
 15 Li   -0.00177    0.00202    0.23838
 16 Li   -0.00355    0.01148    0.25359
 17 Li    0.00765    0.00002    0.25051
 18 Li    0.05380   -0.01786   -0.10685
 19 Li   -0.00117    0.00273    0.07560
 20 Li   -0.05015   -0.00999   -0.13301
 21 Li    0.01317    0.00190    0.01747
 22 Li    0.00129    0.01101    0.04159
 23 Li   -0.01483   -0.00260    0.00551
 24 Li   -0.01645    0.02494    0.05639
 25 Li    0.00264   -0.01925    0.01251
 26 Li    0.01547    0.01679    0.06272
 27 Li   -0.00500   -0.00705    0.26534
 28 Li    0.06441   -0.04107   -0.02751
 29 Li   -0.07912   -0.06636   -0.04287
 30 Li    0.04892    1.98682   -4.53258
 31 Li    0.13491    0.04861   -0.10511
 32 Li   -0.09979    0.05172   -0.06244
 33 Li    0.00104    0.04715   -0.07545
 34 Li   -0.01339   -0.01214   -0.02648
 35 Li    0.01047    0.00346   -0.02416
 36 O     2.26199   -1.35552    6.40646
 37 C     1.04871    1.03230    2.33784
 38 C     0.00190    0.93805    1.32736
 39 H     0.29361    0.07307    1.04361
 40 H     1.09788    0.41854    1.75332
 41 H     0.18821    0.21454    0.21020
 42 H    -0.06724    0.89452    1.12564
 43 H    -0.08505    0.16209    0.52429
 44 H    -0.89426   -0.06057    1.27272
 45 N    -2.02367   -3.16524   -5.41312
 46 N    -1.92583   -1.21915   -5.91675

System changes: positions 

Initializing position-dependent things.

Density initialized from wave functions
       .-----------------------.  
      /|                       |  
     / |                       |  
    /  |                       |  
   /   |                       |  
  /    |                       |  
 *     |                       |  
 |     |                       |  
 |     |                       |  
 |     |                       |  
 |     |                       |  
 |     |                       |  
 |     |                  H    |  
 |    H|       Li      Li   C  Li 
 |O  C |                 HH    |  
 |   LH|     Li      Li        |  
 |     |                   N   |  
 | Li  |  LLi     LLi     Ni   |  
 |     |                       |  
 |     |Li      Li      Li     |  
 |   Li|     Li      Li        |  
 |    Li  Li  Li  Li  Li  Li   |  
 | Li  |   Li      Li          |  
 |     |Li      Li      Li     |  
 Li    | Li      Li            |  
 |    Li      Li      Li       |  
 |     |                       |  
 |     |                       |  
 |     |                       |  
 |     |                       |  
 |     |                       |  
 |     |                       |  
 |     .-----------------------.  
 |    /                       /   
 |   /                       /    
 |  /                       /     
 | /                       /      
 |/                       /       
 *-----------------------*        

Positions:
   0 Li     1.617037    1.617037   10.000000    ( 0.0000,  0.0000,  0.0000)
   1 Li     4.851111    1.617037   10.000000    ( 0.0000,  0.0000,  0.0000)
   2 Li     8.085185    1.617037   10.000000    ( 0.0000,  0.0000,  0.0000)
   3 Li     1.617037    4.851111   10.000000    ( 0.0000,  0.0000,  0.0000)
   4 Li     4.851111    4.851111   10.000000    ( 0.0000,  0.0000,  0.0000)
   5 Li     8.085185    4.851111   10.000000    ( 0.0000,  0.0000,  0.0000)
   6 Li     1.617037    8.085185   10.000000    ( 0.0000,  0.0000,  0.0000)
   7 Li     4.851111    8.085185   10.000000    ( 0.0000,  0.0000,  0.0000)
   8 Li     8.085185    8.085185   10.000000    ( 0.0000,  0.0000,  0.0000)
   9 Li     0.000000    0.000000   11.617037    ( 0.0000,  0.0000,  0.0000)
  10 Li     3.234074    0.000000   11.617037    ( 0.0000,  0.0000,  0.0000)
  11 Li     6.468148    0.000000   11.617037    ( 0.0000,  0.0000,  0.0000)
  12 Li     0.000000    3.234074   11.617037    ( 0.0000,  0.0000,  0.0000)
  13 Li     3.234074    3.234074   11.617037    ( 0.0000,  0.0000,  0.0000)
  14 Li     6.468148    3.234074   11.617037    ( 0.0000,  0.0000,  0.0000)
  15 Li     0.000000    6.468148   11.617037    ( 0.0000,  0.0000,  0.0000)
  16 Li     3.234074    6.468148   11.617037    ( 0.0000,  0.0000,  0.0000)
  17 Li     6.468148    6.468148   11.617037    ( 0.0000,  0.0000,  0.0000)
  18 Li     1.618273    1.616636   13.467246    ( 0.0000,  0.0000,  0.0000)
  19 Li     4.851082    1.617103   13.471490    ( 0.0000,  0.0000,  0.0000)
  20 Li     8.084033    1.616814   13.466646    ( 0.0000,  0.0000,  0.0000)
  21 Li     1.617326    4.851131   13.470167    ( 0.0000,  0.0000,  0.0000)
  22 Li     4.851142    4.851361   13.470697    ( 0.0000,  0.0000,  0.0000)
  23 Li     8.084854    4.851034   13.469876    ( 0.0000,  0.0000,  0.0000)
  24 Li     1.616656    8.085763   13.471032    ( 0.0000,  0.0000,  0.0000)
  25 Li     4.851172    8.084738   13.470021    ( 0.0000,  0.0000,  0.0000)
  26 Li     8.085544    8.085571   13.471179    ( 0.0000,  0.0000,  0.0000)
  27 Li    -0.000132   -0.000027   15.452242    ( 0.0000,  0.0000,  0.0000)
  28 Li     3.235576   -0.000965   15.445302    ( 0.0000,  0.0000,  0.0000)
  29 Li     6.466313   -0.001541   15.444953    ( 0.0000,  0.0000,  0.0000)
  30 Li     0.001095    3.281456   15.337138    ( 0.0000,  0.0000,  0.0000)
  31 Li     3.237204    3.235220   15.443493    ( 0.0000,  0.0000,  0.0000)
  32 Li     6.465852    3.235273   15.444507    ( 0.0000,  0.0000,  0.0000)
  33 Li     0.000029    6.469224   15.444187    ( 0.0000,  0.0000,  0.0000)
  34 Li     3.233766    6.467859   15.445325    ( 0.0000,  0.0000,  0.0000)
  35 Li     6.468382    6.468225   15.445375    ( 0.0000,  0.0000,  0.0000)
  36 O      0.059874    1.590747   18.582833    ( 0.0000,  0.0000,  0.0000)
  37 C      0.838195    2.819517   18.502441    ( 0.0000,  0.0000,  0.0000)
  38 C     -0.002951    4.102330   18.463040    ( 0.0000,  0.0000,  0.0000)
  39 H      1.508289    2.792751   19.335957    ( 0.0000,  0.0000,  0.0000)
  40 H      1.450597    2.733718   17.589191    ( 0.0000,  0.0000,  0.0000)
  41 H      0.656092    4.966784   18.425144    ( 0.0000,  0.0000,  0.0000)
  42 H     -0.652762    4.138927   17.585841    ( 0.0000,  0.0000,  0.0000)
  43 H     -0.634232    4.157890   19.341816    ( 0.0000,  0.0000,  0.0000)
  44 H     -0.608855    1.655988   19.249819    ( 0.0000,  0.0000,  0.0000)
  45 N     -0.046053    1.554908   16.821036    ( 0.0000,  0.0000,  0.0000)
  46 N     -0.044941    2.672310   16.817115    ( 0.0000,  0.0000,  0.0000)

Unit cell:
           periodic     x           y           z      points  spacing
  1. axis:    yes    9.702222    0.000000    0.000000    60     0.1617
  2. axis:    yes    0.000000    9.702222    0.000000    60     0.1617
  3. axis:    no     0.000000    0.000000   26.351111   164     0.1607

  Lengths:   9.702222   9.702222  26.351111
  Angles:   90.000000  90.000000  90.000000

Effective grid spacing dv^(1/3) = 0.1614

     iter     time        total  log10-change:
                         energy  eigst   dens
iter:   1 22:12:44  -302.745489  -0.59
iter:   2 22:12:51  -302.647159  -0.81  -1.54
iter:   3 22:12:59  -302.614800  -1.61  -1.71
iter:   4 22:13:06  -302.601361  -1.39  -2.11
Writing to output.gpw (mode='')

iter:   5 22:13:13  -302.609360c -1.99  -2.23
iter:   6 22:13:20  -302.615623c -1.85  -2.23
iter:   7 22:13:27  -302.597511c -1.87  -2.09
iter:   8 22:13:34  -302.597197c -2.34  -2.57
iter:   9 22:13:42  -302.598538c -2.34  -2.64
Writing to output.gpw (mode='')

iter:  10 22:13:49  -302.597561c -2.64  -2.66
iter:  11 22:13:56  -302.597829c -3.15  -2.76
iter:  12 22:14:03  -302.597729c -3.41  -2.95
iter:  13 22:14:10  -302.597782c -3.15  -2.97
iter:  14 22:14:23  -302.597646c -3.17  -3.15
Writing to output.gpw (mode='')

iter:  15 22:14:31  -302.597670c -3.89  -3.13
iter:  16 22:14:38  -302.597761c -3.63  -3.19
iter:  17 22:14:45  -302.597679c -3.86  -3.35
iter:  18 22:14:53  -302.597707c -4.26  -3.57
iter:  19 22:15:00  -302.597699c -4.03  -3.66
Writing to output.gpw (mode='')

iter:  20 22:15:07  -302.597737c -4.20  -3.77
iter:  21 22:15:14  -302.597740c -4.74  -3.79
iter:  22 22:15:21  -302.597749c -4.47  -3.84
iter:  23 22:15:28  -302.597753c -4.81  -3.98
iter:  24 22:15:35  -302.597767c -4.73  -4.02c
Writing to output.gpw (mode='')

iter:  25 22:15:43  -302.597768c -4.81  -3.98
iter:  26 22:15:50  -302.597769c -4.77  -4.12c
iter:  27 22:15:57  -302.597778c -5.27  -4.14c
iter:  28 22:16:04  -302.597782c -5.36  -4.38c
iter:  29 22:16:11  -302.597778c -5.24  -4.48c
Writing to output.gpw (mode='')

iter:  30 22:16:19  -302.597779c -5.48  -4.47c
iter:  31 22:16:26  -302.597781c -5.34  -4.56c
iter:  32 22:16:33  -302.597782c -5.78  -4.67c
iter:  33 22:16:40  -302.597784c -5.80  -4.70c
iter:  34 22:16:47  -302.597785c -5.58  -4.75c
Writing to output.gpw (mode='')

iter:  35 22:16:54  -302.597788c -6.00  -4.78c
iter:  36 22:17:01  -302.597786c -6.18  -4.93c
iter:  37 22:17:09  -302.597787c -6.10  -4.95c
iter:  38 22:17:16  -302.597789c -6.19  -5.06c
iter:  39 22:17:23  -302.597790c -6.38  -5.09c
Writing to output.gpw (mode='')

iter:  40 22:17:30  -302.597789c -6.38  -5.17c
iter:  41 22:17:37  -302.597789c -6.62  -5.38c
iter:  42 22:17:44  -302.597789c -6.45  -5.44c
iter:  43 22:17:52  -302.597789c -6.62  -5.49c
iter:  44 22:17:59  -302.597790c -6.62  -5.52c
Writing to output.gpw (mode='')

iter:  45 22:18:06  -302.597790c -6.66  -5.55c
iter:  46 22:18:13  -302.597790c -6.82  -5.55c
iter:  47 22:18:20  -302.597790c -7.07  -5.51c
iter:  48 22:18:27  -302.597790c -7.09  -5.50c
iter:  49 22:18:34  -302.597790c -7.13  -5.70c
Writing to output.gpw (mode='')

iter:  50 22:18:42  -302.597791c -6.96  -5.75c
iter:  51 22:18:49  -302.597791c -7.11  -5.75c
iter:  52 22:18:56  -302.597790c -7.35  -5.72c
iter:  53 22:19:03  -302.597790c -7.30  -5.62c
iter:  54 22:19:10  -302.597790c -7.55c -5.43c

Converged after 54 iterations.

Dipole moment: (-12.266710, -3.022006, 0.366812) |e|*Ang

Energy contributions relative to reference atoms: (reference = -14434.854043)

Kinetic:       +187.205861
Potential:     -168.673193
External:        +0.000000
XC:            -321.815841
Entropy (-ST):   -0.152987
Local:           +0.761877
--------------------------
Free energy:   -302.674284
Extrapolated:  -302.597790

Dipole-layer corrected work functions: 3.383589, 2.678450 eV

Showing only first 2 kpts
 Kpt  Band  Eigenvalues  Occupancy
  0    31     -3.28954    1.98870
  0    32     -3.17104    1.88540
  0    33     -2.91072    0.16545
  0    34     -2.79179    0.01658

  1    31     -3.11048    1.66100
  1    32     -3.04800    1.16822
  1    33     -2.96506    0.42189
  1    34     -2.93752    0.26707


Fermi level: -3.03102

Gap: 0.009 eV
Transition (v -> c):
  (s=0, k=2, n=32, [0.12, 0.12, 0.00]) -> (s=0, k=7, n=33, [0.38, 0.38, 0.00])
Writing to output.gpw (mode='')


Forces in eV/Ang:
  0 Li    0.02165   -0.00103   -0.28146
  1 Li   -0.00293    0.00236   -0.26735
  2 Li   -0.01780   -0.00078   -0.28211
  3 Li   -0.00272    0.01639   -0.27816
  4 Li   -0.00140   -0.00832   -0.26375
  5 Li    0.00430    0.02112   -0.27766
  6 Li   -0.00897   -0.01627   -0.26621
  7 Li    0.00013    0.00439   -0.28078
  8 Li    0.00711   -0.01593   -0.26590
  9 Li   -0.00306    0.00045    0.30226
 10 Li    0.01680   -0.00362    0.25864
 11 Li   -0.01390   -0.00159    0.26975
 12 Li    0.00228   -0.00593    0.34502
 13 Li    0.01350    0.00035    0.26171
 14 Li   -0.01841    0.00150    0.26476
 15 Li   -0.00140    0.00153    0.23908
 16 Li   -0.00307    0.01139    0.25313
 17 Li    0.00683    0.00079    0.24963
 18 Li    0.05759   -0.02229   -0.11201
 19 Li   -0.00049    0.00261    0.07567
 20 Li   -0.05390   -0.01462   -0.13963
 21 Li    0.02126    0.00891    0.00756
 22 Li    0.00252    0.01135    0.04077
 23 Li   -0.02358    0.00628   -0.00651
 24 Li   -0.01602    0.02627    0.05611
 25 Li    0.00192   -0.01979    0.01257
 26 Li    0.01531    0.01727    0.06139
 27 Li   -0.00694   -0.07349    0.22225
 28 Li    0.06458   -0.04294   -0.02828
 29 Li   -0.08069   -0.06765   -0.04248
 30 Li    0.08265    1.86160   -4.01125
 31 Li    0.13181    0.05019   -0.10287
 32 Li   -0.09950    0.05315   -0.06225
 33 Li    0.00161    0.04903   -0.07439
 34 Li   -0.01435   -0.01282   -0.02608
 35 Li    0.01083    0.00243   -0.02438
 36 O     2.09836   -1.14689    5.25897
 37 C     0.86050    0.84689    2.08854
 38 C     0.03264    0.74618    1.17573
 39 H     0.35549    0.19079    0.98124
 40 H     0.87259    0.32956    1.58142
 41 H     0.15732    0.17065    0.21853
 42 H    -0.03962    0.75985    0.99713
 43 H    -0.06717    0.17501    0.48483
 44 H    -0.80196    0.06186    1.11683
 45 N    -1.73433   -3.07862   -4.54868
 46 N    -1.87740   -0.94518   -5.17080

System changes: positions 

Initializing position-dependent things.

Density initialized from wave functions
       .-----------------------.  
      /|                       |  
     / |                       |  
    /  |                       |  
   /   |                       |  
  /    |                       |  
 *     |                       |  
 |     |                       |  
 |     |                       |  
 |     |                       |  
 |     |                       |  
 |     |                       |  
 |     |                  H    |  
 |    H|       Li      Li   C  Li 
 |O  C |                 HH    |  
 |   LH|     Li      Li        |  
 |     |                  N    |  
 | Li  |  LLi     LLi     Ni   |  
 |     |                       |  
 |     |Li      Li      Li     |  
 |   Li|     Li      Li        |  
 |    Li  Li  Li  Li  Li  Li   |  
 | Li  |   Li      Li          |  
 |     |Li      Li      Li     |  
 Li    | Li      Li            |  
 |    Li      Li      Li       |  
 |     |                       |  
 |     |                       |  
 |     |                       |  
 |     |                       |  
 |     |                       |  
 |     |                       |  
 |     .-----------------------.  
 |    /                       /   
 |   /                       /    
 |  /                       /     
 | /                       /      
 |/                       /       
 *-----------------------*        

Positions:
   0 Li     1.617037    1.617037   10.000000    ( 0.0000,  0.0000,  0.0000)
   1 Li     4.851111    1.617037   10.000000    ( 0.0000,  0.0000,  0.0000)
   2 Li     8.085185    1.617037   10.000000    ( 0.0000,  0.0000,  0.0000)
   3 Li     1.617037    4.851111   10.000000    ( 0.0000,  0.0000,  0.0000)
   4 Li     4.851111    4.851111   10.000000    ( 0.0000,  0.0000,  0.0000)
   5 Li     8.085185    4.851111   10.000000    ( 0.0000,  0.0000,  0.0000)
   6 Li     1.617037    8.085185   10.000000    ( 0.0000,  0.0000,  0.0000)
   7 Li     4.851111    8.085185   10.000000    ( 0.0000,  0.0000,  0.0000)
   8 Li     8.085185    8.085185   10.000000    ( 0.0000,  0.0000,  0.0000)
   9 Li     0.000000    0.000000   11.617037    ( 0.0000,  0.0000,  0.0000)
  10 Li     3.234074    0.000000   11.617037    ( 0.0000,  0.0000,  0.0000)
  11 Li     6.468148    0.000000   11.617037    ( 0.0000,  0.0000,  0.0000)
  12 Li     0.000000    3.234074   11.617037    ( 0.0000,  0.0000,  0.0000)
  13 Li     3.234074    3.234074   11.617037    ( 0.0000,  0.0000,  0.0000)
  14 Li     6.468148    3.234074   11.617037    ( 0.0000,  0.0000,  0.0000)
  15 Li     0.000000    6.468148   11.617037    ( 0.0000,  0.0000,  0.0000)
  16 Li     3.234074    6.468148   11.617037    ( 0.0000,  0.0000,  0.0000)
  17 Li     6.468148    6.468148   11.617037    ( 0.0000,  0.0000,  0.0000)
  18 Li     1.618912    1.616343   13.466017    ( 0.0000,  0.0000,  0.0000)
  19 Li     4.851088    1.617130   13.472270    ( 0.0000,  0.0000,  0.0000)
  20 Li     8.083429    1.616591   13.465109    ( 0.0000,  0.0000,  0.0000)
  21 Li     1.617649    4.851305   13.470126    ( 0.0000,  0.0000,  0.0000)
  22 Li     4.851194    4.851477   13.471102    ( 0.0000,  0.0000,  0.0000)
  23 Li     8.084487    4.851225   13.469633    ( 0.0000,  0.0000,  0.0000)
  24 Li     1.616499    8.086058   13.471599    ( 0.0000,  0.0000,  0.0000)
  25 Li     4.851177    8.084527   13.470152    ( 0.0000,  0.0000,  0.0000)
  26 Li     8.085699    8.085753   13.471778    ( 0.0000,  0.0000,  0.0000)
  27 Li    -0.000272   -0.001727   15.453919    ( 0.0000,  0.0000,  0.0000)
  28 Li     3.236244   -0.001450   15.444997    ( 0.0000,  0.0000,  0.0000)
  29 Li     6.465461   -0.002251   15.444534    ( 0.0000,  0.0000,  0.0000)
  30 Li     0.002578    3.299756   15.301600    ( 0.0000,  0.0000,  0.0000)
  31 Li     3.238507    3.235782   15.442466    ( 0.0000,  0.0000,  0.0000)
  32 Li     6.464850    3.235834   15.443882    ( 0.0000,  0.0000,  0.0000)
  33 Li     0.000064    6.469734   15.443443    ( 0.0000,  0.0000,  0.0000)
  34 Li     3.233601    6.467708   15.445070    ( 0.0000,  0.0000,  0.0000)
  35 Li     6.468493    6.468232   15.445119    ( 0.0000,  0.0000,  0.0000)
  36 O      0.079573    1.588615   18.609806    ( 0.0000,  0.0000,  0.0000)
  37 C      0.840183    2.819914   18.516005    ( 0.0000,  0.0000,  0.0000)
  38 C     -0.001491    4.103107   18.469442    ( 0.0000,  0.0000,  0.0000)
  39 H      1.514700    2.797204   19.346529    ( 0.0000,  0.0000,  0.0000)
  40 H      1.453550    2.735692   17.604077    ( 0.0000,  0.0000,  0.0000)
  41 H      0.657495    4.968809   18.427427    ( 0.0000,  0.0000,  0.0000)
  42 H     -0.652358    4.144034   17.593955    ( 0.0000,  0.0000,  0.0000)
  43 H     -0.635441    4.160215   19.347200    ( 0.0000,  0.0000,  0.0000)
  44 H     -0.614526    1.659926   19.258126    ( 0.0000,  0.0000,  0.0000)
  45 N     -0.058035    1.536277   16.792673    ( 0.0000,  0.0000,  0.0000)
  46 N     -0.062856    2.654245   16.787373    ( 0.0000,  0.0000,  0.0000)

Unit cell:
           periodic     x           y           z      points  spacing
  1. axis:    yes    9.702222    0.000000    0.000000    60     0.1617
  2. axis:    yes    0.000000    9.702222    0.000000    60     0.1617
  3. axis:    no     0.000000    0.000000   26.351111   164     0.1607

  Lengths:   9.702222   9.702222  26.351111
  Angles:   90.000000  90.000000  90.000000

Effective grid spacing dv^(1/3) = 0.1614

     iter     time        total  log10-change:
                         energy  eigst   dens
iter:   1 22:19:23  -303.481583  -0.67
iter:   2 22:19:32  -303.447439  -1.11  -1.70
iter:   3 22:19:39  -303.433365  -1.81  -1.86
iter:   4 22:19:46  -303.428158c -1.91  -2.23
Writing to output.gpw (mode='')

iter:   5 22:19:53  -303.427091c -2.11  -2.36
iter:   6 22:20:01  -303.425148c -2.10  -2.37
iter:   7 22:20:08  -303.423760c -2.44  -2.52
iter:   8 22:20:15  -303.424071c -2.53  -2.70
iter:   9 22:20:22  -303.423928c -2.92  -2.74
Writing to output.gpw (mode='')

iter:  10 22:20:29  -303.424062c -2.99  -2.85
iter:  11 22:20:37  -303.423914c -3.70  -3.02
iter:  12 22:20:44  -303.424168c -3.38  -3.02
iter:  13 22:20:51  -303.423924c -3.11  -2.90
iter:  14 22:20:58  -303.423814c -3.54  -3.20
Writing to output.gpw (mode='')

iter:  15 22:21:05  -303.423783c -3.84  -3.26
iter:  16 22:21:12  -303.423788c -3.93  -3.36
iter:  17 22:21:20  -303.423763c -4.12  -3.53
iter:  18 22:21:27  -303.423781c -4.40  -3.67
iter:  19 22:21:34  -303.423802c -4.62  -3.91
Writing to output.gpw (mode='')

iter:  20 22:21:41  -303.423797c -5.06  -3.88
iter:  21 22:21:48  -303.423809c -4.89  -3.98
iter:  22 22:21:56  -303.423814c -5.01  -4.09c
iter:  23 22:22:03  -303.423811c -5.06  -4.13c
iter:  24 22:22:10  -303.423810c -5.52  -4.21c
Writing to output.gpw (mode='')

iter:  25 22:22:17  -303.423813c -5.40  -4.27c
iter:  26 22:22:24  -303.423812c -5.70  -4.33c
iter:  27 22:22:31  -303.423814c -5.55  -4.48c
iter:  28 22:22:39  -303.423815c -6.08  -4.53c
iter:  29 22:22:46  -303.423819c -6.03  -4.59c
Writing to output.gpw (mode='')

iter:  30 22:22:53  -303.423817c -5.88  -4.85c
iter:  31 22:23:00  -303.423818c -6.18  -4.91c
iter:  32 22:23:07  -303.423818c -5.86  -4.96c
iter:  33 22:23:14  -303.423818c -6.28  -4.96c
iter:  34 22:23:22  -303.423820c -6.25  -5.01c
Writing to output.gpw (mode='')

iter:  35 22:23:29  -303.423820c -6.43  -5.05c
iter:  36 22:23:36  -303.423819c -6.31  -5.20c
iter:  37 22:23:43  -303.423820c -6.74  -5.18c
iter:  38 22:23:50  -303.423820c -6.68  -5.26c
iter:  39 22:23:57  -303.423820c -6.58  -5.23c
Writing to output.gpw (mode='')

iter:  40 22:24:05  -303.423819c -7.02  -5.21c
iter:  41 22:24:12  -303.423820c -7.02  -5.19c
iter:  42 22:24:23  -303.423820c -7.05  -5.22c
iter:  43 22:24:32  -303.423821c -7.30  -5.17c
iter:  44 22:24:39  -303.423821c -7.36  -5.27c
Writing to output.gpw (mode='')

iter:  45 22:24:46  -303.423821c -7.36  -5.42c
iter:  46 22:24:54  -303.423821c -7.24  -5.58c
iter:  47 22:25:01  -303.423821c -7.45c -5.64c

Converged after 47 iterations.

Dipole moment: (-10.364793, -2.951998, 0.351147) |e|*Ang

Energy contributions relative to reference atoms: (reference = -14434.854043)

Kinetic:       +183.423262
Potential:     -166.290418
External:        +0.000000
XC:            -321.242448
Entropy (-ST):   -0.152625
Local:           +0.762096
--------------------------
Free energy:   -303.500133
Extrapolated:  -303.423821

Dipole-layer corrected work functions: 3.384423, 2.709398 eV

Showing only first 2 kpts
 Kpt  Band  Eigenvalues  Occupancy
  0    31     -3.30675    1.98899
  0    32     -3.18593    1.88321
  0    33     -2.92833    0.17071
  0    34     -2.80657    0.01621

  1    31     -3.13113    1.68695
  1    32     -3.06199    1.14966
  1    33     -2.97938    0.41156
  1    34     -2.94840    0.24473


Fermi level: -3.04691

Gap: 0.009 eV
Transition (v -> c):
  (s=0, k=2, n=32, [0.12, 0.12, 0.00]) -> (s=0, k=7, n=33, [0.38, 0.38, 0.00])
Writing to output.gpw (mode='')


Forces in eV/Ang:
  0 Li    0.02159   -0.00078   -0.28278
  1 Li   -0.00307    0.00249   -0.26726
  2 Li   -0.01771   -0.00057   -0.28359
  3 Li   -0.00309    0.01651   -0.27936
  4 Li   -0.00142   -0.00868   -0.26303
  5 Li    0.00477    0.02118   -0.27881
  6 Li   -0.00930   -0.01655   -0.26606
  7 Li   -0.00003    0.00467   -0.28097
  8 Li    0.00755   -0.01632   -0.26579
  9 Li   -0.00306    0.00012    0.30345
 10 Li    0.01780   -0.00375    0.25860
 11 Li   -0.01444   -0.00234    0.27007
 12 Li    0.00188   -0.00515    0.34864
 13 Li    0.01308    0.00035    0.26265
 14 Li   -0.01774    0.00158    0.26645
 15 Li   -0.00113    0.00086    0.24008
 16 Li   -0.00236    0.01159    0.25233
 17 Li    0.00580    0.00164    0.24885
 18 Li    0.06118   -0.02657   -0.11713
 19 Li    0.00015    0.00246    0.07550
 20 Li   -0.05695   -0.01881   -0.14550
 21 Li    0.03069    0.01737   -0.00471
 22 Li    0.00333    0.01145    0.03995
 23 Li   -0.03323    0.01606   -0.02004
 24 Li   -0.01551    0.02699    0.05513
 25 Li    0.00133   -0.02010    0.01259
 26 Li    0.01496    0.01752    0.05961
 27 Li   -0.00651   -0.14256    0.17879
 28 Li    0.06433   -0.04444   -0.02818
 29 Li   -0.08164   -0.06920   -0.04146
 30 Li    0.11019    1.73207   -3.51869
 31 Li    0.12657    0.05081   -0.09874
 32 Li   -0.09636    0.05458   -0.05994
 33 Li    0.00198    0.05147   -0.07305
 34 Li   -0.01466   -0.01296   -0.02596
 35 Li    0.01077    0.00170   -0.02444
 36 O     1.67298   -0.95057    4.57517
 37 C     0.77157    0.74810    1.80083
 38 C     0.03886    0.60431    1.04810
 39 H     0.38594    0.28273    0.91426
 40 H     0.68401    0.25905    1.39804
 41 H     0.13703    0.12864    0.23165
 42 H    -0.01092    0.63502    0.88690
 43 H    -0.05185    0.18541    0.45237
 44 H    -0.53513    0.11171    0.78917
 45 N    -1.46566   -2.64142   -3.82798
 46 N    -1.70025   -1.01518   -4.52018

System changes: positions 

Initializing position-dependent things.

Density initialized from wave functions
       .-----------------------.  
      /|                       |  
     / |                       |  
    /  |                       |  
   /   |                       |  
  /    |                       |  
 *     |                       |  
 |     |                       |  
 |     |                       |  
 |     |                       |  
 |     |                       |  
 |     |                       |  
 |     |                  H    |  
 |  C H|       Li      Li      Li 
 |O  C |                 HH    |  
 |   LH|     Li      Li        |  
 |     |                  N    |  
 | Li  |  LLi     LLi     Ni   |  
 |     |                       |  
 |     |Li      Li      Li     |  
 |   Li|     Li      Li        |  
 |    Li  Li  Li  Li  Li  Li   |  
 | Li  |   Li      Li          |  
 |     |Li      Li      Li     |  
 Li    | Li      Li            |  
 |    Li      Li      Li       |  
 |     |                       |  
 |     |                       |  
 |     |                       |  
 |     |                       |  
 |     |                       |  
 |     |                       |  
 |     .-----------------------.  
 |    /                       /   
 |   /                       /    
 |  /                       /     
 | /                       /      
 |/                       /       
 *-----------------------*        

Positions:
   0 Li     1.617037    1.617037   10.000000    ( 0.0000,  0.0000,  0.0000)
   1 Li     4.851111    1.617037   10.000000    ( 0.0000,  0.0000,  0.0000)
   2 Li     8.085185    1.617037   10.000000    ( 0.0000,  0.0000,  0.0000)
   3 Li     1.617037    4.851111   10.000000    ( 0.0000,  0.0000,  0.0000)
   4 Li     4.851111    4.851111   10.000000    ( 0.0000,  0.0000,  0.0000)
   5 Li     8.085185    4.851111   10.000000    ( 0.0000,  0.0000,  0.0000)
   6 Li     1.617037    8.085185   10.000000    ( 0.0000,  0.0000,  0.0000)
   7 Li     4.851111    8.085185   10.000000    ( 0.0000,  0.0000,  0.0000)
   8 Li     8.085185    8.085185   10.000000    ( 0.0000,  0.0000,  0.0000)
   9 Li     0.000000    0.000000   11.617037    ( 0.0000,  0.0000,  0.0000)
[...]
iter:  19 07:27:31  -309.975931c -7.09  -4.81c
Writing to output.gpw (mode='')

iter:  20 07:27:38  -309.975930c -7.12  -4.92c
iter:  21 07:27:45  -309.975930c -7.24  -5.04c
iter:  22 07:27:52  -309.975930c -7.55c -5.11c

Converged after 22 iterations.

Dipole moment: (-15.893782, -2.752033, 0.292482) |e|*Ang

Energy contributions relative to reference atoms: (reference = -14434.854043)

Kinetic:       +147.087888
Potential:     -139.741902
External:        +0.000000
XC:            -318.024245
Entropy (-ST):   -0.162699
Local:           +0.783679
--------------------------
Free energy:   -310.057280
Extrapolated:  -309.975930

Dipole-layer corrected work functions: 3.398644, 2.836394 eV

Showing only first 2 kpts
 Kpt  Band  Eigenvalues  Occupancy
  0    31     -3.34867    1.98054
  0    32     -3.14709    1.28738
  0    33     -3.08477    0.68372
  0    34     -2.91186    0.03219

  1    31     -3.35659    1.98337
  1    32     -3.26395    1.89849
  1    33     -3.06604    0.52636
  1    34     -2.87478    0.01546


Fermi level: -3.11752

No gap
Writing to output.gpw (mode='')


Forces in eV/Ang:
  0 Li   -0.00994    0.00794   -0.29385
  1 Li    0.00562   -0.01107   -0.29117
  2 Li    0.00047   -0.00033   -0.25387
  3 Li    0.00672    0.00852   -0.29483
  4 Li   -0.01684    0.01392   -0.28211
  5 Li    0.00937   -0.00679   -0.29488
  6 Li    0.01051   -0.01649   -0.28323
  7 Li   -0.00970   -0.00742   -0.29400
  8 Li   -0.01105    0.00751   -0.29180
  9 Li   -0.02842    0.02178    0.25383
 10 Li   -0.00432   -0.00263    0.27970
 11 Li    0.04447    0.01851    0.32642
 12 Li   -0.02285   -0.03139    0.34862
 13 Li    0.01645   -0.02169    0.29823
 14 Li    0.04192   -0.04574    0.29196
 15 Li   -0.01288    0.03274    0.28683
 16 Li    0.02217    0.03084    0.27745
 17 Li    0.02318    0.00492    0.28061
 18 Li   -0.00471    0.00353    0.00225
 19 Li    0.01785    0.00738    0.00047
 20 Li    0.01274   -0.00568   -0.02426
 21 Li   -0.00336   -0.00661    0.00078
 22 Li    0.00421    0.00075   -0.00526
 23 Li   -0.00454   -0.01373    0.00074
 24 Li    0.00327    0.00918   -0.00600
 25 Li   -0.00097    0.00856   -0.00018
 26 Li   -0.00920    0.01407   -0.00540
 27 Li    0.01712    0.00428    0.02135
 28 Li   -0.00704    0.00552    0.00189
 29 Li   -0.03629   -0.01226    0.00183
 30 Li   -0.01934    0.01165   -0.01054
 31 Li   -0.00774   -0.01030   -0.01667
 32 Li   -0.01786   -0.00063    0.01398
 33 Li   -0.00471   -0.00596   -0.00925
 34 Li    0.00048   -0.00223   -0.00018
 35 Li    0.00887    0.02481   -0.01399
 36 O    -0.02840   -0.03370    0.04473
 37 C     0.02135   -0.00535   -0.01610
 38 C    -0.00341   -0.00701    0.01102
 39 H     0.00581    0.01048    0.00624
 40 H     0.00993    0.02457   -0.00804
 41 H     0.00515   -0.02107    0.02289
 42 H    -0.00357   -0.00456    0.00924
 43 H    -0.01233   -0.01727    0.00749
 44 H     0.05076   -0.01450   -0.08585
 45 N    -0.01177    0.03213    0.03163
 46 N    -0.03860   -0.02069   -0.02063

System changes: positions 

Initializing position-dependent things.

Density initialized from wave functions
       .-----------------------.  
      /|                       |  
     / |                       |  
    /  |                       |  
   /   |                       |  
  /    |                       |  
 *     |                       |  
 |     |                       |  
 |     |                       |  
 |     |                       |  
 |     |                       |  
 |     |                  H    |  
 |  C HH                       |  
 |   C |       Li      LiH     |  
 | O   H                  H    |  
 |   Li|     Li      Li        |  
 |     |                       |  
 | Li  |  LiLi    LLi     Li   |  
 |     |             N N       |  
 |     |Li      Li      LLi    |  
 |   Li|     Li      Li        |  
 |    Li  Li  Li  Li  Li  Li   |  
 | Li  |   Li      Li          |  
 |     |Li      Li      Li     |  
 Li    | Li      Li            |  
 |    Li      Li      Li       |  
 |     |                       |  
 |     |                       |  
 |     |                       |  
 |     |                       |  
 |     |                       |  
 |     |                       |  
 |     .-----------------------.  
 |    /                       /   
 |   /                       /    
 |  /                       /     
 | /                       /      
 |/                       /       
 *-----------------------*        

Positions:
   0 Li     1.617037    1.617037   10.000000    ( 0.0000,  0.0000,  0.0000)
   1 Li     4.851111    1.617037   10.000000    ( 0.0000,  0.0000,  0.0000)
   2 Li     8.085185    1.617037   10.000000    ( 0.0000,  0.0000,  0.0000)
   3 Li     1.617037    4.851111   10.000000    ( 0.0000,  0.0000,  0.0000)
   4 Li     4.851111    4.851111   10.000000    ( 0.0000,  0.0000,  0.0000)
   5 Li     8.085185    4.851111   10.000000    ( 0.0000,  0.0000,  0.0000)
   6 Li     1.617037    8.085185   10.000000    ( 0.0000,  0.0000,  0.0000)
   7 Li     4.851111    8.085185   10.000000    ( 0.0000,  0.0000,  0.0000)
   8 Li     8.085185    8.085185   10.000000    ( 0.0000,  0.0000,  0.0000)
   9 Li     0.000000    0.000000   11.617037    ( 0.0000,  0.0000,  0.0000)
  10 Li     3.234074    0.000000   11.617037    ( 0.0000,  0.0000,  0.0000)
  11 Li     6.468148    0.000000   11.617037    ( 0.0000,  0.0000,  0.0000)
  12 Li     0.000000    3.234074   11.617037    ( 0.0000,  0.0000,  0.0000)
  13 Li     3.234074    3.234074   11.617037    ( 0.0000,  0.0000,  0.0000)
  14 Li     6.468148    3.234074   11.617037    ( 0.0000,  0.0000,  0.0000)
  15 Li     0.000000    6.468148   11.617037    ( 0.0000,  0.0000,  0.0000)
  16 Li     3.234074    6.468148   11.617037    ( 0.0000,  0.0000,  0.0000)
  17 Li     6.468148    6.468148   11.617037    ( 0.0000,  0.0000,  0.0000)
  18 Li     1.629117    1.642591   13.510872    ( 0.0000,  0.0000,  0.0000)
  19 Li     4.863157    1.545469   13.506284    ( 0.0000,  0.0000,  0.0000)
  20 Li     8.111374    1.581762   13.584570    ( 0.0000,  0.0000,  0.0000)
  21 Li     1.674321    4.925744   13.469283    ( 0.0000,  0.0000,  0.0000)
  22 Li     4.921657    4.797710   13.481024    ( 0.0000,  0.0000,  0.0000)
  23 Li     8.129504    4.873383   13.498340    ( 0.0000,  0.0000,  0.0000)
  24 Li     1.562847    8.163735   13.515606    ( 0.0000,  0.0000,  0.0000)
  25 Li     4.836013    8.045138   13.506956    ( 0.0000,  0.0000,  0.0000)
  26 Li     8.059650    8.098367   13.535449    ( 0.0000,  0.0000,  0.0000)
  27 Li    -0.198492    0.337786   15.789497    ( 0.0000,  0.0000,  0.0000)
  28 Li     3.135578   -0.066372   15.470699    ( 0.0000,  0.0000,  0.0000)
  29 Li     6.410951   -0.105767   15.534364    ( 0.0000,  0.0000,  0.0000)
  30 Li     0.154733    3.399667   15.380781    ( 0.0000,  0.0000,  0.0000)
  31 Li     3.430059    3.302200   15.405446    ( 0.0000,  0.0000,  0.0000)
  32 Li     6.723706    3.008897   15.529887    ( 0.0000,  0.0000,  0.0000)
  33 Li     0.058017    6.667005   15.454477    ( 0.0000,  0.0000,  0.0000)
  34 Li     3.229152    6.458793   15.444916    ( 0.0000,  0.0000,  0.0000)
  35 Li     6.393329    6.300402   15.467180    ( 0.0000,  0.0000,  0.0000)
  36 O      0.341832    1.611732   18.862926    ( 0.0000,  0.0000,  0.0000)
  37 C      1.023266    2.876938   18.950060    ( 0.0000,  0.0000,  0.0000)
  38 C      0.083146    4.075947   18.927398    ( 0.0000,  0.0000,  0.0000)
  39 H      1.660517    2.902530   19.843912    ( 0.0000,  0.0000,  0.0000)
  40 H      1.682217    2.893409   18.078618    ( 0.0000,  0.0000,  0.0000)
  41 H      0.656325    5.006912   18.876912    ( 0.0000,  0.0000,  0.0000)
  42 H     -0.576025    4.039434   18.056738    ( 0.0000,  0.0000,  0.0000)
  43 H     -0.537915    4.114693   19.827242    ( 0.0000,  0.0000,  0.0000)
  44 H     -0.252765    1.542472   19.620172    ( 0.0000,  0.0000,  0.0000)
  45 N     -2.019572    1.217085   15.623775    ( 0.0000,  0.0000,  0.0000)
  46 N     -1.149056    2.122518   15.567437    ( 0.0000,  0.0000,  0.0000)

Unit cell:
           periodic     x           y           z      points  spacing
  1. axis:    yes    9.702222    0.000000    0.000000    60     0.1617
  2. axis:    yes    0.000000    9.702222    0.000000    60     0.1617
  3. axis:    no     0.000000    0.000000   26.351111   164     0.1607

  Lengths:   9.702222   9.702222  26.351111
  Angles:   90.000000  90.000000  90.000000

Effective grid spacing dv^(1/3) = 0.1614

     iter     time        total  log10-change:
                         energy  eigst   dens
iter:   1 07:28:01  -309.976711  -2.59
iter:   2 07:28:08  -309.976655  -3.35  -2.88
iter:   3 07:28:16  -309.976705c -3.77  -3.02
iter:   4 07:28:23  -309.976679c -4.19  -3.18
Writing to output.gpw (mode='')

iter:   5 07:28:30  -309.976764c -3.71  -3.24
iter:   6 07:28:37  -309.976812c -3.86  -3.39
iter:   7 07:28:44  -309.976691c -4.69  -3.37
iter:   8 07:28:52  -309.976687c -4.80  -3.73
iter:   9 07:29:02  -309.976710c -5.21  -3.75
Writing to output.gpw (mode='')

iter:  10 07:29:09  -309.976688c -5.39  -3.84
iter:  11 07:29:20  -309.976676c -5.26  -3.94
iter:  12 07:29:30  -309.976681c -6.13  -4.01c
iter:  13 07:29:38  -309.976694c -5.97  -4.09c
iter:  14 07:29:45  -309.976686c -6.28  -4.36c
Writing to output.gpw (mode='')

iter:  15 07:29:52  -309.976693c -6.49  -4.33c
iter:  16 07:29:59  -309.976692c -6.73  -4.48c
iter:  17 07:30:06  -309.976698c -6.31  -4.51c
iter:  18 07:30:13  -309.976694c -6.84  -4.60c
iter:  19 07:30:20  -309.976693c -6.81  -4.75c
Writing to output.gpw (mode='')

iter:  20 07:30:28  -309.976697c -6.87  -4.86c
iter:  21 07:30:35  -309.976694c -7.21  -4.85c
iter:  22 07:30:42  -309.976693c -7.27  -5.16c
iter:  23 07:30:49  -309.976694c -7.98c -5.23c

Converged after 23 iterations.

Dipole moment: (-15.810356, -2.786444, 0.292985) |e|*Ang

Energy contributions relative to reference atoms: (reference = -14434.854043)

Kinetic:       +147.172669
Potential:     -139.808071
External:        +0.000000
XC:            -318.043527
Entropy (-ST):   -0.162726
Local:           +0.783598
--------------------------
Free energy:   -310.058057
Extrapolated:  -309.976694

Dipole-layer corrected work functions: 3.398661, 2.835445 eV

Showing only first 2 kpts
 Kpt  Band  Eigenvalues  Occupancy
  0    31     -3.34825    1.98056
  0    32     -3.14642    1.28554
  0    33     -3.08430    0.68371
  0    34     -2.91152    0.03227

  1    31     -3.35617    1.98339
  1    32     -3.26360    1.89871
  1    33     -3.06556    0.52623
  1    34     -2.87431    0.01546


Fermi level: -3.11705

No gap
Writing to output.gpw (mode='')


Forces in eV/Ang:
  0 Li   -0.00997    0.00802   -0.29383
  1 Li    0.00573   -0.01106   -0.29123
  2 Li    0.00051   -0.00033   -0.25382
  3 Li    0.00679    0.00844   -0.29499
  4 Li   -0.01675    0.01382   -0.28219
  5 Li    0.00939   -0.00688   -0.29495
  6 Li    0.01057   -0.01658   -0.28318
  7 Li   -0.00966   -0.00747   -0.29401
  8 Li   -0.01096    0.00746   -0.29179
  9 Li   -0.02814    0.02154    0.25337
 10 Li   -0.00459   -0.00232    0.28000
 11 Li    0.04431    0.01846    0.32670
 12 Li   -0.02299   -0.03042    0.34817
 13 Li    0.01639   -0.02125    0.29851
 14 Li    0.04201   -0.04572    0.29132
 15 Li   -0.01264    0.03230    0.28706
 16 Li    0.02162    0.03053    0.27813
 17 Li    0.02294    0.00561    0.28055
 18 Li   -0.00459    0.00200    0.00262
 19 Li    0.01637    0.00685   -0.00048
 20 Li    0.00969   -0.00623   -0.02498
 21 Li   -0.00284   -0.00464   -0.00223
 22 Li    0.00286    0.00119   -0.00464
 23 Li   -0.00480   -0.01330   -0.00016
 24 Li    0.00374    0.00958   -0.00658
 25 Li   -0.00114    0.00843   -0.00064
 26 Li   -0.01071    0.01524   -0.00523
 27 Li    0.02226    0.00240    0.02147
 28 Li   -0.00680    0.00596    0.00147
 29 Li   -0.03359   -0.01420    0.00278
 30 Li   -0.01908    0.00914   -0.00887
 31 Li   -0.00694   -0.01028   -0.01553
 32 Li   -0.01665   -0.00222    0.01273
 33 Li   -0.00450   -0.00651   -0.00821
 34 Li    0.00080   -0.00235   -0.00044
 35 Li    0.00895    0.02433   -0.01351
 36 O     0.03076   -0.00784   -0.01400
 37 C    -0.00179   -0.00707    0.00865
 38 C     0.00539    0.00184    0.00727
 39 H    -0.00399    0.00718   -0.00884
 40 H     0.02102    0.02130   -0.02054
 41 H     0.00828   -0.02287    0.02147
 42 H    -0.00360   -0.01322    0.01277
 43 H    -0.01318   -0.02471    0.00533
 44 H    -0.00234   -0.02270   -0.02096
 45 N    -0.03143    0.00129    0.03066
 46 N     0.00340   -0.00799   -0.00075

Timing:                                      incl.     excl.
-------------------------------------------------------------------
Density initialized from wave functions:     3.216     3.213   0.0% |
 Symmetrize density:                         0.003     0.003   0.0% |
Forces:                                     48.030    48.030   0.1% |
Hamiltonian:                               746.654     0.016   0.0% |
 Atomic:                                     0.028     0.028   0.0% |
  XC Correction:                             0.000     0.000   0.0% |
 Calculate atomic Hamiltonians:              0.048     0.048   0.0% |
 Communicate:                               16.353    16.353   0.0% |
 Hartree integrate/restrict:                 2.481     2.481   0.0% |
 Initialize Hamiltonian:                     0.000     0.000   0.0% |
 Poisson:                                   35.277    13.166   0.0% |
  Communicate from 1D:                       3.622     3.622   0.0% |
  Communicate from 2D:                       3.326     3.326   0.0% |
  Communicate to 1D:                         1.921     1.921   0.0% |
  Communicate to 2D:                         4.274     4.274   0.0% |
  FFT 1D:                                    4.759     4.759   0.0% |
  FFT 2D:                                    4.208     4.208   0.0% |
 XC 3D grid:                               691.908   108.205   0.3% |
  VdW-DF integral:                         583.703     4.783   0.0% |
   Convolution:                             52.230    52.230   0.1% |
   FFT:                                     22.885    22.885   0.1% |
   gather:                                 202.024   202.024   0.6% |
   hmm1:                                    18.910    18.910   0.1% |
   hmm2:                                    24.215    24.215   0.1% |
   iFFT:                                    24.041    24.041   0.1% |
   potential:                              230.999     6.152   0.0% |
    collect:                                34.044    34.044   0.1% |
    p1:                                    100.838   100.838   0.3% |
    p2:                                     36.874    36.874   0.1% |
    sum:                                    53.090    53.090   0.1% |
   splines:                                  3.616     3.616   0.0% |
 vbar:                                       0.543     0.543   0.0% |
LCAO initialization:                         1.128     0.183   0.0% |
 LCAO eigensolver:                           0.284     0.000   0.0% |
  Calculate projections:                     0.000     0.000   0.0% |
  DenseAtomicCorrection:                     0.000     0.000   0.0% |
  Distribute overlap matrix:                 0.193     0.193   0.0% |
  Orbital Layouts:                           0.080     0.080   0.0% |
  Potential matrix:                          0.001     0.001   0.0% |
  Sum over cells:                            0.010     0.010   0.0% |
 LCAO to grid:                               0.542     0.542   0.0% |
 Set positions (LCAO WFS):                   0.118     0.071   0.0% |
  Basic WFS set positions:                   0.001     0.001   0.0% |
  Basis functions set positions:             0.000     0.000   0.0% |
  P tci:                                     0.000     0.000   0.0% |
  ST tci:                                    0.017     0.017   0.0% |
  mktci:                                     0.029     0.029   0.0% |
Redistribute:                                0.084     0.084   0.0% |
SCF-cycle:                               34601.682   493.013   1.4% ||
 Davidson:                                8633.956  2548.093   7.2% |--|
  Apply hamiltonian:                       541.492   541.492   1.5% ||
  Subspace diag:                          1644.948     0.525   0.0% |
   calc_h_matrix:                          803.658   242.667   0.7% |
    Apply hamiltonian:                     560.991   560.991   1.6% ||
   diagonalize:                             90.031    90.031   0.3% |
   rotate_psi:                             750.734   750.734   2.1% ||
  calc. matrices:                         2695.021  1383.419   3.9% |-|
   Apply hamiltonian:                     1311.602  1311.602   3.7% ||
  diagonalize:                              24.443    24.443   0.1% |
  rotate_psi:                             1179.959  1179.959   3.3% ||
 Density:                                  164.543     0.282   0.0% |
  Atomic density matrices:                  19.474    19.474   0.1% |
  Mix:                                      70.636    70.636   0.2% |
  Multipole moments:                         6.382     6.382   0.0% |
  Pseudo density:                           67.769    67.652   0.2% |
   Symmetrize density:                       0.116     0.116   0.0% |
 Hamiltonian:                            25286.391     0.563   0.0% |
  Atomic:                                    1.154     1.142   0.0% |
   XC Correction:                            0.012     0.012   0.0% |
  Calculate atomic Hamiltonians:             1.724     1.724   0.0% |
  Communicate:                             352.623   352.623   1.0% |
  Hartree integrate/restrict:               86.189    86.189   0.2% |
  Poisson:                                1198.167   442.125   1.2% |
   Communicate from 1D:                    116.894   116.894   0.3% |
   Communicate from 2D:                    118.766   118.766   0.3% |
   Communicate to 1D:                       66.970    66.970   0.2% |
   Communicate to 2D:                      142.710   142.710   0.4% |
   FFT 1D:                                 158.971   158.971   0.4% |
   FFT 2D:                                 151.731   151.731   0.4% |
  XC 3D grid:                            23626.348  3645.010  10.3% |---|
   VdW-DF integral:                      19981.338   169.069   0.5% |
    Convolution:                          1840.285  1840.285   5.2% |-|
    FFT:                                   789.380   789.380   2.2% ||
    gather:                               7030.054  7030.054  19.8% |-------|
    hmm1:                                  648.622   648.622   1.8% ||
    hmm2:                                  852.513   852.513   2.4% ||
    iFFT:                                  826.336   826.336   2.3% ||
    potential:                            7825.035   213.555   0.6% |
     collect:                             1210.269  1210.269   3.4% ||
     p1:                                  3531.827  3531.827   9.9% |---|
     p2:                                  1301.970  1301.970   3.7% ||
     sum:                                 1567.415  1567.415   4.4% |-|
    splines:                                 0.044     0.044   0.0% |
  vbar:                                     19.624    19.624   0.1% |
 Orthonormalize:                            23.779     0.018   0.0% |
  calc_s_matrix:                             3.155     3.155   0.0% |
  inverse-cholesky:                          7.378     7.378   0.0% |
  projections:                               0.003     0.003   0.0% |
  rotate_psi_s:                             13.226    13.226   0.0% |
Set symmetry:                                0.026     0.026   0.0% |
Other:                                     129.881   129.881   0.4% |
-------------------------------------------------------------------
Total:                                             35530.700 100.0%

Memory usage: 1.12 GiB
Date: Thu Mar  9 07:30:50 2023
