
  ___ ___ ___ _ _ _  
 |   |   |_  | | | | 
 | | | | | . | | | | 
 |__ |  _|___|_____|  22.8.0
 |___|_|             

User:   vazumah@c10.hercules
Date:   Wed Apr  5 10:03:09 2023
Arch:   x86_64
Pid:    5359
CWD:    /home/vazumah/Python_projects/LiNRR/Li_adsorb_studies/proton_donors/N2_with_proton_donor/Li_BCC_100/adsorbates/CH3CH2OH_y/bridge/0.0_1.617/N2_y
Python: 3.10.8
gpaw:   /home/vazumah/.conda/envs/GPAW/lib/python3.10/site-packages/gpaw
_gpaw:  /home/vazumah/.conda/envs/GPAW/lib/python3.10/site-packages/
        _gpaw.cpython-310-x86_64-linux-gnu.so
ase:    /home/vazumah/.conda/envs/GPAW/lib/python3.10/site-packages/ase (version 3.22.1)
numpy:  /home/vazumah/.conda/envs/GPAW/lib/python3.10/site-packages/numpy (version 1.24.1)
scipy:  /home/vazumah/.conda/envs/GPAW/lib/python3.10/site-packages/scipy (version 1.10.0)
libxc:  5.2.3
units:  Angstrom and eV
cores: 24
OpenMP: True
OMP_NUM_THREADS: 1

Input parameters:
  convergence: {bands: -10}
  h: 0.16
  kpts: {size: [4, 4, 1]}
  occupations: {name: fermi-dirac,
                width: 0.05}
  poissonsolver: {dipolelayer: xy}
  xc: BEEF-vdW

System changes: positions, numbers, cell, pbc, initial_charges, initial_magmoms 

Initialize ...

species:
  Li:
    name: Lithium
    id: 830b4218f175192f93f959cfc0aad614
    Z: 3.0
    valence: 1
    core: 2
    charge: 0.0
    file: /home/vazumah/.conda/envs/GPAW/share/gpaw/Li.PBE.gz
    compensation charges: {type: gauss,
                           rc: 0.33,
                           lmax: 2}
    cutoffs: {filter: 1.91,
              core: 2.55}
    valence states:
      #              energy  rcut
      - 2s(1.00)    -2.874   1.058
      - 2p(0.00)    -1.090   1.058
      -  s          24.337   1.058
  
    # Using partial waves for Li as LCAO basis

  O:
    name: Oxygen
    id: 32ecd46bf208036f09c70b0ec9a88b78
    Z: 8.0
    valence: 6
    core: 2
    charge: 0.0
    file: /home/vazumah/.conda/envs/GPAW/share/gpaw/O.PBE.gz
    compensation charges: {type: gauss,
                           rc: 0.21,
                           lmax: 2}
    cutoffs: {filter: 1.17,
              core: 0.83}
    valence states:
      #              energy  rcut
      - 2s(2.00)   -23.961   0.688
      - 2p(4.00)    -9.029   0.598
      -  s           3.251   0.688
      -  p          18.182   0.598
      -  d           0.000   0.619
  
    # Using partial waves for O as LCAO basis

  C:
    name: Carbon
    id: 4aa54d4b901d75f77cc0ea3eec22967b
    Z: 6.0
    valence: 4
    core: 2
    charge: 0.0
    file: /home/vazumah/.conda/envs/GPAW/share/gpaw/C.PBE.gz
    compensation charges: {type: gauss,
                           rc: 0.20,
                           lmax: 2}
    cutoffs: {filter: 1.14,
              core: 1.14}
    valence states:
      #              energy  rcut
      - 2s(2.00)   -13.751   0.635
      - 2p(2.00)    -5.284   0.635
      -  s          13.461   0.635
      -  p          21.927   0.635
      -  d           0.000   0.635
  
    # Using partial waves for C as LCAO basis

  H:
    name: Hydrogen
    id: d65de229564ff8ea4db303e23b6d1ecf
    Z: 1.0
    valence: 1
    core: 0
    charge: 0.0
    file: /home/vazumah/.conda/envs/GPAW/share/gpaw/H.PBE.gz
    compensation charges: {type: gauss,
                           rc: 0.15,
                           lmax: 2}
    cutoffs: {filter: 0.85,
              core: 0.53}
    valence states:
      #              energy  rcut
      - 1s(1.00)    -6.494   0.476
      -  s          20.717   0.476
      -  p           0.000   0.476
  
    # Using partial waves for H as LCAO basis

  N:
    name: Nitrogen
    id: f7500608b86eaa90eef8b1d9a670dc53
    Z: 7.0
    valence: 5
    core: 2
    charge: 0.0
    file: /home/vazumah/.conda/envs/GPAW/share/gpaw/N.PBE.gz
    compensation charges: {type: gauss,
                           rc: 0.18,
                           lmax: 2}
    cutoffs: {filter: 1.11,
              core: 0.96}
    valence states:
      #              energy  rcut
      - 2s(2.00)   -18.583   0.603
      - 2p(3.00)    -7.089   0.529
      -  s           8.629   0.603
      -  p          20.123   0.529
      -  d           0.000   0.577
  
    # Using partial waves for N as LCAO basis

Reference energy: -14434.854043  # eV

Spin-paired calculation

Convergence criteria:
 Maximum [total energy] change in last 3 cyles: 0.0005 eV / electron
 Maximum integral of absolute [dens]ity change: 0.0001 electrons / valence electron
 Maximum integral of absolute [eigenst]ate change: 4e-08 eV^2 / valence electron
 Maximum number of scf [iter]ations: 333
 (Square brackets indicate name in SCF output, whereas a 'c' in
 the SCF output indicates the quantity has converged.)

Symmetries present (total): 1

  ( 1  0  0)
  ( 0  1  0)
  ( 0  0  1)

16 k-points: 4 x 4 x 1 Monkhorst-Pack grid
8 k-points in the irreducible part of the Brillouin zone
       k-points in crystal coordinates                weights
   0:     0.12500000   -0.37500000    0.00000000          2/16
   1:     0.12500000   -0.12500000    0.00000000          2/16
   2:     0.12500000    0.12500000    0.00000000          2/16
   3:     0.12500000    0.37500000    0.00000000          2/16
   4:     0.37500000   -0.37500000    0.00000000          2/16
   5:     0.37500000   -0.12500000    0.00000000          2/16
   6:     0.37500000    0.12500000    0.00000000          2/16
   7:     0.37500000    0.37500000    0.00000000          2/16

Wave functions: Uniform real-space grid
  Kinetic energy operator: 6*3+1=19 point O(h^6) finite-difference Laplacian
  ScaLapack parameters: grid=1x1, blocksize=None
  Wavefunction extrapolation:
    Improved wavefunction reuse through dual PAW basis 

Occupation numbers: Fermi-Dirac:
  width: 0.0500  # eV
 

Eigensolver
   Davidson(niter=2) 

Densities:
  Coarse grid: 60*60*164 grid
  Fine grid: 120*120*328 grid
  Total Charge: 0.000000 

Density mixing:
  Method: separate
  Backend: pulay
  Linear mixing parameter: 0.05
  old densities: 5
  Damping of long wavelength oscillations: 50 

Hamiltonian:
  XC and Coulomb potentials evaluated on a 120*120*328 grid
  Using the BEEF-vdW Exchange-Correlation functional
  Interpolation: tri-quintic (5. degree polynomial)
  Poisson solver: FastPoissonSolver using
    Stencil: 6*3+1=19 point O(h^6) finite-difference Laplacian
    FFT axes: [0, 1]
    FST axes: [2]

Dipole correction along z-axis 

XC parameters: BEEF-vdW with 2 nearest neighbor stencil

Memory estimate:
  Process memory now: 242.81 MiB
  Calculator: 430.76 MiB
    Density: 120.39 MiB
      Arrays: 38.89 MiB
      Localized functions: 66.67 MiB
      Mixer: 14.83 MiB
    Hamiltonian: 30.70 MiB
      Arrays: 25.43 MiB
      XC: 0.00 MiB
      Poisson: 0.00 MiB
      vbar: 5.27 MiB
    Wavefunctions: 279.67 MiB
      Arrays psit_nG: 130.52 MiB
      Eigensolver: 145.65 MiB
      Projections: 0.06 MiB
      Projectors: 3.44 MiB

Total number of cores used: 24
Parallelization over k-points: 8
Domain decomposition: 1 x 1 x 3

Number of atoms: 47
Number of atomic orbitals: 170
Number of bands in calculation: 44
Number of valence electrons: 66
Bands to converge: 34

... initialized

Initializing position-dependent things.

Density initialized from atomic densities
Creating initial wave functions:
  44 bands from LCAO basis set

       .-----------------------.  
      /|                       |  
     / |                       |  
    /  |                       |  
   /   |                       |  
  /    |                       |  
 *     |                       |  
 |     |                       |  
 |     |                       |  
 |     |                       |  
 |     |                       |  
 |     |                  H    |  
 |  C HH                       |  
 |   C |       Li      LiH     |  
 | O   H                  H    |  
 |   Li|     Li      Li        |  
 |     |                       |  
 | Li  |  LiLi    LLi     Li   |  
 |     |             N N       |  
 |     |Li      Li      LLi    |  
 |   Li|     Li      Li        |  
 |    Li  Li  Li  Li  Li  Li   |  
 | Li  |   Li      Li          |  
 |     |Li      Li      Li     |  
 Li    | Li      Li            |  
 |    Li      Li      Li       |  
 |     |                       |  
 |     |                       |  
 |     |                       |  
 |     |                       |  
 |     |                       |  
 |     |                       |  
 |     .-----------------------.  
 |    /                       /   
 |   /                       /    
 |  /                       /     
 | /                       /      
 |/                       /       
 *-----------------------*        

Positions:
   0 Li     1.617037    1.617037   10.000000    ( 0.0000,  0.0000,  0.0000)
   1 Li     4.851111    1.617037   10.000000    ( 0.0000,  0.0000,  0.0000)
   2 Li     8.085185    1.617037   10.000000    ( 0.0000,  0.0000,  0.0000)
   3 Li     1.617037    4.851111   10.000000    ( 0.0000,  0.0000,  0.0000)
   4 Li     4.851111    4.851111   10.000000    ( 0.0000,  0.0000,  0.0000)
   5 Li     8.085185    4.851111   10.000000    ( 0.0000,  0.0000,  0.0000)
   6 Li     1.617037    8.085185   10.000000    ( 0.0000,  0.0000,  0.0000)
   7 Li     4.851111    8.085185   10.000000    ( 0.0000,  0.0000,  0.0000)
   8 Li     8.085185    8.085185   10.000000    ( 0.0000,  0.0000,  0.0000)
   9 Li     0.000000    0.000000   11.617037    ( 0.0000,  0.0000,  0.0000)
  10 Li     3.234074    0.000000   11.617037    ( 0.0000,  0.0000,  0.0000)
  11 Li     6.468148    0.000000   11.617037    ( 0.0000,  0.0000,  0.0000)
  12 Li     0.000000    3.234074   11.617037    ( 0.0000,  0.0000,  0.0000)
  13 Li     3.234074    3.234074   11.617037    ( 0.0000,  0.0000,  0.0000)
  14 Li     6.468148    3.234074   11.617037    ( 0.0000,  0.0000,  0.0000)
  15 Li     0.000000    6.468148   11.617037    ( 0.0000,  0.0000,  0.0000)
  16 Li     3.234074    6.468148   11.617037    ( 0.0000,  0.0000,  0.0000)
  17 Li     6.468148    6.468148   11.617037    ( 0.0000,  0.0000,  0.0000)
  18 Li     1.629117    1.642591   13.510872    ( 0.0000,  0.0000,  0.0000)
  19 Li     4.863157    1.545469   13.506284    ( 0.0000,  0.0000,  0.0000)
  20 Li     8.111374    1.581762   13.584570    ( 0.0000,  0.0000,  0.0000)
  21 Li     1.674321    4.925744   13.469283    ( 0.0000,  0.0000,  0.0000)
  22 Li     4.921657    4.797710   13.481024    ( 0.0000,  0.0000,  0.0000)
  23 Li     8.129504    4.873383   13.498340    ( 0.0000,  0.0000,  0.0000)
  24 Li     1.562847    8.163735   13.515606    ( 0.0000,  0.0000,  0.0000)
  25 Li     4.836013    8.045138   13.506956    ( 0.0000,  0.0000,  0.0000)
  26 Li     8.059650    8.098367   13.535449    ( 0.0000,  0.0000,  0.0000)
  27 Li    -0.198492    0.337786   15.789497    ( 0.0000,  0.0000,  0.0000)
  28 Li     3.135578   -0.066372   15.470699    ( 0.0000,  0.0000,  0.0000)
  29 Li     6.410951   -0.105767   15.534364    ( 0.0000,  0.0000,  0.0000)
  30 Li     0.154733    3.399667   15.380781    ( 0.0000,  0.0000,  0.0000)
  31 Li     3.430059    3.302200   15.405446    ( 0.0000,  0.0000,  0.0000)
  32 Li     6.723706    3.008897   15.529887    ( 0.0000,  0.0000,  0.0000)
  33 Li     0.058017    6.667005   15.454477    ( 0.0000,  0.0000,  0.0000)
  34 Li     3.229152    6.458793   15.444916    ( 0.0000,  0.0000,  0.0000)
  35 Li     6.393329    6.300402   15.467180    ( 0.0000,  0.0000,  0.0000)
  36 O      0.341832    1.611732   18.862926    ( 0.0000,  0.0000,  0.0000)
  37 C      1.023266    2.876938   18.950060    ( 0.0000,  0.0000,  0.0000)
  38 C      0.083146    4.075947   18.927398    ( 0.0000,  0.0000,  0.0000)
  39 H      1.660517    2.902530   19.843912    ( 0.0000,  0.0000,  0.0000)
  40 H      1.682217    2.893409   18.078618    ( 0.0000,  0.0000,  0.0000)
  41 H      0.656325    5.006912   18.876912    ( 0.0000,  0.0000,  0.0000)
  42 H     -0.576025    4.039434   18.056738    ( 0.0000,  0.0000,  0.0000)
  43 H     -0.537915    4.114693   19.827242    ( 0.0000,  0.0000,  0.0000)
  44 H     -0.252765    1.542472   19.620172    ( 0.0000,  0.0000,  0.0000)
  45 N     -2.019572    1.217085   15.623775    ( 0.0000,  0.0000,  0.0000)
  46 N     -1.149056    2.122518   15.567437    ( 0.0000,  0.0000,  0.0000)

Unit cell:
           periodic     x           y           z      points  spacing
  1. axis:    yes    9.702222    0.000000    0.000000    60     0.1617
  2. axis:    yes    0.000000    9.702222    0.000000    60     0.1617
  3. axis:    no     0.000000    0.000000   26.351111   164     0.1607

  Lengths:   9.702222   9.702222  26.351111
  Angles:   90.000000  90.000000  90.000000

Effective grid spacing dv^(1/3) = 0.1614

     iter     time        total  log10-change:
                         energy  eigst   dens
iter:   1 10:04:23  -469.523626  +1.20
iter:   2 10:05:08  -174.329843  +2.28  -0.12
iter:   3 10:05:53  -143.326698  +3.25  -0.23
iter:   4 10:06:39  -185.080673  +2.55  -0.27
iter:   5 10:07:24  -281.993998  +2.80  -0.48
iter:   6 10:08:09  -278.411941  +2.50  -0.41
iter:   7 10:08:54  -334.636058  +2.66  -0.70
iter:   8 10:09:40  -342.710371  +2.32  -0.52
iter:   9 10:10:25  -324.930731  +1.88  -0.55
iter:  10 10:11:10  -334.229493  +1.56  -0.63
iter:  11 10:11:56  -406.438607  +2.45  -0.56
iter:  12 10:12:41  -404.433885  +1.98  -0.36
iter:  13 10:13:26  -316.648833  +1.26  -0.31
iter:  14 10:14:11  -314.211348  +1.55  -0.79
iter:  15 10:14:56  -315.620878  +1.23  -0.78
iter:  16 10:15:41  -312.172955  +0.80  -0.75
iter:  17 10:16:27  -312.265763  +0.67  -0.90
iter:  18 10:17:12  -311.615275  +0.32  -0.93
iter:  19 10:17:57  -311.393189  +0.88  -1.06
iter:  20 10:18:42  -311.390703  +0.22  -0.94
iter:  21 10:19:27  -310.703317  -0.34  -0.94
iter:  22 10:20:13  -310.419316  -0.36  -1.05
iter:  23 10:20:58  -310.248688  -0.17  -1.13
iter:  24 10:21:43  -310.052628  -0.03  -1.19
iter:  25 10:22:29  -309.991982  -0.38  -1.40
iter:  26 10:23:14  -310.004744  -0.65  -1.51
iter:  27 10:23:59  -310.081872  -0.58  -1.54
iter:  28 10:24:45  -310.066266  -1.13  -1.56
iter:  29 10:25:30  -309.997880  -1.05  -1.57
iter:  30 10:26:15  -309.969965  -0.75  -1.69
iter:  31 10:27:01  -310.017290  -1.01  -1.82
iter:  32 10:27:46  -310.013502  -1.37  -1.73
iter:  33 10:28:32  -309.991755c -0.95  -1.74
iter:  34 10:29:17  -309.985867c -1.21  -1.84
iter:  35 10:30:03  -309.972742c -1.35  -1.95
iter:  36 10:30:48  -309.973914c -1.91  -2.18
