
  ___ ___ ___ _ _ _  
 |   |   |_  | | | | 
 | | | | | . | | | | 
 |__ |  _|___|_____|  22.8.0
 |___|_|             

User:   vazumah@r362.ib.bridges2.psc.edu
Date:   Fri Mar 10 11:16:32 2023
Arch:   x86_64
Pid:    23598
CWD:    /jet/home/vazumah/Calcs/LiMEAS/proton_donors/methanol_x/bridge/0.0_1.617/N2_y
Python: 3.11.0
gpaw:   /jet/home/vazumah/.conda/envs/GPAW_mpich/lib/python3.11/site-packages/gpaw
_gpaw:  /jet/home/vazumah/.conda/envs/GPAW_mpich/lib/python3.11/site-packages/
        _gpaw.cpython-311-x86_64-linux-gnu.so
ase:    /jet/home/vazumah/.conda/envs/GPAW_mpich/lib/python3.11/site-packages/ase (version 3.22.1)
numpy:  /jet/home/vazumah/.conda/envs/GPAW_mpich/lib/python3.11/site-packages/numpy (version 1.24.2)
scipy:  /jet/home/vazumah/.conda/envs/GPAW_mpich/lib/python3.11/site-packages/scipy (version 1.10.1)
libxc:  5.2.3
units:  Angstrom and eV
cores: 128
OpenMP: True
OMP_NUM_THREADS: 1

Input parameters:
  h: 0.16
  kpts: {size: [4, 4, 1]}
  occupations: {name: fermi-dirac,
                width: 0.05}
  poissonsolver: {dipolelayer: xy}
  xc: BEEF-vdW

System changes: positions, numbers, cell, pbc, initial_charges, initial_magmoms 

Initialize ...

species:
  Li:
    name: Lithium
    id: 830b4218f175192f93f959cfc0aad614
    Z: 3.0
    valence: 1
    core: 2
    charge: 0.0
    file: /jet/home/vazumah/datasets/gpaw-setups-0.9.20000/Li.PBE.gz
    compensation charges: {type: gauss,
                           rc: 0.33,
                           lmax: 2}
    cutoffs: {filter: 1.91,
              core: 2.55}
    valence states:
      #              energy  rcut
      - 2s(1.00)    -2.874   1.058
      - 2p(0.00)    -1.090   1.058
      -  s          24.337   1.058
  
    # Using partial waves for Li as LCAO basis

  O:
    name: Oxygen
    id: 32ecd46bf208036f09c70b0ec9a88b78
    Z: 8.0
    valence: 6
    core: 2
    charge: 0.0
    file: /jet/home/vazumah/datasets/gpaw-setups-0.9.20000/O.PBE.gz
    compensation charges: {type: gauss,
                           rc: 0.21,
                           lmax: 2}
    cutoffs: {filter: 1.17,
              core: 0.83}
    valence states:
      #              energy  rcut
      - 2s(2.00)   -23.961   0.688
      - 2p(4.00)    -9.029   0.598
      -  s           3.251   0.688
      -  p          18.182   0.598
      -  d           0.000   0.619
  
    # Using partial waves for O as LCAO basis

  C:
    name: Carbon
    id: 4aa54d4b901d75f77cc0ea3eec22967b
    Z: 6.0
    valence: 4
    core: 2
    charge: 0.0
    file: /jet/home/vazumah/datasets/gpaw-setups-0.9.20000/C.PBE.gz
    compensation charges: {type: gauss,
                           rc: 0.20,
                           lmax: 2}
    cutoffs: {filter: 1.14,
              core: 1.14}
    valence states:
      #              energy  rcut
      - 2s(2.00)   -13.751   0.635
      - 2p(2.00)    -5.284   0.635
      -  s          13.461   0.635
      -  p          21.927   0.635
      -  d           0.000   0.635
  
    # Using partial waves for C as LCAO basis

  H:
    name: Hydrogen
    id: d65de229564ff8ea4db303e23b6d1ecf
    Z: 1.0
    valence: 1
    core: 0
    charge: 0.0
    file: /jet/home/vazumah/datasets/gpaw-setups-0.9.20000/H.PBE.gz
    compensation charges: {type: gauss,
                           rc: 0.15,
                           lmax: 2}
    cutoffs: {filter: 0.85,
              core: 0.53}
    valence states:
      #              energy  rcut
      - 1s(1.00)    -6.494   0.476
      -  s          20.717   0.476
      -  p           0.000   0.476
  
    # Using partial waves for H as LCAO basis

  N:
    name: Nitrogen
    id: f7500608b86eaa90eef8b1d9a670dc53
    Z: 7.0
    valence: 5
    core: 2
    charge: 0.0
    file: /jet/home/vazumah/datasets/gpaw-setups-0.9.20000/N.PBE.gz
    compensation charges: {type: gauss,
                           rc: 0.18,
                           lmax: 2}
    cutoffs: {filter: 1.11,
              core: 0.96}
    valence states:
      #              energy  rcut
      - 2s(2.00)   -18.583   0.603
      - 2p(3.00)    -7.089   0.529
      -  s           8.629   0.603
      -  p          20.123   0.529
      -  d           0.000   0.577
  
    # Using partial waves for N as LCAO basis

Reference energy: -13382.245603  # eV

Spin-paired calculation

Convergence criteria:
 Maximum [total energy] change in last 3 cyles: 0.0005 eV / electron
 Maximum integral of absolute [dens]ity change: 0.0001 electrons / valence electron
 Maximum integral of absolute [eigenst]ate change: 4e-08 eV^2 / valence electron
 Maximum number of scf [iter]ations: 333
 (Square brackets indicate name in SCF output, whereas a 'c' in
 the SCF output indicates the quantity has converged.)

Symmetries present (total): 1

  ( 1  0  0)
  ( 0  1  0)
  ( 0  0  1)

16 k-points: 4 x 4 x 1 Monkhorst-Pack grid
8 k-points in the irreducible part of the Brillouin zone
       k-points in crystal coordinates                weights
   0:     0.12500000   -0.37500000    0.00000000          2/16
   1:     0.12500000   -0.12500000    0.00000000          2/16
   2:     0.12500000    0.12500000    0.00000000          2/16
   3:     0.12500000    0.37500000    0.00000000          2/16
   4:     0.37500000   -0.37500000    0.00000000          2/16
   5:     0.37500000   -0.12500000    0.00000000          2/16
   6:     0.37500000    0.12500000    0.00000000          2/16
   7:     0.37500000    0.37500000    0.00000000          2/16

Wave functions: Uniform real-space grid
  Kinetic energy operator: 6*3+1=19 point O(h^6) finite-difference Laplacian
  ScaLapack parameters: grid=1x1, blocksize=None
  Wavefunction extrapolation:
    Improved wavefunction reuse through dual PAW basis 

Occupation numbers: Fermi-Dirac:
  width: 0.0500  # eV
 

Eigensolver
   Davidson(niter=2) 

Densities:
  Coarse grid: 60*60*168 grid
  Fine grid: 120*120*336 grid
  Total Charge: 0.000000 

Density mixing:
  Method: separate
  Backend: pulay
  Linear mixing parameter: 0.05
  old densities: 5
  Damping of long wavelength oscillations: 50 

Hamiltonian:
  XC and Coulomb potentials evaluated on a 120*120*336 grid
  Using the BEEF-vdW Exchange-Correlation functional
  Interpolation: tri-quintic (5. degree polynomial)
  Poisson solver: FastPoissonSolver using
    Stencil: 6*3+1=19 point O(h^6) finite-difference Laplacian
    FFT axes: [0, 1]
    FST axes: [2]

Dipole correction along z-axis 

XC parameters: BEEF-vdW with 2 nearest neighbor stencil

Memory estimate:
  Process memory now: 126.70 MiB
  Calculator: 77.36 MiB
    Density: 22.77 MiB
      Arrays: 7.40 MiB
      Localized functions: 12.55 MiB
      Mixer: 2.82 MiB
    Hamiltonian: 5.83 MiB
      Arrays: 4.84 MiB
      XC: 0.00 MiB
      Poisson: 0.00 MiB
      vbar: 0.99 MiB
    Wavefunctions: 48.76 MiB
      Arrays psit_nG: 22.52 MiB
      Eigensolver: 25.58 MiB
      Projections: 0.01 MiB
      Projectors: 0.64 MiB

Total number of cores used: 128
Parallelization over k-points: 8
Domain decomposition: 2 x 2 x 4

Number of atoms: 44
Number of atomic orbitals: 164
Number of bands in calculation: 40
Number of valence electrons: 60
Bands to converge: occupied

... initialized

Initializing position-dependent things.

Density initialized from atomic densities
Creating initial wave functions:
  40 bands from LCAO basis set

       .-----------------------.  
      /|                       |  
     / |                       |  
    /  |                       |  
   /   |                       |  
  /    |                       |  
 *     |                       |  
 |     |                       |  
 |     |                       |  
 |     |                       |  
 |     |                       |  
 |     |                       |  
 |     |                       |  
 |     |                       |  
 |    H|                       |  
 |O   CH                 H     |  
 | N LH|     Li      Li        |  
 |N    |  Li      Li      Li   |  
 | Li  |   Li      Li          |  
 |     |Li      Li      Li     |  
 Li    | Li      Li            |  
 |   LLi     LLi     LLi       |  
 |     |  Li      Li      Li   |  
 | Li  |   Li      Li          |  
 |     |Li      Li      Li     |  
 Li    | Li      Li            |  
 |    Li      Li      Li       |  
 |     |                       |  
 |     |                       |  
 |     |                       |  
 |     |                       |  
 |     |                       |  
 |     |                       |  
 |     .-----------------------.  
 |    /                       /   
 |   /                       /    
 |  /                       /     
 | /                       /      
 |/                       /       
 *-----------------------*        

Positions:
   0 Li     1.617037    1.617037   10.000000    ( 0.0000,  0.0000,  0.0000)
   1 Li     4.851111    1.617037   10.000000    ( 0.0000,  0.0000,  0.0000)
   2 Li     8.085185    1.617037   10.000000    ( 0.0000,  0.0000,  0.0000)
   3 Li     1.617037    4.851111   10.000000    ( 0.0000,  0.0000,  0.0000)
   4 Li     4.851111    4.851111   10.000000    ( 0.0000,  0.0000,  0.0000)
   5 Li     8.085185    4.851111   10.000000    ( 0.0000,  0.0000,  0.0000)
   6 Li     1.617037    8.085185   10.000000    ( 0.0000,  0.0000,  0.0000)
   7 Li     4.851111    8.085185   10.000000    ( 0.0000,  0.0000,  0.0000)
   8 Li     8.085185    8.085185   10.000000    ( 0.0000,  0.0000,  0.0000)
   9 Li     0.000000    0.000000   11.617037    ( 0.0000,  0.0000,  0.0000)
  10 Li     3.234074    0.000000   11.617037    ( 0.0000,  0.0000,  0.0000)
  11 Li     6.468148    0.000000   11.617037    ( 0.0000,  0.0000,  0.0000)
  12 Li     0.000000    3.234074   11.617037    ( 0.0000,  0.0000,  0.0000)
  13 Li     3.234074    3.234074   11.617037    ( 0.0000,  0.0000,  0.0000)
  14 Li     6.468148    3.234074   11.617037    ( 0.0000,  0.0000,  0.0000)
  15 Li     0.000000    6.468148   11.617037    ( 0.0000,  0.0000,  0.0000)
  16 Li     3.234074    6.468148   11.617037    ( 0.0000,  0.0000,  0.0000)
  17 Li     6.468148    6.468148   11.617037    ( 0.0000,  0.0000,  0.0000)
  18 Li     1.617038    1.617038   13.469728    ( 0.0000,  0.0000,  0.0000)
  19 Li     4.851111    1.617038   13.469729    ( 0.0000,  0.0000,  0.0000)
  20 Li     8.085184    1.617038   13.469728    ( 0.0000,  0.0000,  0.0000)
  21 Li     1.617038    4.851111   13.469729    ( 0.0000,  0.0000,  0.0000)
  22 Li     4.851111    4.851111   13.469730    ( 0.0000,  0.0000,  0.0000)
  23 Li     8.085184    4.851111   13.469729    ( 0.0000,  0.0000,  0.0000)
  24 Li     1.617038    8.085184   13.469728    ( 0.0000,  0.0000,  0.0000)
  25 Li     4.851111    8.085184   13.469729    ( 0.0000,  0.0000,  0.0000)
  26 Li     8.085184    8.085184   13.469728    ( 0.0000,  0.0000,  0.0000)
  27 Li    -0.000000   -0.000000   15.445939    ( 0.0000,  0.0000,  0.0000)
  28 Li     3.234074    0.000000   15.445939    ( 0.0000,  0.0000,  0.0000)
  29 Li     6.468148    0.000000   15.445939    ( 0.0000,  0.0000,  0.0000)
  30 Li     0.000000    3.234074   15.445939    ( 0.0000,  0.0000,  0.0000)
  31 Li     3.234076    3.234076   15.445938    ( 0.0000,  0.0000,  0.0000)
  32 Li     6.468146    3.234076   15.445938    ( 0.0000,  0.0000,  0.0000)
  33 Li     0.000000    6.468148   15.445939    ( 0.0000,  0.0000,  0.0000)
  34 Li     3.234076    6.468146   15.445938    ( 0.0000,  0.0000,  0.0000)
  35 Li     6.468146    6.468146   15.445938    ( 0.0000,  0.0000,  0.0000)
  36 O      0.000000    1.617037   18.445939    ( 0.0000,  0.0000,  0.0000)
  37 C      1.429962    1.601963   18.451439    ( 0.0000,  0.0000,  0.0000)
  38 H      1.834234    0.852010   17.764289    ( 0.0000,  0.0000,  0.0000)
  39 H      1.833475    1.423554   19.453228    ( 0.0000,  0.0000,  0.0000)
  40 H      1.749406    2.587678   18.118510    ( 0.0000,  0.0000,  0.0000)
  41 H     -0.311655    0.753908   18.736944    ( 0.0000,  0.0000,  0.0000)
  42 N      0.000000    1.617000   17.195939    ( 0.0000,  0.0000,  0.0000)
  43 N      0.000000    2.713622   17.195939    ( 0.0000,  0.0000,  0.0000)

Unit cell:
           periodic     x           y           z      points  spacing
  1. axis:    yes    9.702222    0.000000    0.000000    60     0.1617
  2. axis:    yes    0.000000    9.702222    0.000000    60     0.1617
  3. axis:    no     0.000000    0.000000   26.601111   168     0.1583

  Lengths:   9.702222   9.702222  26.601111
  Angles:   90.000000  90.000000  90.000000

Effective grid spacing dv^(1/3) = 0.1606

     iter     time        total  log10-change:
                         energy  eigst   dens
iter:   1 11:16:46  -443.886010
iter:   2 11:16:53  -149.066601  +2.40  -0.05
iter:   3 11:17:00  -158.213614  +3.28  -0.26
iter:   4 11:17:07  -237.559961  +2.97  -0.30
Writing to output.gpw (mode='')

iter:   5 11:17:14  -239.511753  +2.52  -0.34
iter:   6 11:17:21  -260.976866  +2.25  -0.69
iter:   7 11:17:28  -277.823847  +1.92  -0.78
iter:   8 11:17:35  -282.266221  +1.62  -0.65
iter:   9 11:17:42  -299.818146  +1.78  -0.64
Writing to output.gpw (mode='')

iter:  10 11:17:49  -277.826384  +1.20  -0.56
iter:  11 11:17:56  -278.705371  +0.97  -0.80
iter:  12 11:18:03  -304.849119  +1.78  -0.82
iter:  13 11:18:11  -278.665388  +1.32  -0.61
iter:  14 11:18:18  -276.011179  +0.62  -0.73
Writing to output.gpw (mode='')

iter:  15 11:18:25  -274.234280  +0.91  -0.85
iter:  16 11:18:32  -273.620933  +0.38  -0.91
iter:  17 11:18:39  -273.078699  +0.44  -1.00
iter:  18 11:18:46  -273.231078  +0.74  -1.12
iter:  19 11:18:53  -273.250112  +0.27  -1.05
Writing to output.gpw (mode='')

iter:  20 11:19:00  -272.736348  +0.27  -1.06
iter:  21 11:19:07  -272.799522  -0.10  -1.35
iter:  22 11:19:14  -272.748704  -0.53  -1.48
iter:  23 11:19:21  -272.703667  -0.72  -1.52
iter:  24 11:19:28  -272.725725  -0.45  -1.57
Writing to output.gpw (mode='')

iter:  25 11:19:35  -272.722793c -0.87  -1.58
iter:  26 11:19:42  -272.730397c -0.98  -1.82
iter:  27 11:19:49  -272.730681c -1.18  -1.99
iter:  28 11:19:56  -272.735566c -1.09  -2.11
iter:  29 11:20:03  -272.738980c -1.51  -2.20
Writing to output.gpw (mode='')

iter:  30 11:20:10  -272.741358c -1.52  -2.24
iter:  31 11:20:17  -272.744458c -1.65  -2.38
iter:  32 11:20:24  -272.746359c -1.89  -2.51
iter:  33 11:20:31  -272.747970c -2.02  -2.60
iter:  34 11:20:38  -272.749577c -2.04  -2.65
Writing to output.gpw (mode='')

iter:  35 11:20:45  -272.751066c -2.04  -2.78
iter:  36 11:20:52  -272.752699c -1.90  -2.85
iter:  37 11:21:04  -272.753462c -2.30  -2.93
iter:  38 11:21:12  -272.754142c -2.32  -3.04
iter:  39 11:21:21  -272.754784c -2.45  -3.09
Writing to output.gpw (mode='')

iter:  40 11:21:29  -272.755243c -2.67  -3.20
iter:  41 11:21:36  -272.755602c -2.71  -3.29
iter:  42 11:21:43  -272.756019c -2.57  -3.34
iter:  43 11:21:50  -272.756398c -2.90  -3.39
iter:  44 11:21:57  -272.756656c -2.76  -3.47
Writing to output.gpw (mode='')

iter:  45 11:22:04  -272.756849c -3.01  -3.67
iter:  46 11:22:11  -272.757008c -3.10  -3.66
iter:  47 11:22:18  -272.757147c -3.20  -3.67
iter:  48 11:22:25  -272.757297c -3.24  -3.52
iter:  49 11:22:32  -272.757409c -3.21  -3.65
Writing to output.gpw (mode='')

iter:  50 11:22:39  -272.757505c -3.21  -3.65
iter:  51 11:22:46  -272.757587c -3.28  -3.69
iter:  52 11:22:53  -272.757685c -3.21  -3.70
iter:  53 11:23:00  -272.757747c -3.57  -3.81
iter:  54 11:23:07  -272.757795c -3.52  -3.76
Writing to output.gpw (mode='')

iter:  55 11:23:14  -272.757857c -3.51  -3.69
iter:  56 11:23:21  -272.757891c -3.71  -3.80
iter:  57 11:23:28  -272.757937c -3.52  -3.75
iter:  58 11:23:35  -272.757963c -3.76  -3.76
iter:  59 11:23:42  -272.757990c -3.75  -3.73
Writing to output.gpw (mode='')

iter:  60 11:23:50  -272.758023c -3.83  -3.68
iter:  61 11:23:57  -272.758046c -3.81  -3.81
iter:  62 11:24:04  -272.758067c -3.76  -3.89
iter:  63 11:24:11  -272.758078c -3.88  -3.90
iter:  64 11:24:18  -272.758094c -3.84  -3.87
Writing to output.gpw (mode='')

iter:  65 11:24:25  -272.758103c -4.06  -3.87
iter:  66 11:24:32  -272.758110c -4.18  -3.83
iter:  67 11:24:39  -272.758121c -4.14  -3.87
iter:  68 11:24:46  -272.758138c -4.01  -3.90
iter:  69 11:24:53  -272.758149c -4.10  -3.97
Writing to output.gpw (mode='')

iter:  70 11:25:00  -272.758159c -4.37  -4.02c
iter:  71 11:25:07  -272.758162c -4.52  -4.24c
iter:  72 11:25:14  -272.758163c -4.51  -4.39c
iter:  73 11:25:21  -272.758170c -4.49  -4.42c
iter:  74 11:25:28  -272.758171c -4.31  -4.45c
Writing to output.gpw (mode='')

iter:  75 11:25:36  -272.758171c -4.54  -4.52c
iter:  76 11:25:43  -272.758174c -4.74  -4.59c
iter:  77 11:25:50  -272.758174c -4.88  -4.66c
iter:  78 11:25:57  -272.758176c -4.85  -4.70c
iter:  79 11:26:09  -272.758176c -4.87  -4.82c
Writing to output.gpw (mode='')

iter:  80 11:26:16  -272.758178c -4.87  -4.86c
iter:  81 11:26:23  -272.758178c -5.04  -5.05c
iter:  82 11:26:30  -272.758178c -5.00  -5.13c
iter:  83 11:26:38  -272.758178c -5.14  -5.25c
iter:  84 11:26:45  -272.758179c -5.14  -5.25c
Writing to output.gpw (mode='')

iter:  85 11:26:52  -272.758179c -5.15  -5.23c
iter:  86 11:26:59  -272.758179c -5.26  -5.17c
iter:  87 11:27:06  -272.758179c -5.30  -5.07c
iter:  88 11:27:13  -272.758180c -5.32  -5.11c
iter:  89 11:27:20  -272.758180c -5.47  -5.33c
Writing to output.gpw (mode='')

iter:  90 11:27:27  -272.758180c -5.39  -5.30c
iter:  91 11:27:34  -272.758179c -5.34  -5.34c
iter:  92 11:27:41  -272.758179c -5.43  -5.39c
iter:  93 11:27:48  -272.758179c -5.49  -5.46c
iter:  94 11:27:55  -272.758179c -5.63  -5.42c
Writing to output.gpw (mode='')

iter:  95 11:28:02  -272.758179c -5.61  -5.46c
iter:  96 11:28:09  -272.758179c -5.73  -5.47c
iter:  97 11:28:17  -272.758179c -5.71  -5.38c
iter:  98 11:28:26  -272.758180c -5.68  -5.49c
iter:  99 11:28:39  -272.758179c -5.80  -5.78c
Writing to output.gpw (mode='')

iter: 100 11:28:47  -272.758179c -5.77  -5.79c
iter: 101 11:28:54  -272.758179c -5.78  -5.82c
iter: 102 11:29:01  -272.758179c -6.00  -5.80c
iter: 103 11:29:08  -272.758179c -6.02  -5.59c
iter: 104 11:29:15  -272.758179c -6.03  -5.57c
Writing to output.gpw (mode='')

iter: 105 11:29:22  -272.758179c -6.12  -5.44c
iter: 106 11:29:29  -272.758179c -6.11  -5.42c
iter: 107 11:29:36  -272.758179c -6.19  -5.50c
iter: 108 11:29:43  -272.758178c -6.19  -5.47c
iter: 109 11:29:50  -272.758178c -6.11  -5.44c
Writing to output.gpw (mode='')

iter: 110 11:29:57  -272.758178c -6.25  -5.38c
iter: 111 11:30:04  -272.758178c -6.25  -5.37c
iter: 112 11:30:11  -272.758178c -6.30  -5.42c
iter: 113 11:30:18  -272.758178c -6.37  -5.38c
iter: 114 11:30:25  -272.758179c -6.41  -5.56c
Writing to output.gpw (mode='')

iter: 115 11:30:32  -272.758178c -6.45  -5.70c
iter: 116 11:30:39  -272.758178c -6.40  -5.71c
iter: 117 11:30:46  -272.758178c -6.49  -5.75c
iter: 118 11:30:53  -272.758178c -6.59  -5.87c
iter: 119 11:31:06  -272.758178c -6.60  -6.07c
Writing to output.gpw (mode='')

iter: 120 11:31:14  -272.758178c -6.63  -6.17c
iter: 121 11:31:21  -272.758178c -6.67  -6.19c
iter: 122 11:31:28  -272.758178c -6.73  -6.26c
iter: 123 11:31:35  -272.758178c -6.80  -6.37c
iter: 124 11:31:42  -272.758178c -6.80  -6.48c
Writing to output.gpw (mode='')

iter: 125 11:31:49  -272.758178c -6.79  -6.54c
iter: 126 11:31:56  -272.758178c -6.83  -6.60c
iter: 127 11:32:03  -272.758178c -6.91  -6.65c
iter: 128 11:32:10  -272.758178c -6.94  -6.77c
iter: 129 11:32:17  -272.758178c -6.97  -6.70c
Writing to output.gpw (mode='')

iter: 130 11:32:24  -272.758178c -7.02  -6.50c
iter: 131 11:32:31  -272.758178c -7.07  -6.45c
iter: 132 11:32:39  -272.758178c -7.11  -6.37c
iter: 133 11:32:46  -272.758178c -7.15  -6.31c
iter: 134 11:32:53  -272.758178c -7.15  -6.27c
Writing to output.gpw (mode='')

iter: 135 11:33:00  -272.758178c -7.13  -6.22c
iter: 136 11:33:07  -272.758178c -7.19  -6.20c
iter: 137 11:33:14  -272.758178c -7.14  -6.14c
iter: 138 11:33:21  -272.758178c -7.29  -6.11c
iter: 139 11:33:28  -272.758178c -7.33  -6.12c
Writing to output.gpw (mode='')

iter: 140 11:33:35  -272.758178c -7.32  -6.07c
iter: 141 11:33:42  -272.758178c -7.32  -6.08c
iter: 142 11:33:49  -272.758178c -7.45c -6.08c

Converged after 142 iterations.

Dipole moment: (-13.219169, -5.226687, 0.473659) |e|*Ang

Energy contributions relative to reference atoms: (reference = -13382.245603)

Kinetic:       +185.623847
Potential:     -159.889577
External:        +0.000000
XC:            -299.077596
Entropy (-ST):   -0.151676
Local:           +0.660986
--------------------------
Free energy:   -272.834015
Extrapolated:  -272.758178

Dipole-layer corrected work functions: 3.367383, 2.456848 eV

Showing only first 2 kpts
 Kpt  Band  Eigenvalues  Occupancy
  0    28     -3.16408    1.98713
  0    29     -3.06029    1.90180
  0    30     -2.75990    0.09092
  0    31     -2.67831    0.01846

  1    28     -2.95947    1.44102
  1    29     -2.93552    1.22987
  1    30     -2.85953    0.51778
  1    31     -2.83020    0.32539


Fermi level: -2.91212

Gap: 0.017 eV
Transition (v -> c):
  (s=0, k=2, n=29, [0.12, 0.12, 0.00]) -> (s=0, k=7, n=30, [0.38, 0.38, 0.00])
Writing to output.gpw (mode='')


Forces in eV/Ang:
  0 Li    0.01745   -0.00266   -0.27499
  1 Li   -0.00221    0.00335   -0.26781
  2 Li   -0.01514   -0.00321   -0.27372
  3 Li    0.00225    0.01184   -0.27362
  4 Li   -0.00042   -0.00737   -0.26722
  5 Li   -0.00221    0.01379   -0.27219
  6 Li   -0.00586   -0.00841   -0.26721
  7 Li   -0.00004    0.00175   -0.27849
  8 Li    0.00522   -0.00998   -0.26603
  9 Li    0.00138   -0.00112    0.29043
 10 Li    0.00660   -0.00309    0.26326
 11 Li   -0.00792   -0.00575    0.26580
 12 Li   -0.00102   -0.00527    0.32608
 13 Li    0.02023    0.00164    0.25475
 14 Li   -0.02004    0.00064    0.25885
 15 Li   -0.00086    0.00334    0.24918
 16 Li   -0.00570    0.00390    0.26096
 17 Li    0.00731    0.00713    0.26021
 18 Li    0.03635   -0.00389   -0.07417
 19 Li   -0.00145    0.00347    0.07228
 20 Li   -0.03571   -0.00589   -0.09169
 21 Li    0.00542   -0.00949    0.00441
 22 Li    0.00289    0.01227    0.04455
 23 Li   -0.00731   -0.00746   -0.00006
 24 Li   -0.01322    0.01848    0.07283
 25 Li   -0.00003   -0.01537    0.00935
 26 Li    0.01432    0.01688    0.06754
 27 Li   -0.03098    0.02523    0.14530
 28 Li    0.12584   -0.07771   -0.15077
 29 Li   -0.07388   -0.04602   -0.04235
 30 Li   -0.00312    0.80004   -1.22342
 31 Li    0.11381    0.04464   -0.12199
 32 Li   -0.08305    0.02729   -0.03655
 33 Li    0.00326    0.05601   -0.01879
 34 Li   -0.00823    0.01375   -0.01299
 35 Li    0.00443    0.01200   -0.01813
 36 O     0.66849   -6.87172   16.64039
 37 C     5.10713   -0.31471    3.69326
 38 H    -0.32054   -0.03850    0.06095
 39 H    -0.35081   -0.15770    0.13409
 40 H    -0.06943   -0.16081    0.24842
 41 H    -0.65750   -3.10083    1.99964
 42 N    -3.64184   -8.54137  -10.78338
 43 N    -0.79895   18.27508  -10.61027

System changes: positions 

Initializing position-dependent things.

Density initialized from wave functions
       .-----------------------.  
      /|                       |  
     / |                       |  
    /  |                       |  
   /   |                       |  
  /    |                       |  
 *     |                       |  
 |     |                       |  
 |     |                       |  
 |     |                       |  
 |     |                       |  
 |     |                       |  
 |     |                       |  
 |     |                       |  
 |    H|       Li      Li      |  
 |O   CH                 H     |  
 |   LH|     Li      Li    N   |  
 |     |  Li      Li      Ni   |  
 |     |   Li      Li      Li  |  
 |     |Li      Li      Li     |  
 |     |                 Li    |  
 |   LLi     LLi     LLi       |  
 |     |  Li      Li      Li   |  
 | Li  |   Li      Li          |  
 |     |Li      Li      Li     |  
 Li    | Li      Li            |  
 |    Li      Li      Li       |  
 |     |                       |  
 |     |                       |  
 |     |                       |  
 |     |                       |  
 |     |                       |  
 |     |                       |  
 |     .-----------------------.  
 |    /                       /   
 |   /                       /    
 |  /                       /     
 | /                       /      
 |/                       /       
 *-----------------------*        

Positions:
   0 Li     1.617037    1.617037   10.000000    ( 0.0000,  0.0000,  0.0000)
   1 Li     4.851111    1.617037   10.000000    ( 0.0000,  0.0000,  0.0000)
   2 Li     8.085185    1.617037   10.000000    ( 0.0000,  0.0000,  0.0000)
   3 Li     1.617037    4.851111   10.000000    ( 0.0000,  0.0000,  0.0000)
   4 Li     4.851111    4.851111   10.000000    ( 0.0000,  0.0000,  0.0000)
   5 Li     8.085185    4.851111   10.000000    ( 0.0000,  0.0000,  0.0000)
   6 Li     1.617037    8.085185   10.000000    ( 0.0000,  0.0000,  0.0000)
   7 Li     4.851111    8.085185   10.000000    ( 0.0000,  0.0000,  0.0000)
   8 Li     8.085185    8.085185   10.000000    ( 0.0000,  0.0000,  0.0000)
   9 Li     0.000000    0.000000   11.617037    ( 0.0000,  0.0000,  0.0000)
  10 Li     3.234074    0.000000   11.617037    ( 0.0000,  0.0000,  0.0000)
  11 Li     6.468148    0.000000   11.617037    ( 0.0000,  0.0000,  0.0000)
  12 Li     0.000000    3.234074   11.617037    ( 0.0000,  0.0000,  0.0000)
  13 Li     3.234074    3.234074   11.617037    ( 0.0000,  0.0000,  0.0000)
  14 Li     6.468148    3.234074   11.617037    ( 0.0000,  0.0000,  0.0000)
  15 Li     0.000000    6.468148   11.617037    ( 0.0000,  0.0000,  0.0000)
  16 Li     3.234074    6.468148   11.617037    ( 0.0000,  0.0000,  0.0000)
  17 Li     6.468148    6.468148   11.617037    ( 0.0000,  0.0000,  0.0000)
  18 Li     1.617107    1.617031   13.469588    ( 0.0000,  0.0000,  0.0000)
  19 Li     4.851108    1.617045   13.469866    ( 0.0000,  0.0000,  0.0000)
  20 Li     8.085116    1.617027   13.469554    ( 0.0000,  0.0000,  0.0000)
  21 Li     1.617049    4.851093   13.469738    ( 0.0000,  0.0000,  0.0000)
  22 Li     4.851116    4.851134   13.469815    ( 0.0000,  0.0000,  0.0000)
  23 Li     8.085170    4.851097   13.469729    ( 0.0000,  0.0000,  0.0000)
  24 Li     1.617013    8.085219   13.469866    ( 0.0000,  0.0000,  0.0000)
  25 Li     4.851111    8.085154   13.469747    ( 0.0000,  0.0000,  0.0000)
  26 Li     8.085211    8.085216   13.469856    ( 0.0000,  0.0000,  0.0000)
  27 Li    -0.000059    0.000048   15.446214    ( 0.0000,  0.0000,  0.0000)
  28 Li     3.234312   -0.000147   15.445654    ( 0.0000,  0.0000,  0.0000)
  29 Li     6.468009   -0.000087   15.445859    ( 0.0000,  0.0000,  0.0000)
  30 Li    -0.000006    3.235587   15.443625    ( 0.0000,  0.0000,  0.0000)
  31 Li     3.234292    3.234161   15.445707    ( 0.0000,  0.0000,  0.0000)
  32 Li     6.467988    3.234128   15.445869    ( 0.0000,  0.0000,  0.0000)
  33 Li     0.000006    6.468254   15.445903    ( 0.0000,  0.0000,  0.0000)
  34 Li     3.234061    6.468172   15.445913    ( 0.0000,  0.0000,  0.0000)
  35 Li     6.468154    6.468168   15.445904    ( 0.0000,  0.0000,  0.0000)
  36 O      0.001264    1.604039   18.477415    ( 0.0000,  0.0000,  0.0000)
  37 C      1.439623    1.601368   18.458425    ( 0.0000,  0.0000,  0.0000)
  38 H      1.833628    0.851937   17.764404    ( 0.0000,  0.0000,  0.0000)
  39 H      1.832811    1.423256   19.453481    ( 0.0000,  0.0000,  0.0000)
  40 H      1.749275    2.587374   18.118980    ( 0.0000,  0.0000,  0.0000)
  41 H     -0.312899    0.748043   18.740727    ( 0.0000,  0.0000,  0.0000)
  42 N     -0.006889    1.600844   17.175542    ( 0.0000,  0.0000,  0.0000)
  43 N     -0.001511    2.748190   17.175870    ( 0.0000,  0.0000,  0.0000)

Unit cell:
           periodic     x           y           z      points  spacing
  1. axis:    yes    9.702222    0.000000    0.000000    60     0.1617
  2. axis:    yes    0.000000    9.702222    0.000000    60     0.1617
  3. axis:    no     0.000000    0.000000   26.601111   168     0.1583

  Lengths:   9.702222   9.702222  26.601111
  Angles:   90.000000  90.000000  90.000000

Effective grid spacing dv^(1/3) = 0.1606

     iter     time        total  log10-change:
                         energy  eigst   dens
iter:   1 11:33:58  -275.801881  +0.05
iter:   2 11:34:05  -274.872492  +0.00  -1.19
iter:   3 11:34:12  -274.533713  -0.67  -1.22
iter:   4 11:34:19  -274.416441  -0.77  -1.54
Writing to output.gpw (mode='')

iter:   5 11:34:26  -274.398440  -1.63  -1.85
iter:   6 11:34:33  -274.461891  -0.96  -2.11
iter:   7 11:34:41  -274.416455  -0.92  -1.66
iter:   8 11:34:48  -274.396419  -1.87  -2.04
iter:   9 11:34:55  -274.377862  -1.77  -2.10
Writing to output.gpw (mode='')

iter:  10 11:35:02  -274.382357c -1.55  -2.21
iter:  11 11:35:09  -274.375947c -2.28  -2.34
iter:  12 11:35:16  -274.375392c -2.92  -2.55
iter:  13 11:35:24  -274.375106c -2.83  -2.79
iter:  14 11:35:31  -274.375467c -3.32  -2.93
Writing to output.gpw (mode='')

iter:  15 11:35:38  -274.375481c -3.01  -2.98
iter:  16 11:35:45  -274.375606c -2.95  -3.00
iter:  17 11:35:52  -274.375455c -3.89  -2.91
iter:  18 11:36:04  -274.375408c -3.48  -3.10
iter:  19 11:36:12  -274.375448c -4.06  -3.45
Writing to output.gpw (mode='')

iter:  20 11:36:20  -274.375430c -3.93  -3.30
iter:  21 11:36:27  -274.375449c -3.97  -3.76
iter:  22 11:36:34  -274.375454c -4.49  -3.80
iter:  23 11:36:41  -274.375459c -4.64  -3.83
iter:  24 11:36:48  -274.375446c -4.51  -3.86
Writing to output.gpw (mode='')

iter:  25 11:36:55  -274.375449c -4.45  -3.99
iter:  26 11:37:02  -274.375455c -4.97  -3.98
iter:  27 11:37:10  -274.375465c -4.98  -4.05c
iter:  28 11:37:18  -274.375467c -4.85  -4.02c
iter:  29 11:37:25  -274.375469c -5.10  -4.31c
Writing to output.gpw (mode='')

iter:  30 11:37:32  -274.375471c -5.11  -4.40c
iter:  31 11:37:40  -274.375474c -5.08  -4.51c
iter:  32 11:37:47  -274.375474c -5.16  -4.60c
iter:  33 11:37:54  -274.375473c -5.32  -4.56c
iter:  34 11:38:01  -274.375471c -5.44  -4.58c
Writing to output.gpw (mode='')

iter:  35 11:38:08  -274.375475c -5.57  -4.57c
iter:  36 11:38:15  -274.375472c -5.71  -4.42c
iter:  37 11:38:22  -274.375471c -5.96  -4.77c
iter:  38 11:38:30  -274.375473c -5.99  -5.00c
iter:  39 11:38:37  -274.375472c -6.02  -4.92c
Writing to output.gpw (mode='')

iter:  40 11:38:44  -274.375472c -6.15  -5.19c
iter:  41 11:38:51  -274.375472c -6.14  -5.27c
iter:  42 11:38:58  -274.375472c -6.21  -5.37c
iter:  43 11:39:05  -274.375472c -6.29  -5.34c
iter:  44 11:39:12  -274.375472c -6.40  -5.16c
Writing to output.gpw (mode='')

iter:  45 11:39:20  -274.375472c -6.51  -5.50c
iter:  46 11:39:27  -274.375472c -6.52  -5.63c
iter:  47 11:39:34  -274.375472c -6.57  -5.65c
iter:  48 11:39:41  -274.375472c -6.67  -5.63c
iter:  49 11:39:48  -274.375472c -6.73  -5.47c
Writing to output.gpw (mode='')

iter:  50 11:39:55  -274.375472c -6.69  -5.52c
iter:  51 11:40:02  -274.375471c -6.71  -5.54c
iter:  52 11:40:10  -274.375471c -6.79  -5.52c
iter:  53 11:40:17  -274.375471c -6.89  -5.54c
iter:  54 11:40:24  -274.375471c -7.11  -5.70c
Writing to output.gpw (mode='')

iter:  55 11:40:31  -274.375471c -7.15  -5.80c
iter:  56 11:40:38  -274.375471c -7.13  -5.84c
iter:  57 11:40:45  -274.375471c -7.12  -5.87c
iter:  58 11:40:52  -274.375471c -7.15  -5.87c
iter:  59 11:41:05  -274.375471c -7.18  -5.92c
Writing to output.gpw (mode='')

iter:  60 11:41:15  -274.375471c -7.25  -5.96c
iter:  61 11:41:22  -274.375471c -7.44c -5.97c

Converged after 61 iterations.

Dipole moment: (-12.525460, -5.148563, 0.451009) |e|*Ang

Energy contributions relative to reference atoms: (reference = -13382.245603)

Kinetic:       +173.471224
Potential:     -151.247670
External:        +0.000000
XC:            -297.187180
Entropy (-ST):   -0.153988
Local:           +0.665150
--------------------------
Free energy:   -274.452465
Extrapolated:  -274.375471

Dipole-layer corrected work functions: 3.370080, 2.503085 eV

Showing only first 2 kpts
 Kpt  Band  Eigenvalues  Occupancy
  0    28     -3.18786    1.98695
  0    29     -3.08021    1.89294
  0    30     -2.79417    0.10954
  0    31     -2.71207    0.02218

  1    28     -2.97985    1.40752
  1    29     -2.97069    1.32848
  1    30     -2.87767    0.47073
  1    31     -2.84984    0.29994


Fermi level: -2.93658

Gap: 0.028 eV
Transition (v -> c):
  (s=0, k=7, n=29, [0.38, 0.38, 0.00]) -> (s=0, k=7, n=30, [0.38, 0.38, 0.00])
Writing to output.gpw (mode='')


Forces in eV/Ang:
  0 Li    0.01917   -0.00245   -0.27640
  1 Li   -0.00249    0.00359   -0.26837
  2 Li   -0.01649   -0.00350   -0.27531
  3 Li    0.00223    0.01291   -0.27473
  4 Li   -0.00069   -0.00842   -0.26632
  5 Li   -0.00211    0.01496   -0.27278
  6 Li   -0.00655   -0.00926   -0.26693
  7 Li   -0.00016    0.00251   -0.27846
  8 Li    0.00584   -0.01093   -0.26592
  9 Li    0.00162   -0.00216    0.29132
 10 Li    0.00614   -0.00265    0.26405
 11 Li   -0.00769   -0.00575    0.26630
 12 Li   -0.00123   -0.00417    0.32974
 13 Li    0.02044    0.00143    0.25437
 14 Li   -0.02030   -0.00005    0.26046
 15 Li   -0.00094    0.00284    0.24992
 16 Li   -0.00419    0.00368    0.25960
 17 Li    0.00620    0.00845    0.25969
 18 Li    0.03588   -0.00429   -0.08242
 19 Li   -0.00141    0.00434    0.07565
 20 Li   -0.03516   -0.00682   -0.10250
 21 Li    0.00802   -0.00824   -0.00255
 22 Li    0.00375    0.01104    0.04559
 23 Li   -0.01032   -0.00578   -0.00711
 24 Li   -0.01392    0.01814    0.07404
 25 Li   -0.00059   -0.01567    0.01023
 26 Li    0.01562    0.01696    0.06854
 27 Li   -0.03443    0.05189    0.18038
 28 Li    0.12769   -0.08072   -0.14748
 29 Li   -0.07617   -0.05132   -0.04166
 30 Li   -0.00365    0.83159   -1.38162
 31 Li    0.10404    0.04591   -0.11135
 32 Li   -0.07189    0.02942   -0.02434
 33 Li    0.00240    0.05421   -0.01498
 34 Li   -0.00700    0.01539   -0.01455
 35 Li    0.00394    0.01272   -0.01785
 36 O     0.94172   -5.23455   12.51843
 37 C     4.27982   -0.32140    3.14178
 38 H    -0.27265   -0.03863    0.13332
 39 H    -0.11078   -0.17701    0.39850
 40 H    -0.09658   -0.15217    0.26588
 41 H    -0.68342   -3.16648    2.01957
 42 N    -3.34538   -2.17678   -8.39081
 43 N    -0.78030   10.29025   -8.52696

System changes: positions 

Initializing position-dependent things.

Density initialized from wave functions
       .-----------------------.  
      /|                       |  
     / |                       |  
    /  |                       |  
   /   |                       |  
  /    |                       |  
 *     |                       |  
 |     |                       |  
 |     |                       |  
 |     |                       |  
 |     |                       |  
 |     |                       |  
 |     |                       |  
 |     |                       |  
 |    H|       Li      Li      |  
 |O   CH                 H     |  
 |   LH|     Li      Li    N   |  
 |     |  Li      Li      Ni   |  
 |     |   Li      Li      Li  |  
 |     |Li      Li      Li     |  
 |     |                 Li    |  
 |   LLi     LLi     LLi       |  
 |     |  Li      Li      Li   |  
 | Li  |   Li      Li          |  
 |     |Li      Li      Li     |  
 Li    | Li      Li            |  
 |    Li      Li      Li       |  
 |     |                       |  
 |     |                       |  
 |     |                       |  
 |     |                       |  
 |     |                       |  
 |     |                       |  
 |     .-----------------------.  
 |    /                       /   
 |   /                       /    
 |  /                       /     
 | /                       /      
 |/                       /       
 *-----------------------*        

Positions:
   0 Li     1.617037    1.617037   10.000000    ( 0.0000,  0.0000,  0.0000)
   1 Li     4.851111    1.617037   10.000000    ( 0.0000,  0.0000,  0.0000)
   2 Li     8.085185    1.617037   10.000000    ( 0.0000,  0.0000,  0.0000)
   3 Li     1.617037    4.851111   10.000000    ( 0.0000,  0.0000,  0.0000)
   4 Li     4.851111    4.851111   10.000000    ( 0.0000,  0.0000,  0.0000)
   5 Li     8.085185    4.851111   10.000000    ( 0.0000,  0.0000,  0.0000)
   6 Li     1.617037    8.085185   10.000000    ( 0.0000,  0.0000,  0.0000)
   7 Li     4.851111    8.085185   10.000000    ( 0.0000,  0.0000,  0.0000)
   8 Li     8.085185    8.085185   10.000000    ( 0.0000,  0.0000,  0.0000)
   9 Li     0.000000    0.000000   11.617037    ( 0.0000,  0.0000,  0.0000)
  10 Li     3.234074    0.000000   11.617037    ( 0.0000,  0.0000,  0.0000)
  11 Li     6.468148    0.000000   11.617037    ( 0.0000,  0.0000,  0.0000)
  12 Li     0.000000    3.234074   11.617037    ( 0.0000,  0.0000,  0.0000)
  13 Li     3.234074    3.234074   11.617037    ( 0.0000,  0.0000,  0.0000)
  14 Li     6.468148    3.234074   11.617037    ( 0.0000,  0.0000,  0.0000)
  15 Li     0.000000    6.468148   11.617037    ( 0.0000,  0.0000,  0.0000)
  16 Li     3.234074    6.468148   11.617037    ( 0.0000,  0.0000,  0.0000)
  17 Li     6.468148    6.468148   11.617037    ( 0.0000,  0.0000,  0.0000)
  18 Li     1.617262    1.617010   13.469188    ( 0.0000,  0.0000,  0.0000)
  19 Li     4.851102    1.617068   13.470214    ( 0.0000,  0.0000,  0.0000)
  20 Li     8.084964    1.616993   13.469055    ( 0.0000,  0.0000,  0.0000)
  21 Li     1.617096    4.851062   13.469695    ( 0.0000,  0.0000,  0.0000)
  22 Li     4.851137    4.851177   13.470020    ( 0.0000,  0.0000,  0.0000)
  23 Li     8.085111    4.851079   13.469666    ( 0.0000,  0.0000,  0.0000)
  24 Li     1.616949    8.085297   13.470196    ( 0.0000,  0.0000,  0.0000)
  25 Li     4.851106    8.085084   13.469796    ( 0.0000,  0.0000,  0.0000)
  26 Li     8.085285    8.085291   13.470161    ( 0.0000,  0.0000,  0.0000)
  27 Li    -0.000225    0.000396   15.447165    ( 0.0000,  0.0000,  0.0000)
  28 Li     3.234881   -0.000515   15.445020    ( 0.0000,  0.0000,  0.0000)
  29 Li     6.467663   -0.000336   15.445679    ( 0.0000,  0.0000,  0.0000)
  30 Li    -0.000024    3.239383   15.436840    ( 0.0000,  0.0000,  0.0000)
  31 Li     3.234705    3.234368   15.445266    ( 0.0000,  0.0000,  0.0000)
  32 Li     6.467723    3.234267   15.445817    ( 0.0000,  0.0000,  0.0000)
  33 Li     0.000013    6.468484   15.445855    ( 0.0000,  0.0000,  0.0000)
  34 Li     3.234036    6.468247   15.445842    ( 0.0000,  0.0000,  0.0000)
  35 Li     6.468169    6.468227   15.445827    ( 0.0000,  0.0000,  0.0000)
  36 O      0.006634    1.588416   18.513845    ( 0.0000,  0.0000,  0.0000)
  37 C      1.454700    1.599926   18.469745    ( 0.0000,  0.0000,  0.0000)
  38 H      1.832645    0.851766   17.765316    ( 0.0000,  0.0000,  0.0000)
  39 H      1.833406    1.422391   19.456424    ( 0.0000,  0.0000,  0.0000)
  40 H      1.748728    2.586744   18.120227    ( 0.0000,  0.0000,  0.0000)
  41 H     -0.316019    0.733832   18.749691    ( 0.0000,  0.0000,  0.0000)
  42 N     -0.020253    1.619968   17.149455    ( 0.0000,  0.0000,  0.0000)
  43 N     -0.004856    2.757415   17.147791    ( 0.0000,  0.0000,  0.0000)

Unit cell:
           periodic     x           y           z      points  spacing
  1. axis:    yes    9.702222    0.000000    0.000000    60     0.1617
  2. axis:    yes    0.000000    9.702222    0.000000    60     0.1617
  3. axis:    no     0.000000    0.000000   26.601111   168     0.1583

  Lengths:   9.702222   9.702222  26.601111
  Angles:   90.000000  90.000000  90.000000

Effective grid spacing dv^(1/3) = 0.1606

     iter     time        total  log10-change:
                         energy  eigst   dens
iter:   1 11:41:30  -275.622515  -0.43
iter:   2 11:41:37  -275.588965  -0.75  -1.61
iter:   3 11:41:44  -275.577470  -1.17  -1.77
iter:   4 11:41:51  -275.569090c -1.24  -2.10
Writing to output.gpw (mode='')

iter:   5 11:41:59  -275.561024c -1.45  -2.21
iter:   6 11:42:06  -275.552834c -1.63  -2.16
iter:   7 11:42:13  -275.546889c -1.76  -2.24
iter:   8 11:42:20  -275.547267c -2.28  -2.56
iter:   9 11:42:27  -275.547483c -2.34  -2.69
Writing to output.gpw (mode='')

iter:  10 11:42:34  -275.548016c -2.40  -2.85
iter:  11 11:42:41  -275.548125c -2.56  -2.89
iter:  12 11:42:48  -275.547792c -2.98  -3.01
iter:  13 11:42:55  -275.547837c -3.40  -3.11
iter:  14 11:43:02  -275.547823c -3.45  -3.21
Writing to output.gpw (mode='')

iter:  15 11:43:09  -275.547899c -3.41  -3.33
iter:  16 11:43:16  -275.547942c -3.79  -3.27
iter:  17 11:43:23  -275.547968c -4.06  -3.38
iter:  18 11:43:30  -275.547992c -3.82  -3.53
iter:  19 11:43:38  -275.547987c -4.21  -3.65
Writing to output.gpw (mode='')

iter:  20 11:43:45  -275.547981c -4.49  -3.77
iter:  21 11:43:52  -275.548000c -4.39  -3.83
iter:  22 11:43:59  -275.547988c -4.57  -3.87
iter:  23 11:44:06  -275.547987c -4.84  -3.99
iter:  24 11:44:13  -275.547991c -5.20  -4.08c
Writing to output.gpw (mode='')

iter:  25 11:44:20  -275.548002c -5.04  -4.12c
iter:  26 11:44:27  -275.547990c -5.18  -4.17c
iter:  27 11:44:34  -275.547994c -5.46  -4.22c
iter:  28 11:44:41  -275.547998c -5.37  -4.32c
iter:  29 11:44:48  -275.548001c -5.42  -4.46c
Writing to output.gpw (mode='')

iter:  30 11:44:55  -275.548000c -5.76  -4.44c
iter:  31 11:45:02  -275.548001c -5.76  -4.48c
iter:  32 11:45:10  -275.548002c -5.80  -4.55c
iter:  33 11:45:17  -275.548003c -5.98  -4.62c
iter:  34 11:45:24  -275.548003c -6.28  -4.60c
Writing to output.gpw (mode='')

iter:  35 11:45:31  -275.548002c -6.24  -4.69c
iter:  36 11:45:38  -275.548003c -6.35  -4.69c
iter:  37 11:45:45  -275.548003c -6.42  -4.69c
iter:  38 11:45:52  -275.548004c -6.50  -4.75c
iter:  39 11:46:01  -275.548004c -6.79  -4.86c
Writing to output.gpw (mode='')

iter:  40 11:46:11  -275.548004c -6.99  -4.94c
iter:  41 11:46:19  -275.548004c -6.98  -5.15c
iter:  42 11:46:26  -275.548004c -6.94  -5.21c
iter:  43 11:46:33  -275.548004c -7.15  -5.23c
iter:  44 11:46:40  -275.548004c -7.13  -5.49c
Writing to output.gpw (mode='')

iter:  45 11:46:47  -275.548004c -7.20  -5.58c
iter:  46 11:46:54  -275.548004c -7.15  -5.64c
iter:  47 11:47:01  -275.548004c -7.42c -5.64c

Converged after 47 iterations.

Dipole moment: (-11.265251, -5.126654, 0.455200) |e|*Ang

Energy contributions relative to reference atoms: (reference = -13382.245603)

Kinetic:       +170.243901
Potential:     -149.740204
External:        +0.000000
XC:            -296.646947
Entropy (-ST):   -0.152949
Local:           +0.671721
--------------------------
Free energy:   -275.624479
Extrapolated:  -275.548004

Dipole-layer corrected work functions: 3.369714, 2.494662 eV

Showing only first 2 kpts
 Kpt  Band  Eigenvalues  Occupancy
  0    28     -3.18416    1.98713
  0    29     -3.07712    1.89557
  0    30     -2.78752    0.10496
  0    31     -2.70194    0.01981

  1    28     -2.97900    1.43670
  1    29     -2.96619    1.32750
  1    30     -2.87301    0.46880
  1    31     -2.84912    0.31917


Fermi level: -2.93219

Gap: 0.025 eV
Transition (v -> c):
  (s=0, k=7, n=29, [0.38, 0.38, 0.00]) -> (s=0, k=7, n=30, [0.38, 0.38, 0.00])
Writing to output.gpw (mode='')


Forces in eV/Ang:
  0 Li    0.02001   -0.00216   -0.27632
  1 Li   -0.00279    0.00383   -0.26828
  2 Li   -0.01705   -0.00388   -0.27522
  3 Li    0.00254    0.01327   -0.27523
  4 Li   -0.00137   -0.00916   -0.26618
  5 Li   -0.00166    0.01543   -0.27261
  6 Li   -0.00692   -0.00973   -0.26660
  7 Li   -0.00047    0.00278   -0.27870
  8 Li    0.00627   -0.01111   -0.26580
  9 Li    0.00165   -0.00236    0.29098
 10 Li    0.00678   -0.00229    0.26389
 11 Li   -0.00814   -0.00624    0.26637
 12 Li   -0.00150   -0.00449    0.33129
 13 Li    0.02141    0.00164    0.25247
 14 Li   -0.02130   -0.00040    0.26087
 15 Li   -0.00086    0.00302    0.24921
 16 Li   -0.00449    0.00311    0.25981
 17 Li    0.00647    0.00956    0.26007
 18 Li    0.03700   -0.00480   -0.08319
 19 Li   -0.00128    0.00417    0.07565
 20 Li   -0.03609   -0.00777   -0.10383
 21 Li    0.00842   -0.00867   -0.00179
 22 Li    0.00457    0.01147    0.04587
 23 Li   -0.01140   -0.00469   -0.00781
 24 Li   -0.01402    0.01916    0.07535
 25 Li   -0.00103   -0.01583    0.00905
 26 Li    0.01622    0.01754    0.06970
 27 Li   -0.03638    0.04520    0.16144
 28 Li    0.12413   -0.07955   -0.14435
 29 Li   -0.07647   -0.05278   -0.04211
 30 Li    0.00261    0.88377   -1.59848
 31 Li    0.11215    0.04787   -0.11599
 32 Li   -0.07828    0.02968   -0.02949
 33 Li    0.00242    0.05790   -0.01519
 34 Li   -0.00900    0.01419   -0.01364
 35 Li    0.00591    0.01338   -0.01675
 36 O     1.11425   -4.14664   10.48412
 37 C     3.18589   -0.37932    2.42092
 38 H    -0.19306   -0.04128    0.17045
 39 H     0.18948   -0.21480    0.68817
 40 H    -0.05782   -0.13557    0.32351
 41 H    -0.55343   -2.87362    1.77830
 42 N    -2.98976   -2.01630   -7.14286
 43 N    -0.75123    8.78471   -6.98971

System changes: positions 

Initializing position-dependent things.

Density initialized from wave functions
       .-----------------------.  
      /|                       |  
     / |                       |  
    /  |                       |  
   /   |                       |  
  /    |                       |  
 *     |                       |  
 |     |                       |  
 |     |                       |  
 |     |                       |  
 |     |                       |  
 |     |                       |  
 |     |                       |  
 |     |                       |  
 |    H|       Li      Li      |  
 |O   CH                 H     |  
 |   LH|     Li      Li    N   |  
 |     |  Li      Li      Ni   |  
 | Li  |   Li      Li          |  
 |     |Li      Li      Li     |  
 |     |                 Li    |  
 |   LLi     LLi     LLi       |  
 |     |  Li      Li      Li   |  
 | Li  |   Li      Li          |  
 |     |Li      Li      Li     |  
 Li    | Li      Li            |  
 |    Li      Li      Li       |  
 |     |                       |  
 |     |                       |  
 |     |                       |  
 |     |                       |  
 |     |                       |  
 |     |                       |  
 |     .-----------------------.  
 |    /                       /   
 |   /                       /    
 |  /                       /     
 | /                       /      
 |/                       /       
 *-----------------------*        

Positions:
   0 Li     1.617037    1.617037   10.000000    ( 0.0000,  0.0000,  0.0000)
   1 Li     4.851111    1.617037   10.000000    ( 0.0000,  0.0000,  0.0000)
   2 Li     8.085185    1.617037   10.000000    ( 0.0000,  0.0000,  0.0000)
   3 Li     1.617037    4.851111   10.000000    ( 0.0000,  0.0000,  0.0000)
   4 Li     4.851111    4.851111   10.000000    ( 0.0000,  0.0000,  0.0000)
   5 Li     8.085185    4.851111   10.000000    ( 0.0000,  0.0000,  0.0000)
   6 Li     1.617037    8.085185   10.000000    ( 0.0000,  0.0000,  0.0000)
   7 Li     4.851111    8.085185   10.000000    ( 0.0000,  0.0000,  0.0000)
   8 Li     8.085185    8.085185   10.000000    ( 0.0000,  0.0000,  0.0000)
   9 Li     0.000000    0.000000   11.617037    ( 0.0000,  0.0000,  0.0000)
  10 Li     3.234074    0.000000   11.617037    ( 0.0000,  0.0000,  0.0000)
  11 Li     6.468148    0.000000   11.617037    ( 0.0000,  0.0000,  0.0000)
  12 Li     0.000000    3.234074   11.617037    ( 0.0000,  0.0000,  0.0000)
  13 Li     3.234074    3.234074   11.617037    ( 0.0000,  0.0000,  0.0000)
  14 Li     6.468148    3.234074   11.617037    ( 0.0000,  0.0000,  0.0000)
  15 Li     0.000000    6.468148   11.617037    ( 0.0000,  0.0000,  0.0000)
  16 Li     3.234074    6.468148   11.617037    ( 0.0000,  0.0000,  0.0000)
  17 Li     6.468148    6.468148   11.617037    ( 0.0000,  0.0000,  0.0000)
  18 Li     1.617532    1.616970   13.468553    ( 0.0000,  0.0000,  0.0000)
  19 Li     4.851095    1.617100   13.470765    ( 0.0000,  0.0000,  0.0000)
  20 Li     8.084703    1.616925   13.468257    ( 0.0000,  0.0000,  0.0000)
  21 Li     1.617171    4.851003   13.469656    ( 0.0000,  0.0000,  0.0000)
  22 Li     4.851180    4.851256   13.470352    ( 0.0000,  0.0000,  0.0000)
  23 Li     8.085006    4.851064   13.469572    ( 0.0000,  0.0000,  0.0000)
  24 Li     1.616845    8.085440   13.470747    ( 0.0000,  0.0000,  0.0000)
  25 Li     4.851092    8.084969   13.469854    ( 0.0000,  0.0000,  0.0000)
  26 Li     8.085412    8.085420   13.470670    ( 0.0000,  0.0000,  0.0000)
  27 Li    -0.000517    0.000782   15.448305    ( 0.0000,  0.0000,  0.0000)
  28 Li     3.235737   -0.001082   15.444042    ( 0.0000,  0.0000,  0.0000)
  29 Li     6.467109   -0.000748   15.445380    ( 0.0000,  0.0000,  0.0000)
  30 Li     0.000047    3.246253   15.422847    ( 0.0000,  0.0000,  0.0000)
  31 Li     3.235525    3.234731   15.444454    ( 0.0000,  0.0000,  0.0000)
  32 Li     6.467165    3.234490   15.445620    ( 0.0000,  0.0000,  0.0000)
  33 Li     0.000026    6.468919   15.445763    ( 0.0000,  0.0000,  0.0000)
  34 Li     3.233960    6.468344   15.445747    ( 0.0000,  0.0000,  0.0000)
  35 Li     6.468226    6.468331   15.445719    ( 0.0000,  0.0000,  0.0000)
  36 O      0.017348    1.576478   18.550487    ( 0.0000,  0.0000,  0.0000)
  37 C      1.463608    1.596693   18.477861    ( 0.0000,  0.0000,  0.0000)
  38 H      1.832213    0.851450   17.767195    ( 0.0000,  0.0000,  0.0000)
  39 H      1.838554    1.420443   19.465123    ( 0.0000,  0.0000,  0.0000)
  40 H      1.748536    2.585973   18.123113    ( 0.0000,  0.0000,  0.0000)
  41 H     -0.318902    0.715787   18.760226    ( 0.0000,  0.0000,  0.0000)
  42 N     -0.036852    1.637179   17.121299    ( 0.0000,  0.0000,  0.0000)
  43 N     -0.009827    2.768493   17.121833    ( 0.0000,  0.0000,  0.0000)

Unit cell:
           periodic     x           y           z      points  spacing
  1. axis:    yes    9.702222    0.000000    0.000000    60     0.1617
  2. axis:    yes    0.000000    9.702222    0.000000    60     0.1617
  3. axis:    no     0.000000    0.000000   26.601111   168     0.1583

  Lengths:   9.702222   9.702222  26.601111
  Angles:   90.000000  90.000000  90.000000

Effective grid spacing dv^(1/3) = 0.1606

     iter     time        total  log10-change:
                         energy  eigst   dens
iter:   1 11:47:09  -276.610438  -0.43
iter:   2 11:47:16  -276.608948  -0.88  -1.80
iter:   3 11:47:23  -276.607439c -1.20  -1.96
iter:   4 11:47:30  -276.611960c -1.36  -2.19
Writing to output.gpw (mode='')

iter:   5 11:47:38  -276.585882c -1.35  -2.19
iter:   6 11:47:45  -276.591572c -1.59  -2.04
iter:   7 11:47:52  -276.614039c -1.16  -2.18
iter:   8 11:47:59  -276.627510  -1.25  -2.24
iter:   9 11:48:06  -276.594017  -1.59  -2.14
Writing to output.gpw (mode='')

iter:  10 11:48:13  -276.599039  -1.53  -2.01
iter:  11 11:48:20  -276.589173c -1.80  -2.08
iter:  12 11:48:27  -276.577819c -1.64  -2.15
iter:  13 11:48:35  -276.577664c -2.29  -2.36
iter:  14 11:48:42  -276.577930c -2.14  -2.54
Writing to output.gpw (mode='')

iter:  15 11:48:49  -276.577431c -2.33  -2.59
iter:  16 11:48:56  -276.577358c -2.90  -2.66
iter:  17 11:49:03  -276.577420c -2.89  -2.94
iter:  18 11:49:10  -276.577451c -3.35  -2.95
iter:  19 11:49:17  -276.577438c -3.42  -3.02
Writing to output.gpw (mode='')

iter:  20 11:49:24  -276.577470c -3.68  -3.13
iter:  21 11:49:31  -276.577452c -3.92  -3.20
iter:  22 11:49:38  -276.577428c -4.00  -3.33
iter:  23 11:49:45  -276.577420c -3.91  -3.59
iter:  24 11:49:53  -276.577432c -4.40  -3.71
Writing to output.gpw (mode='')

iter:  25 11:50:00  -276.577435c -4.46  -3.72
iter:  26 11:50:07  -276.577444c -4.35  -3.71
iter:  27 11:50:14  -276.577441c -4.91  -3.63
iter:  28 11:50:21  -276.577444c -4.61  -3.67
iter:  29 11:50:28  -276.577439c -5.01  -3.59
Writing to output.gpw (mode='')

iter:  30 11:50:35  -276.577436c -5.09  -3.61
iter:  31 11:50:42  -276.577435c -5.62  -3.84
iter:  32 11:50:50  -276.577433c -5.05  -3.88
iter:  33 11:50:57  -276.577431c -5.34  -4.11c
iter:  34 11:51:09  -276.577434c -5.48  -4.12c
Writing to output.gpw (mode='')

iter:  35 11:51:16  -276.577433c -6.14  -4.15c
iter:  36 11:51:24  -276.577436c -6.00  -4.25c
iter:  37 11:51:31  -276.577434c -6.04  -4.44c
iter:  38 11:51:38  -276.577433c -6.29  -4.51c
iter:  39 11:51:45  -276.577433c -6.55  -4.63c
Writing to output.gpw (mode='')

iter:  40 11:51:52  -276.577434c -6.57  -4.68c
iter:  41 11:51:59  -276.577434c -6.72  -4.76c
iter:  42 11:52:06  -276.577434c -6.84  -4.90c
iter:  43 11:52:13  -276.577434c -6.97  -5.11c
iter:  44 11:52:20  -276.577434c -7.06  -5.17c
Writing to output.gpw (mode='')

iter:  45 11:52:28  -276.577434c -7.01  -5.21c
iter:  46 11:52:35  -276.577434c -7.43c -5.27c

Converged after 46 iterations.

Dipole moment: (-9.891235, -5.069687, 0.440282) |e|*Ang

Energy contributions relative to reference atoms: (reference = -13382.245603)

Kinetic:       +166.772761
Potential:     -147.924270
External:        +0.000000
XC:            -296.024266
Entropy (-ST):   -0.152276
Local:           +0.674478
--------------------------
Free energy:   -276.653573
Extrapolated:  -276.577434

Dipole-layer corrected work functions: 3.370694, 2.524320 eV

Showing only first 2 kpts
 Kpt  Band  Eigenvalues  Occupancy
  0    28     -3.20031    1.98734
  0    29     -3.09383    1.89827
  0    30     -2.80241    0.10412
  0    31     -2.71359    0.01842

  1    28     -2.99602    1.45037
  1    29     -2.98232    1.33474
  1    30     -2.88745    0.46255
  1    31     -2.86625    0.32898


Fermi level: -2.94751

Gap: 0.024 eV
Transition (v -> c):
  (s=0, k=7, n=29, [0.38, 0.38, 0.00]) -> (s=0, k=7, n=30, [0.38, 0.38, 0.00])
Writing to output.gpw (mode='')


Forces in eV/Ang:
  0 Li    0.02075   -0.00192   -0.27654
  1 Li   -0.00281    0.00393   -0.26816
  2 Li   -0.01776   -0.00418   -0.27557
  3 Li    0.00276    0.01371   -0.27581
  4 Li   -0.00186   -0.00986   -0.26597
  5 Li   -0.00129    0.01578   -0.27274
  6 Li   -0.00722   -0.01020   -0.26616
  7 Li   -0.00074    0.00313   -0.27910
  8 Li    0.00657   -0.01124   -0.26569
  9 Li    0.00167   -0.00298    0.29045
 10 Li    0.00755   -0.00206    0.26358
 11 Li   -0.00863   -0.00663    0.26601
 12 Li   -0.00179   -0.00452    0.33367
 13 Li    0.02212    0.00179    0.25101
 14 Li   -0.02211   -0.00061    0.26116
 15 Li   -0.00064    0.00319    0.24877
 16 Li   -0.00445    0.00278    0.25973
 17 Li    0.00629    0.01055    0.26008
 18 Li    0.03793   -0.00617   -0.08467
 19 Li   -0.00094    0.00413    0.07553
 20 Li   -0.03703   -0.00942   -0.10558
 21 Li    0.01028   -0.00744   -0.00297
 22 Li    0.00525    0.01156    0.04578
 23 Li   -0.01377   -0.00201   -0.01023
 24 Li   -0.01406    0.02009    0.07607
 25 Li   -0.00130   -0.01586    0.00851
 26 Li    0.01657    0.01787    0.06981
 27 Li   -0.03982    0.03976    0.14584
 28 Li    0.11945   -0.07805   -0.13986
 29 Li   -0.07631   -0.05380   -0.04265
 30 Li    0.00897    0.90100   -1.72093
 31 Li    0.11667    0.04966   -0.11786
 32 Li   -0.08202    0.03006   -0.03347
 33 Li    0.00252    0.06045   -0.01564
 34 Li   -0.01062    0.01283   -0.01322
 35 Li    0.00736    0.01314   -0.01607
 36 O     0.94461   -3.57245    9.22696
 37 C     2.51639   -0.41398    2.14076
 38 H    -0.12449   -0.07303    0.16855
 39 H     0.35466   -0.19617    0.63407
 40 H    -0.04529   -0.16953    0.36542
 41 H    -0.28058   -2.24901    1.46148
 42 N    -2.61083   -1.55203   -6.48798
 43 N    -0.79205    7.25063   -5.60271

System changes: positions 

Initializing position-dependent things.

Density initialized from wave functions
       .-----------------------.  
      /|                       |  
     / |                       |  
    /  |                       |  
   /   |                       |  
  /    |                       |  
 *     |                       |  
 |     |                       |  
 |     |                       |  
 |     |                       |  
 |     |                       |  
 |     |                       |  
 |     |                       |  
 |     |                       |  
 |    H|       Li      Li      |  
 |O   CH                 H     |  
 |   LH|     Li      Li    N   |  
 |     |  Li      Li      Ni   |  
 | Li  |   Li      Li          |  
 |     |Li      Li      Li     |  
 |     |                 Li    |  
 |   LLi     LLi     LLi       |  
 |     |  Li      Li      Li   |  
 | Li  |   Li      Li          |  
 |     |Li      Li      Li     |  
 Li    | Li      Li            |  
 |    Li      Li      Li       |  
 |     |                       |  
 |     |                       |  
 |     |                       |  
 |     |                       |  
 |     |                       |  
 |     |                       |  
 |     .-----------------------.  
 |    /                       /   
 |   /                       /    
 |  /                       /     
 | /                       /      
 |/                       /       
 *-----------------------*        

Positions:
   0 Li     1.617037    1.617037   10.000000    ( 0.0000,  0.0000,  0.0000)
   1 Li     4.851111    1.617037   10.000000    ( 0.0000,  0.0000,  0.0000)
   2 Li     8.085185    1.617037   10.000000    ( 0.0000,  0.0000,  0.0000)
   3 Li     1.617037    4.851111   10.000000    ( 0.0000,  0.0000,  0.0000)
   4 Li     4.851111    4.851111   10.000000    ( 0.0000,  0.0000,  0.0000)
   5 Li     8.085185    4.851111   10.000000    ( 0.0000,  0.0000,  0.0000)
   6 Li     1.617037    8.085185   10.000000    ( 0.0000,  0.0000,  0.0000)
   7 Li     4.851111    8.085185   10.000000    ( 0.0000,  0.0000,  0.0000)
   8 Li     8.085185    8.085185   10.000000    ( 0.0000,  0.0000,  0.0000)
   9 Li     0.000000    0.000000   11.617037    ( 0.0000,  0.0000,  0.0000)
  10 Li     3.234074    0.000000   11.617037    ( 0.0000,  0.0000,  0.0000)
  11 Li     6.468148    0.000000   11.617037    ( 0.0000,  0.0000,  0.0000)
  12 Li     0.000000    3.234074   11.617037    ( 0.0000,  0.0000,  0.0000)
  13 Li     3.234074    3.234074   11.617037    ( 0.0000,  0.0000,  0.0000)
  14 Li     6.468148    3.234074   11.617037    ( 0.0000,  0.0000,  0.0000)
  15 Li     0.000000    6.468148   11.617037    ( 0.0000,  0.0000,  0.0000)
  16 Li     3.234074    6.468148   11.617037    ( 0.0000,  0.0000,  0.0000)
  17 Li     6.468148    6.468148   11.617037    ( 0.0000,  0.0000,  0.0000)
  18 Li     1.617861    1.616905   13.467799    ( 0.0000,  0.0000,  0.0000)
  19 Li     4.851090    1.617137   13.471409    ( 0.0000,  0.0000,  0.0000)
  20 Li     8.084384    1.616826   13.467312    ( 0.0000,  0.0000,  0.0000)
  21 Li     1.617281    4.850950   13.469603    ( 0.0000,  0.0000,  0.0000)
  22 Li     4.851238    4.851352   13.470740    ( 0.0000,  0.0000,  0.0000)
  23 Li     8.084857    4.851077   13.469438    ( 0.0000,  0.0000,  0.0000)
  24 Li     1.616724    8.085620   13.471401    ( 0.0000,  0.0000,  0.0000)
  25 Li     4.851074    8.084834   13.469916    ( 0.0000,  0.0000,  0.0000)
  26 Li     8.085562    8.085576   13.471266    ( 0.0000,  0.0000,  0.0000)
  27 Li    -0.000898    0.001139   15.449427    ( 0.0000,  0.0000,  0.0000)
  28 Li     3.236687   -0.001728   15.442938    ( 0.0000,  0.0000,  0.0000)
  29 Li     6.466461   -0.001236   15.445020    ( 0.0000,  0.0000,  0.0000)
  30 Li     0.000205    3.254411   15.405440    ( 0.0000,  0.0000,  0.0000)
  31 Li     3.236549    3.235176   15.443466    ( 0.0000,  0.0000,  0.0000)
  32 Li     6.466454    3.234753   15.445327    ( 0.0000,  0.0000,  0.0000)
  33 Li     0.000044    6.469459   15.445644    ( 0.0000,  0.0000,  0.0000)
  34 Li     3.233851    6.468441   15.445640    ( 0.0000,  0.0000,  0.0000)
  35 Li     6.468309    6.468448   15.445599    ( 0.0000,  0.0000,  0.0000)
  36 O      0.026745    1.565110   18.587669    ( 0.0000,  0.0000,  0.0000)
  37 C      1.468859    1.592558   18.486231    ( 0.0000,  0.0000,  0.0000)
  38 H      1.832383    0.850640   17.769178    ( 0.0000,  0.0000,  0.0000)
  39 H      1.845786    1.418534   19.473467    ( 0.0000,  0.0000,  0.0000)
  40 H      1.748424    2.584532   18.126925    ( 0.0000,  0.0000,  0.0000)
  41 H     -0.318786    0.702578   18.768818    ( 0.0000,  0.0000,  0.0000)
  42 N     -0.052503    1.653908   17.090373    ( 0.0000,  0.0000,  0.0000)
  43 N     -0.016364    2.776126   17.103452    ( 0.0000,  0.0000,  0.0000)

Unit cell:
           periodic     x           y           z      points  spacing
  1. axis:    yes    9.702222    0.000000    0.000000    60     0.1617
  2. axis:    yes    0.000000    9.702222    0.000000    60     0.1617
  3. axis:    no     0.000000    0.000000   26.601111   168     0.1583

  Lengths:   9.702222   9.702222  26.601111
  Angles:   90.000000  90.000000  90.000000

Effective grid spacing dv^(1/3) = 0.1606

     iter     time        total  log10-change:
                         energy  eigst   dens
iter:   1 11:52:43  -277.477808  -0.45
iter:   2 11:52:50  -277.462257  -0.85  -1.72
iter:   3 11:52:57  -277.456597c -1.22  -1.88
iter:   4 11:53:05  -277.461369c -1.38  -2.17
Writing to output.gpw (mode='')

iter:   5 11:53:15  -277.438403c -1.35  -2.17
iter:   6 11:53:22  -277.442662c -1.59  -2.00
iter:   7 11:53:29  -277.454552c -1.32  -2.16
iter:   8 11:53:36  -277.468053c -1.32  -2.23
iter:   9 11:53:43  -277.463911c -1.63  -2.14
Writing to output.gpw (mode='')

iter:  10 11:53:50  -277.434619  -1.45  -1.88
iter:  11 11:53:57  -277.431646  -1.51  -2.11
iter:  12 11:54:04  -277.426102c -1.48  -2.13
iter:  13 11:54:11  -277.425963c -2.00  -2.33
iter:  14 11:54:18  -277.425760c -2.41  -2.56
Writing to output.gpw (mode='')

iter:  15 11:54:25  -277.425612c -2.36  -2.62
iter:  16 11:54:32  -277.425387c -2.98  -2.72
iter:  17 11:54:40  -277.425539c -3.09  -2.91
iter:  18 11:54:47  -277.425391c -3.40  -2.90
iter:  19 11:54:54  -277.425477c -3.21  -2.90
Writing to output.gpw (mode='')

iter:  20 11:55:01  -277.425386c -3.70  -3.16
iter:  21 11:55:08  -277.425247c -3.78  -3.29
iter:  22 11:55:15  -277.425274c -4.01  -3.53
iter:  23 11:55:22  -277.425276c -4.24  -3.64
iter:  24 11:55:29  -277.425280c -4.12  -3.66
Writing to output.gpw (mode='')

iter:  25 11:55:36  -277.425289c -4.54  -3.58
iter:  26 11:55:43  -277.425293c -4.80  -3.83
iter:  27 11:55:50  -277.425297c -4.90  -3.87
iter:  28 11:55:58  -277.425301c -5.17  -4.03c
iter:  29 11:56:11  -277.425299c -5.30  -4.07c
Writing to output.gpw (mode='')

iter:  30 11:56:18  -277.425296c -5.31  -4.12c
iter:  31 11:56:25  -277.425296c -5.66  -4.16c
iter:  32 11:56:32  -277.425295c -5.78  -4.22c
iter:  33 11:56:39  -277.425296c -5.77  -4.39c
iter:  34 11:56:46  -277.425296c -6.10  -4.69c
Writing to output.gpw (mode='')

iter:  35 11:56:53  -277.425297c -6.18  -4.74c
iter:  36 11:57:00  -277.425298c -6.02  -4.79c
iter:  37 11:57:08  -277.425298c -6.26  -4.90c
iter:  38 11:57:15  -277.425298c -6.16  -4.96c
iter:  39 11:57:22  -277.425298c -6.39  -5.13c
Writing to output.gpw (mode='')

iter:  40 11:57:29  -277.425299c -6.45  -5.06c
iter:  41 11:57:36  -277.425298c -6.46  -5.11c
iter:  42 11:57:43  -277.425298c -6.53  -5.15c
iter:  43 11:57:50  -277.425298c -6.76  -5.03c
iter:  44 11:57:57  -277.425298c -6.47  -5.06c
Writing to output.gpw (mode='')

iter:  45 11:58:04  -277.425298c -6.67  -5.14c
iter:  46 11:58:11  -277.425298c -6.75  -5.12c
iter:  47 11:58:20  -277.425298c -7.00  -5.07c
iter:  48 11:58:29  -277.425298c -7.22  -5.11c
iter:  49 11:58:38  -277.425298c -7.16  -5.07c
Writing to output.gpw (mode='')

iter:  50 11:58:46  -277.425298c -7.11  -5.21c
iter:  51 11:58:53  -277.425298c -7.12  -5.29c
iter:  52 11:59:00  -277.425298c -7.27  -5.32c
iter:  53 11:59:07  -277.425298c -7.35  -5.52c
iter:  54 11:59:14  -277.425297c -7.30  -5.66c
Writing to output.gpw (mode='')

iter:  55 11:59:21  -277.425297c -7.42c -5.80c

Converged after 55 iterations.

Dipole moment: (-8.285964, -4.983935, 0.415400) |e|*Ang

Energy contributions relative to reference atoms: (reference = -13382.245603)

Kinetic:       +164.506314
Potential:     -146.902071
External:        +0.000000
XC:            -295.631253
Entropy (-ST):   -0.151573
Local:           +0.677499
--------------------------
Free energy:   -277.501084
Extrapolated:  -277.425297

Dipole-layer corrected work functions: 3.372373, 2.573832 eV

Showing only first 2 kpts
 Kpt  Band  Eigenvalues  Occupancy
  0    28     -3.22691    1.98759
  0    29     -3.12191    1.90296
  0    30     -2.82641    0.10100
  0    31     -2.73641    0.01743

  1    28     -3.02193    1.45284
  1    29     -3.00830    1.33812
  1    30     -2.91309    0.46284
  1    31     -2.89293    0.33501


Fermi level: -2.97310

Gap: 0.023 eV
Transition (v -> c):
  (s=0, k=7, n=29, [0.38, 0.38, 0.00]) -> (s=0, k=7, n=30, [0.38, 0.38, 0.00])

Forces in eV/Ang:
  0 Li    0.02124   -0.00179   -0.27672
  1 Li   -0.00265    0.00387   -0.26794
  2 Li   -0.01841   -0.00446   -0.27593
  3 Li    0.00276    0.01417   -0.27629
  4 Li   -0.00210   -0.01036   -0.26584
  5 Li   -0.00092    0.01612   -0.27300
  6 Li   -0.00750   -0.01063   -0.26563
  7 Li   -0.00085    0.00345   -0.27968
  8 Li    0.00673   -0.01134   -0.26547
  9 Li    0.00168   -0.00378    0.28953
 10 Li    0.00863   -0.00193    0.26312
 11 Li   -0.00938   -0.00696    0.26505
 12 Li   -0.00206   -0.00453    0.33630
 13 Li    0.02252    0.00190    0.25004
 14 Li   -0.02259   -0.00059    0.26113
 15 Li   -0.00037    0.00352    0.24795
 16 Li   -0.00443    0.00263    0.25955
 17 Li    0.00605    0.01122    0.25973
 18 Li    0.03845   -0.00815   -0.08521
 19 Li   -0.00046    0.00416    0.07485
 20 Li   -0.03771   -0.01154   -0.10580
 21 Li    0.01247   -0.00525   -0.00424
 22 Li    0.00579    0.01154    0.04548
 23 Li   -0.01639    0.00129   -0.01261
 24 Li   -0.01388    0.02096    0.07630
 25 Li   -0.00149   -0.01587    0.00808
 26 Li    0.01655    0.01811    0.06965
 27 Li   -0.04264    0.03099    0.12526
 28 Li    0.11371   -0.07584   -0.13467
 29 Li   -0.07543   -0.05388   -0.04368
 30 Li    0.01550    0.88189   -1.73000
 31 Li    0.11988    0.05076   -0.11890
 32 Li   -0.08607    0.03031   -0.03830
 33 Li    0.00268    0.06202   -0.01710
 34 Li   -0.01226    0.01121   -0.01299
 35 Li    0.00877    0.01229   -0.01580
 36 O     0.90496   -2.93672    8.25423
 37 C     1.99642   -0.44606    1.95391
 38 H    -0.08747   -0.08227    0.18216
 39 H     0.48374   -0.17968    0.54978
 40 H    -0.05528   -0.22297    0.40570
 41 H    -0.13615   -1.97540    1.25027
 42 N    -2.34110   -1.47595   -6.00211
 43 N    -0.84403    6.32857   -4.64138

System changes: positions 

Initializing position-dependent things.

Density initialized from wave functions
       .-----------------------.  
      /|                       |  
     / |                       |  
    /  |                       |  
   /   |                       |  
  /    |                       |  
 *     |                       |  
 |     |                       |  
 |     |                       |  
 |     |                       |  
 |     |                       |  
 |     |                       |  
 |     |                       |  
 |     |                       |  
 |    H|       Li      Li      |  
 |O   CH                 H     |  
 |   LH|     Li      Li    N   |  
 |     |  Li      Li      Ni   |  
 | Li  |   Li      Li          |  
 |     |Li      Li      Li     |  
 |     |                 Li    |  
 |   LLi     LLi     LLi       |  
 |     |  Li      Li      Li   |  
 | Li  |   Li      Li          |  
 |     |Li      Li      Li     |  
 Li    | Li      Li            |  
 |    Li      Li      Li       |  
 |     |                       |  
 |     |                       |  
 |     |                       |  
 |     |                       |  
 |     |                       |  
 |     |                       |  
 |     .-----------------------.  
 |    /                       /   
 |   /                       /    
 |  /                       /     
 | /                       /      
 |/                       /       
 *-----------------------*        

Positions:
   0 Li     1.617037    1.617037   10.000000    ( 0.0000,  0.0000,  0.0000)
   1 Li     4.851111    1.617037   10.000000    ( 0.0000,  0.0000,  0.0000)
   2 Li     8.085185    1.617037   10.000000    ( 0.0000,  0.0000,  0.0000)
   3 Li     1.617037    4.851111   10.000000    ( 0.0000,  0.0000,  0.0000)
   4 Li     4.851111    4.851111   10.000000    ( 0.0000,  0.0000,  0.0000)
   5 Li     8.085185    4.851111   10.000000    ( 0.0000,  0.0000,  0.0000)
   6 Li     1.617037    8.085185   10.000000    ( 0.0000,  0.0000,  0.0000)
   7 Li     4.851111    8.085185   10.000000    ( 0.0000,  0.0000,  0.0000)
   8 Li     8.085185    8.085185   10.000000    ( 0.0000,  0.0000,  0.0000)
   9 Li     0.000000    0.000000   11.617037    ( 0.0000,  0.0000,  0.0000)
  10 Li     3.234074    0.000000   11.617037    ( 0.0000,  0.0000,  0.0000)
  11 Li     6.468148    0.000000   11.617037    ( 0.0000,  0.0000,  0.0000)
  12 Li     0.000000    3.234074   11.617037    ( 0.0000,  0.0000,  0.0000)
  13 Li     3.234074    3.234074   11.617037    ( 0.0000,  0.0000,  0.0000)
  14 Li     6.468148    3.234074   11.617037    ( 0.0000,  0.0000,  0.0000)
  15 Li     0.000000    6.468148   11.617037    ( 0.0000,  0.0000,  0.0000)
  16 Li     3.234074    6.468148   11.617037    ( 0.0000,  0.0000,  0.0000)
  17 Li     6.468148    6.468148   11.617037    ( 0.0000,  0.0000,  0.0000)
  18 Li     1.618244    1.616804   13.466930    ( 0.0000,  0.0000,  0.0000)
  19 Li     4.851091    1.617179   13.472139    ( 0.0000,  0.0000,  0.0000)
  20 Li     8.084008    1.616686   13.466231    ( 0.0000,  0.0000,  0.0000)
  21 Li     1.617434    4.850918   13.469528    ( 0.0000,  0.0000,  0.0000)
  22 Li     4.851309    4.851461   13.471182    ( 0.0000,  0.0000,  0.0000)
  23 Li     8.084655    4.851134   13.469260    ( 0.0000,  0.0000,  0.0000)
  24 Li     1.616588    8.085837   13.472155    ( 0.0000,  0.0000,  0.0000)
  25 Li     4.851052    8.084679   13.469984    ( 0.0000,  0.0000,  0.0000)
  26 Li     8.085733    8.085758   13.471949    ( 0.0000,  0.0000,  0.0000)
  27 Li    -0.001367    0.001424   15.450457    ( 0.0000,  0.0000,  0.0000)
  28 Li     3.237712   -0.002444   15.441724    ( 0.0000,  0.0000,  0.0000)
  29 Li     6.465728   -0.001792   15.444591    ( 0.0000,  0.0000,  0.0000)
  30 Li     0.000461    3.263392   15.385954    ( 0.0000,  0.0000,  0.0000)
  31 Li     3.237761    3.235698   15.442315    ( 0.0000,  0.0000,  0.0000)
  32 Li     6.465585    3.235058   15.444926    ( 0.0000,  0.0000,  0.0000)
  33 Li     0.000068    6.470096   15.445483    ( 0.0000,  0.0000,  0.0000)
  34 Li     3.233708    6.468532   15.445518    ( 0.0000,  0.0000,  0.0000)
  35 Li     6.468420    6.468568   15.445460    ( 0.0000,  0.0000,  0.0000)
  36 O      0.036762    1.557106   18.625228    ( 0.0000,  0.0000,  0.0000)
  37 C      1.471085    1.587491   18.495378    ( 0.0000,  0.0000,  0.0000)
  38 H      1.832821    0.849628   17.771544    ( 0.0000,  0.0000,  0.0000)
  39 H      1.855003    1.416628   19.481211    ( 0.0000,  0.0000,  0.0000)
  40 H      1.748074    2.582108   18.131720    ( 0.0000,  0.0000,  0.0000)
  41 H     -0.317218    0.689803   18.776606    ( 0.0000,  0.0000,  0.0000)
  42 N     -0.068126    1.668671   17.056639    ( 0.0000,  0.0000,  0.0000)
  43 N     -0.024665    2.782576   17.089606    ( 0.0000,  0.0000,  0.0000)

Unit cell:
           periodic     x           y           z      points  spacing
  1. axis:    yes    9.702222    0.000000    0.000000    60     0.1617
  2. axis:    yes    0.000000    9.702222    0.000000    60     0.1617
  3. axis:    no     0.000000    0.000000   26.601111   168     0.1583

  Lengths:   9.702222   9.702222  26.601111
  Angles:   90.000000  90.000000  90.000000

Effective grid spacing dv^(1/3) = 0.1606

     iter     time        total  log10-change:
                         energy  eigst   dens
iter:   1 11:59:30  -278.216767  -0.50
iter:   2 11:59:37  -278.204465  -0.89  -1.76
iter:   3 11:59:44  -278.199765c -1.26  -1.91
iter:   4 11:59:51  -278.208718c -1.41  -2.19
Writing to output.gpw (mode='')

iter:   5 11:59:58  -278.177359  -1.51  -2.16
iter:   6 12:00:05  -278.184191  -1.93  -2.20
iter:   7 12:00:12  -278.175775c -2.11  -2.31
iter:   8 12:00:20  -278.170481c -1.91  -2.40
iter:   9 12:00:27  -278.172419c -2.28  -2.49
Writing to output.gpw (mode='')

iter:  10 12:00:34  -278.174567c -2.21  -2.58
iter:  11 12:00:41  -278.173600c -2.89  -2.43
iter:  12 12:00:48  -278.171838c -2.73  -2.43
iter:  13 12:00:55  -278.171320c -2.56  -2.53
iter:  14 12:01:07  -278.170688c -2.60  -2.65
Writing to output.gpw (mode='')

iter:  15 12:01:16  -278.170642c -2.89  -2.84
iter:  16 12:01:23  -278.170597c -3.30  -2.86
iter:  17 12:01:30  -278.170541c -3.33  -2.97
iter:  18 12:01:37  -278.170595c -3.83  -3.18
iter:  19 12:01:44  -278.170610c -3.77  -3.22
Writing to output.gpw (mode='')

iter:  20 12:01:51  -278.170595c -3.79  -3.26
iter:  21 12:01:59  -278.170605c -4.19  -3.37
iter:  22 12:02:06  -278.170582c -4.14  -3.55
iter:  23 12:02:13  -278.170599c -4.43  -3.69
iter:  24 12:02:20  -278.170599c -4.51  -3.79
Writing to output.gpw (mode='')

iter:  25 12:02:27  -278.170604c -4.71  -3.86
iter:  26 12:02:34  -278.170608c -4.65  -3.92
iter:  27 12:02:41  -278.170616c -4.75  -4.04c
iter:  28 12:02:48  -278.170613c -5.13  -4.09c
iter:  29 12:02:55  -278.170613c -5.06  -4.25c
Writing to output.gpw (mode='')

iter:  30 12:03:03  -278.170613c -5.23  -4.31c
iter:  31 12:03:10  -278.170615c -5.35  -4.46c
iter:  32 12:03:17  -278.170615c -5.29  -4.51c
iter:  33 12:03:24  -278.170616c -5.65  -4.54c
iter:  34 12:03:31  -278.170616c -5.70  -4.59c
Writing to output.gpw (mode='')

iter:  35 12:03:38  -278.170616c -5.75  -4.58c
iter:  36 12:03:45  -278.170614c -5.91  -4.58c
iter:  37 12:03:53  -278.170618c -5.98  -4.43c
iter:  38 12:04:00  -278.170618c -6.01  -4.65c
iter:  39 12:04:07  -278.170619c -6.05  -4.78c
Writing to output.gpw (mode='')

iter:  40 12:04:14  -278.170620c -6.32  -4.87c
iter:  41 12:04:21  -278.170620c -6.34  -5.09c
iter:  42 12:04:28  -278.170620c -6.30  -5.18c
iter:  43 12:04:35  -278.170620c -6.37  -5.21c
iter:  44 12:04:43  -278.170620c -6.41  -5.32c
Writing to output.gpw (mode='')

iter:  45 12:04:50  -278.170620c -6.66  -5.38c
iter:  46 12:04:57  -278.170621c -6.69  -5.60c
iter:  47 12:05:04  -278.170621c -6.71  -5.70c
iter:  48 12:05:11  -278.170621c -6.72  -5.72c
iter:  49 12:05:18  -278.170621c -6.78  -5.73c
Writing to output.gpw (mode='')

iter:  50 12:05:25  -278.170621c -7.01  -5.72c
iter:  51 12:05:32  -278.170621c -6.99  -5.68c
iter:  52 12:05:40  -278.170621c -7.00  -5.66c
iter:  53 12:05:47  -278.170621c -7.12  -5.60c
iter:  54 12:05:54  -278.170621c -7.10  -5.73c
Writing to output.gpw (mode='')

iter:  55 12:06:06  -278.170621c -7.07  -5.75c
iter:  56 12:06:15  -278.170621c -7.34  -5.80c
iter:  57 12:06:22  -278.170622c -7.45c -5.80c

Converged after 57 iterations.

Dipole moment: (-6.517858, -4.880838, 0.379745) |e|*Ang

Energy contributions relative to reference atoms: (reference = -13382.245603)

Kinetic:       +162.339448
Potential:     -145.836780
External:        +0.000000
XC:            -295.277518
Entropy (-ST):   -0.150970
Local:           +0.679714
--------------------------
Free energy:   -278.246107
Extrapolated:  -278.170622

Dipole-layer corrected work functions: 3.374723, 2.644723 eV

Showing only first 2 kpts
 Kpt  Band  Eigenvalues  Occupancy
  0    28     -3.26462    1.98785
  0    29     -3.16175    1.90874
  0    30     -2.86109    0.09735
  0    31     -2.77122    0.01682

  1    28     -3.05824    1.45034
  1    29     -3.04485    1.33750
  1    30     -2.95044    0.46808
  1    31     -2.92933    0.33376


Fermi level: -3.00972

No gap
Writing to output.gpw (mode='')


Forces in eV/Ang:
  0 Li    0.02154   -0.00177   -0.27694
  1 Li   -0.00235    0.00368   -0.26768
  2 Li   -0.01900   -0.00474   -0.27637
  3 Li    0.00262    0.01471   -0.27678
  4 Li   -0.00220   -0.01069   -0.26568
  5 Li   -0.00052    0.01648   -0.27341
  6 Li   -0.00775   -0.01107   -0.26505
  7 Li   -0.00089    0.00382   -0.28045
  8 Li    0.00684   -0.01141   -0.26519
  9 Li    0.00165   -0.00481    0.28834
 10 Li    0.00994   -0.00188    0.26254
 11 Li   -0.01033   -0.00722    0.26378
 12 Li   -0.00234   -0.00442    0.33915
 13 Li    0.02261    0.00199    0.24956
 14 Li   -0.02274   -0.00047    0.26101
 15 Li   -0.00007    0.00401    0.24702
 16 Li   -0.00426    0.00264    0.25912
 17 Li    0.00562    0.01167    0.25910
 18 Li    0.03832   -0.01056   -0.08506
 19 Li    0.00007    0.00428    0.07373
 20 Li   -0.03784   -0.01398   -0.10493
 21 Li    0.01512   -0.00207   -0.00612
 22 Li    0.00624    0.01127    0.04510
 23 Li   -0.01937    0.00532   -0.01557
 24 Li   -0.01350    0.02165    0.07584
 25 Li   -0.00162   -0.01586    0.00783
 26 Li    0.01622    0.01817    0.06895
 27 Li   -0.04528    0.02276    0.10620
 28 Li    0.10723   -0.07321   -0.12856
 29 Li   -0.07398   -0.05340   -0.04469
 30 Li    0.02245    0.84160   -1.67463
 31 Li    0.12087    0.05114   -0.11796
 32 Li   -0.08899    0.03035   -0.04256
 33 Li    0.00287    0.06214   -0.01884
 34 Li   -0.01371    0.00943   -0.01304
 35 Li    0.00990    0.01110   -0.01582
 36 O     0.74158   -2.53563    7.36650
 37 C     1.65424   -0.41319    1.77219
 38 H    -0.08039   -0.08083    0.20704
 39 H     0.59542   -0.16924    0.46743
 40 H    -0.07153   -0.28303    0.43974
 41 H     0.01854   -1.62662    1.04508
 42 N    -2.10835   -1.51650   -5.51812
 43 N    -0.80262    5.68725   -3.84241

System changes: positions 

Initializing position-dependent things.

Density initialized from wave functions
       .-----------------------.  
      /|                       |  
     / |                       |  
    /  |                       |  
   /   |                       |  
  /    |                       |  
 *     |                       |  
 |     |                       |  
 |     |                       |  
 |     |                       |  
 |     |                       |  
 |     |                       |  
 |     |                       |  
 |     |                       |  
 |    H|       Li      Li      |  
 |O   CH                 H     |  
 |   LH|     Li      Li    N   |  
 |     |  Li      Li      Ni   |  
 | Li  |   Li      Li          |  
 |     |Li      Li      Li     |  
 |     |                 Li    |  
 |   LLi     LLi     LLi       |  
 |     |  Li      Li      Li   |  
 | Li  |   Li      Li          |  
 |     |Li      Li      Li     |  
 Li    | Li      Li            |  
 |    Li      Li      Li       |  
 |     |                       |  
 |     |                       |  
 |     |                       |  
 |     |                       |  
 |     |                       |  
 |     |                       |  
 |     .-----------------------.  
 |    /                       /   
 |   /                       /    
 |  /                       /     
 | /                       /      
 |/                       /       
 *-----------------------*        

Positions:
   0 Li     1.617037    1.617037   10.000000    ( 0.0000,  0.0000,  0.0000)
   1 Li     4.851111    1.617037   10.000000    ( 0.0000,  0.0000,  0.0000)
   2 Li     8.085185    1.617037   10.000000    ( 0.0000,  0.0000,  0.0000)
   3 Li     1.617037    4.851111   10.000000    ( 0.0000,  0.0000,  0.0000)
   4 Li     4.851111    4.851111   10.000000    ( 0.0000,  0.0000,  0.0000)
   5 Li     8.085185    4.851111   10.000000    ( 0.0000,  0.0000,  0.0000)
   6 Li     1.617037    8.085185   10.000000    ( 0.0000,  0.0000,  0.0000)
   7 Li     4.851111    8.085185   10.000000    ( 0.0000,  0.0000,  0.0000)
   8 Li     8.085185    8.085185   10.000000    ( 0.0000,  0.0000,  0.0000)
   9 Li     0.000000    0.000000   11.617037    ( 0.0000,  0.0000,  0.0000)
  10 Li     3.234074    0.000000   11.617037    ( 0.0000,  0.0000,  0.0000)
  11 Li     6.468148    0.000000   11.617037    ( 0.0000,  0.0000,  0.0000)
  12 Li     0.000000    3.234074   11.617037    ( 0.0000,  0.0000,  0.0000)
[...]
iter:  11 21:41:25  -284.342427c -4.63  -3.67
iter:  12 21:41:32  -284.342462c -4.90  -3.64
iter:  13 21:41:39  -284.342458c -5.46  -3.84
iter:  14 21:41:46  -284.342448c -5.01  -3.87
Writing to output.gpw (mode='')

iter:  15 21:41:53  -284.342468c -5.05  -3.81
iter:  16 21:42:01  -284.342465c -5.78  -4.16c
iter:  17 21:42:08  -284.342453c -5.84  -4.23c
iter:  18 21:42:15  -284.342454c -6.22  -4.26c
iter:  19 21:42:22  -284.342455c -6.04  -4.44c
Writing to output.gpw (mode='')

iter:  20 21:42:29  -284.342455c -6.47  -4.61c
iter:  21 21:42:36  -284.342457c -6.62  -4.63c
iter:  22 21:42:43  -284.342459c -6.40  -4.68c
iter:  23 21:42:51  -284.342458c -6.91  -4.81c
iter:  24 21:42:58  -284.342457c -6.99  -4.82c
Writing to output.gpw (mode='')

iter:  25 21:43:05  -284.342456c -7.07  -4.99c
iter:  26 21:43:12  -284.342456c -7.36  -5.10c
iter:  27 21:43:19  -284.342456c -7.44c -5.16c

Converged after 27 iterations.

Dipole moment: (-2.876305, -4.969868, -0.221475) |e|*Ang

Energy contributions relative to reference atoms: (reference = -13382.245603)

Kinetic:       +129.003290
Potential:     -120.493682
External:        +0.000000
XC:            -293.500103
Entropy (-ST):   -0.161543
Local:           +0.728811
--------------------------
Free energy:   -284.423227
Extrapolated:  -284.342456

Dipole-layer corrected work functions: 3.403492, 3.829244 eV

Showing only first 2 kpts
 Kpt  Band  Eigenvalues  Occupancy
  0    28     -3.80640    1.95626
  0    29     -3.63758    1.20900
  0    30     -3.60396    0.87659
  0    31     -3.50586    0.19768

  1    28     -3.92992    1.99623
  1    29     -3.56830    0.55320
  1    30     -3.50708    0.20208
  1    31     -3.49658    0.16700


Fermi level: -3.61637

No gap
Writing to output.gpw (mode='')


Forces in eV/Ang:
  0 Li   -0.00657   -0.01060   -0.29568
  1 Li    0.00391    0.01033   -0.29502
  2 Li   -0.00076   -0.00040   -0.25785
  3 Li    0.01346    0.01364   -0.28700
  4 Li   -0.00897    0.00538   -0.29381
  5 Li   -0.01057   -0.00568   -0.29500
  6 Li    0.00578   -0.00971   -0.29225
  7 Li   -0.01512   -0.01545   -0.28268
  8 Li    0.00964    0.00359   -0.29575
  9 Li   -0.03481    0.03800    0.34382
 10 Li    0.02242    0.01830    0.28903
 11 Li    0.05129    0.05000    0.29182
 12 Li   -0.04160   -0.03336    0.28477
 13 Li   -0.00446   -0.00553    0.29845
 14 Li    0.04736   -0.03227    0.34486
 15 Li   -0.01168   -0.00849    0.29069
 16 Li    0.00723    0.00304    0.29475
 17 Li    0.01781    0.01371    0.28434
 18 Li   -0.00501   -0.00554    0.00141
 19 Li    0.01105    0.00417    0.00690
 20 Li   -0.01209    0.00014   -0.00372
 21 Li    0.00554    0.00676   -0.00631
 22 Li    0.00037   -0.00099    0.00031
 23 Li   -0.00821    0.00333   -0.01176
 24 Li   -0.01010    0.00242    0.00118
 25 Li   -0.00635   -0.00740   -0.00950
 26 Li    0.00395    0.01634    0.01135
 27 Li   -0.01584    0.00570   -0.01879
 28 Li    0.00630   -0.00281   -0.01311
 29 Li    0.00807    0.00919    0.01576
 30 Li   -0.00687   -0.02012    0.01094
 31 Li    0.00216    0.00014   -0.00546
 32 Li   -0.00341   -0.00621   -0.00495
 33 Li   -0.00486   -0.00633   -0.00531
 34 Li    0.00908    0.00679   -0.00197
 35 Li    0.00138   -0.00787   -0.01321
 36 O     0.00600   -0.03681   -0.04824
 37 C     0.00800    0.01216    0.01078
 38 H    -0.03494   -0.01573   -0.00644
 39 H    -0.01560    0.01928    0.02069
 40 H     0.00545    0.00765   -0.01058
 41 H     0.02970    0.01403   -0.01904
 42 N    -0.00032    0.00657   -0.00474
 43 N    -0.00462   -0.01305   -0.03545

System changes: positions 

Initializing position-dependent things.

Density initialized from wave functions
       .-----------------------.  
      /|                       |  
     / |                       |  
    /  |                       |  
   /   |                       |  
  /    |                       |  
 *     |                       |  
 |     |                       |  
 |     |                       |  
 |     |                       |  
 |     |                       |  
 |     |                       |  
 |     |                       |  
 |     |                       |  
 | O  CHH      Li              |  
 |     |                 H     |  
 |   LH|     Li      Li        |  
 |     |  Li      Li      Li   |  
 |     |   Li      LiN    Li   |  
 |     |Li      LiLi   NLi     |  
 |     |                       |  
 |   LLi     LLi     LLi       |  
 |     |  Li      Li      Li   |  
 | Li  |   Li      Li          |  
 |     |Li      Li      Li     |  
 Li    | Li      Li            |  
 |    Li      Li      Li       |  
 |     |                       |  
 |     |                       |  
 |     |                       |  
 |     |                       |  
 |     |                       |  
 |     |                       |  
 |     .-----------------------.  
 |    /                       /   
 |   /                       /    
 |  /                       /     
 | /                       /      
 |/                       /       
 *-----------------------*        

Positions:
   0 Li     1.617037    1.617037   10.000000    ( 0.0000,  0.0000,  0.0000)
   1 Li     4.851111    1.617037   10.000000    ( 0.0000,  0.0000,  0.0000)
   2 Li     8.085185    1.617037   10.000000    ( 0.0000,  0.0000,  0.0000)
   3 Li     1.617037    4.851111   10.000000    ( 0.0000,  0.0000,  0.0000)
   4 Li     4.851111    4.851111   10.000000    ( 0.0000,  0.0000,  0.0000)
   5 Li     8.085185    4.851111   10.000000    ( 0.0000,  0.0000,  0.0000)
   6 Li     1.617037    8.085185   10.000000    ( 0.0000,  0.0000,  0.0000)
   7 Li     4.851111    8.085185   10.000000    ( 0.0000,  0.0000,  0.0000)
   8 Li     8.085185    8.085185   10.000000    ( 0.0000,  0.0000,  0.0000)
   9 Li     0.000000    0.000000   11.617037    ( 0.0000,  0.0000,  0.0000)
  10 Li     3.234074    0.000000   11.617037    ( 0.0000,  0.0000,  0.0000)
  11 Li     6.468148    0.000000   11.617037    ( 0.0000,  0.0000,  0.0000)
  12 Li     0.000000    3.234074   11.617037    ( 0.0000,  0.0000,  0.0000)
  13 Li     3.234074    3.234074   11.617037    ( 0.0000,  0.0000,  0.0000)
  14 Li     6.468148    3.234074   11.617037    ( 0.0000,  0.0000,  0.0000)
  15 Li     0.000000    6.468148   11.617037    ( 0.0000,  0.0000,  0.0000)
  16 Li     3.234074    6.468148   11.617037    ( 0.0000,  0.0000,  0.0000)
  17 Li     6.468148    6.468148   11.617037    ( 0.0000,  0.0000,  0.0000)
  18 Li     1.621132    1.581401   13.506586    ( 0.0000,  0.0000,  0.0000)
  19 Li     4.869110    1.663454   13.510574    ( 0.0000,  0.0000,  0.0000)
  20 Li     8.113125    1.632546   13.626777    ( 0.0000,  0.0000,  0.0000)
  21 Li     1.543962    4.789673   13.507626    ( 0.0000,  0.0000,  0.0000)
  22 Li     4.826783    4.902212   13.501310    ( 0.0000,  0.0000,  0.0000)
  23 Li     8.045354    4.857081   13.526283    ( 0.0000,  0.0000,  0.0000)
  24 Li     1.668055    8.054420   13.495415    ( 0.0000,  0.0000,  0.0000)
  25 Li     4.931044    8.161409   13.512350    ( 0.0000,  0.0000,  0.0000)
  26 Li     8.126675    8.091237   13.504166    ( 0.0000,  0.0000,  0.0000)
  27 Li     0.139843   -0.104442   15.502665    ( 0.0000,  0.0000,  0.0000)
  28 Li     3.401879   -0.057748   15.452026    ( 0.0000,  0.0000,  0.0000)
  29 Li     6.748116    0.284835   15.608525    ( 0.0000,  0.0000,  0.0000)
  30 Li    -0.216703    3.042918   15.583873    ( 0.0000,  0.0000,  0.0000)
  31 Li     3.110360    3.287777   15.432180    ( 0.0000,  0.0000,  0.0000)
  32 Li     6.363477    3.383723   15.534231    ( 0.0000,  0.0000,  0.0000)
  33 Li     0.056502    6.361100   15.461808    ( 0.0000,  0.0000,  0.0000)
  34 Li     3.221447    6.457228   15.458259    ( 0.0000,  0.0000,  0.0000)
  35 Li     6.414626    6.654899   15.482093    ( 0.0000,  0.0000,  0.0000)
  36 O      0.530708    0.858022   19.698528    ( 0.0000,  0.0000,  0.0000)
  37 C      1.747924    1.319780   19.111089    ( 0.0000,  0.0000,  0.0000)
  38 H      2.028586    0.737980   18.222761    ( 0.0000,  0.0000,  0.0000)
  39 H      2.523978    1.192622   19.864927    ( 0.0000,  0.0000,  0.0000)
  40 H      1.695708    2.380777   18.835691    ( 0.0000,  0.0000,  0.0000)
  41 H     -0.171337    0.915552   19.038777    ( 0.0000,  0.0000,  0.0000)
  42 N     -1.134125    1.216352   15.673148    ( 0.0000,  0.0000,  0.0000)
  43 N     -2.023582    2.107092   15.668285    ( 0.0000,  0.0000,  0.0000)

Unit cell:
           periodic     x           y           z      points  spacing
  1. axis:    yes    9.702222    0.000000    0.000000    60     0.1617
  2. axis:    yes    0.000000    9.702222    0.000000    60     0.1617
  3. axis:    no     0.000000    0.000000   26.601111   168     0.1583

  Lengths:   9.702222   9.702222  26.601111
  Angles:   90.000000  90.000000  90.000000

Effective grid spacing dv^(1/3) = 0.1606

     iter     time        total  log10-change:
                         energy  eigst   dens
iter:   1 21:43:28  -284.342931  -2.56
iter:   2 21:43:35  -284.342802  -3.32  -2.89
iter:   3 21:43:42  -284.342824c -3.85  -3.03
iter:   4 21:43:49  -284.342789c -4.22  -3.12
Writing to output.gpw (mode='')

iter:   5 21:43:56  -284.342774c -4.01  -3.24
iter:   6 21:44:04  -284.342788c -4.02  -3.49
iter:   7 21:44:11  -284.342770c -4.69  -3.54
iter:   8 21:44:18  -284.342778c -4.64  -3.72
iter:   9 21:44:25  -284.342779c -4.82  -3.71
Writing to output.gpw (mode='')

iter:  10 21:44:32  -284.342764c -5.21  -3.80
iter:  11 21:44:39  -284.342761c -5.47  -4.02c
iter:  12 21:44:46  -284.342770c -5.97  -4.10c
iter:  13 21:44:53  -284.342768c -5.92  -4.22c
iter:  14 21:45:00  -284.342771c -6.39  -4.43c
Writing to output.gpw (mode='')

iter:  15 21:45:08  -284.342768c -6.42  -4.50c
iter:  16 21:45:15  -284.342768c -6.69  -4.58c
iter:  17 21:45:22  -284.342767c -6.89  -4.63c
iter:  18 21:45:29  -284.342764c -6.84  -4.77c
iter:  19 21:45:36  -284.342765c -7.48c -4.92c

Converged after 19 iterations.

Dipole moment: (-2.895171, -4.932236, -0.220665) |e|*Ang

Energy contributions relative to reference atoms: (reference = -13382.245603)

Kinetic:       +128.997623
Potential:     -120.492264
External:        +0.000000
XC:            -293.496124
Entropy (-ST):   -0.161487
Local:           +0.728743
--------------------------
Free energy:   -284.423508
Extrapolated:  -284.342765

Dipole-layer corrected work functions: 3.403531, 3.827724 eV

Showing only first 2 kpts
 Kpt  Band  Eigenvalues  Occupancy
  0    28     -3.80599    1.95655
  0    29     -3.63676    1.20821
  0    30     -3.60324    0.87676
  0    31     -3.50489    0.19687

  1    28     -3.92879    1.99620
  1    29     -3.56756    0.55318
  1    30     -3.50603    0.20094
  1    31     -3.49557    0.16618


Fermi level: -3.61563

No gap
Writing to output.gpw (mode='')


Forces in eV/Ang:
  0 Li   -0.00654   -0.01062   -0.29579
  1 Li    0.00379    0.01028   -0.29508
  2 Li   -0.00078   -0.00048   -0.25781
  3 Li    0.01344    0.01368   -0.28710
  4 Li   -0.00896    0.00537   -0.29372
  5 Li   -0.01064   -0.00559   -0.29506
  6 Li    0.00582   -0.00979   -0.29226
  7 Li   -0.01515   -0.01544   -0.28276
  8 Li    0.00974    0.00350   -0.29579
  9 Li   -0.03427    0.03882    0.34364
 10 Li    0.02146    0.01877    0.28941
 11 Li    0.05119    0.05040    0.29203
 12 Li   -0.04143   -0.03310    0.28516
 13 Li   -0.00447   -0.00491    0.29853
 14 Li    0.04808   -0.03242    0.34471
 15 Li   -0.01155   -0.00842    0.29008
 16 Li    0.00724    0.00270    0.29504
 17 Li    0.01745    0.01416    0.28377
 18 Li   -0.00508   -0.00705   -0.00038
 19 Li    0.01094    0.00278    0.00772
 20 Li   -0.01277    0.00157   -0.00357
 21 Li    0.00545    0.00552   -0.00645
 22 Li   -0.00145   -0.00138   -0.00085
 23 Li   -0.00727    0.00073   -0.01010
 24 Li   -0.00902    0.00191    0.00042
 25 Li   -0.00519   -0.00717   -0.00893
 26 Li    0.00416    0.01467    0.01208
 27 Li   -0.02546    0.01435   -0.01719
 28 Li    0.00862   -0.00213   -0.01316
 29 Li    0.00866    0.01448    0.01750
 30 Li   -0.00501   -0.01880    0.01031
 31 Li    0.00116    0.00156   -0.00521
 32 Li   -0.00156   -0.00450   -0.00536
 33 Li   -0.00446   -0.00623   -0.00538
 34 Li    0.00851    0.00633   -0.00193
 35 Li    0.00103   -0.00682   -0.01244
 36 O     0.01358   -0.02767   -0.03834
 37 C     0.00233    0.00942    0.01101
 38 H    -0.02966    0.00180    0.00328
 39 H    -0.00184    0.01569    0.01212
 40 H     0.00361   -0.00802   -0.01364
 41 H     0.01589    0.01483   -0.03315
 42 N     0.00940    0.00324   -0.00716
 43 N    -0.01904   -0.01637   -0.03542

Timing:                                      incl.     excl.
-------------------------------------------------------------------
Density initialized from wave functions:     6.608     6.605   0.0% |
 Symmetrize density:                         0.003     0.003   0.0% |
Forces:                                     47.560    47.560   0.1% |
Hamiltonian:                               752.143     0.016   0.0% |
 Atomic:                                     0.028     0.027   0.0% |
  XC Correction:                             0.000     0.000   0.0% |
 Calculate atomic Hamiltonians:              0.046     0.046   0.0% |
 Communicate:                                9.240     9.240   0.0% |
 Hartree integrate/restrict:                 3.102     3.102   0.0% |
 Initialize Hamiltonian:                     0.000     0.000   0.0% |
 Poisson:                                   35.477    12.911   0.0% |
  Communicate from 1D:                       3.491     3.491   0.0% |
  Communicate from 2D:                       3.868     3.868   0.0% |
  Communicate to 1D:                         1.912     1.912   0.0% |
  Communicate to 2D:                         4.247     4.247   0.0% |
  FFT 1D:                                    4.578     4.578   0.0% |
  FFT 2D:                                    4.470     4.470   0.0% |
 XC 3D grid:                               703.653   108.143   0.3% |
  VdW-DF integral:                         595.510     4.880   0.0% |
   Convolution:                             53.789    53.789   0.1% |
   FFT:                                     22.877    22.877   0.1% |
   gather:                                 205.498   205.498   0.5% |
   hmm1:                                    19.051    19.051   0.1% |
   hmm2:                                    25.410    25.410   0.1% |
   iFFT:                                    23.601    23.601   0.1% |
   potential:                              236.857     6.172   0.0% |
    collect:                                40.761    40.761   0.1% |
    p1:                                    104.756   104.756   0.3% |
    p2:                                     38.653    38.653   0.1% |
    sum:                                    46.515    46.515   0.1% |
   splines:                                  3.547     3.547   0.0% |
 vbar:                                       0.580     0.580   0.0% |
LCAO initialization:                         1.077     0.181   0.0% |
 LCAO eigensolver:                           0.260     0.000   0.0% |
  Calculate projections:                     0.000     0.000   0.0% |
  DenseAtomicCorrection:                     0.000     0.000   0.0% |
  Distribute overlap matrix:                 0.180     0.180   0.0% |
  Orbital Layouts:                           0.078     0.078   0.0% |
  Potential matrix:                          0.001     0.001   0.0% |
  Sum over cells:                            0.001     0.001   0.0% |
 LCAO to grid:                               0.515     0.515   0.0% |
 Set positions (LCAO WFS):                   0.120     0.068   0.0% |
  Basic WFS set positions:                   0.001     0.001   0.0% |
  Basis functions set positions:             0.000     0.000   0.0% |
  P tci:                                     0.000     0.000   0.0% |
  ST tci:                                    0.025     0.025   0.0% |
  mktci:                                     0.027     0.027   0.0% |
Redistribute:                                0.075     0.075   0.0% |
SCF-cycle:                               36821.295   621.919   1.6% ||
 Davidson:                                8569.693  2542.966   6.7% |--|
  Apply hamiltonian:                       550.016   550.016   1.5% ||
  Subspace diag:                          1644.769     0.573   0.0% |
   calc_h_matrix:                          798.592   226.138   0.6% |
    Apply hamiltonian:                     572.455   572.455   1.5% ||
   diagonalize:                            102.521   102.521   0.3% |
   rotate_psi:                             743.083   743.083   2.0% ||
  calc. matrices:                         2615.798  1306.070   3.5% ||
   Apply hamiltonian:                     1309.728  1309.728   3.5% ||
  diagonalize:                              21.630    21.630   0.1% |
  rotate_psi:                             1194.516  1194.516   3.2% ||
 Density:                                  182.542     0.123   0.0% |
  Atomic density matrices:                  17.993    17.993   0.0% |
  Mix:                                      86.856    86.856   0.2% |
  Multipole moments:                         9.479     9.479   0.0% |
  Pseudo density:                           68.092    67.992   0.2% |
   Symmetrize density:                       0.100     0.100   0.0% |
 Hamiltonian:                            27425.437     0.616   0.0% |
  Atomic:                                    1.139     1.128   0.0% |
   XC Correction:                            0.011     0.011   0.0% |
  Calculate atomic Hamiltonians:             1.792     1.792   0.0% |
  Communicate:                             390.682   390.682   1.0% |
  Hartree integrate/restrict:              105.468   105.468   0.3% |
  Poisson:                                1318.363   486.929   1.3% ||
   Communicate from 1D:                    131.109   131.109   0.3% |
   Communicate from 2D:                    130.815   130.815   0.3% |
   Communicate to 1D:                       71.811    71.811   0.2% |
   Communicate to 2D:                      158.768   158.768   0.4% |
   FFT 1D:                                 173.278   173.278   0.5% |
   FFT 2D:                                 165.653   165.653   0.4% |
  XC 3D grid:                            25584.397  4019.375  10.6% |---|
   VdW-DF integral:                      21565.022   182.280   0.5% |
    Convolution:                          2003.155  2003.155   5.3% |-|
    FFT:                                   852.746   852.746   2.3% ||
    gather:                               7405.404  7405.404  19.6% |-------|
    hmm1:                                  710.470   710.470   1.9% ||
    hmm2:                                  945.687   945.687   2.5% ||
    iFFT:                                  880.071   880.071   2.3% ||
    potential:                            8585.164   231.559   0.6% |
     collect:                             1324.438  1324.438   3.5% ||
     p1:                                  3879.924  3879.924  10.3% |---|
     p2:                                  1456.391  1456.391   3.9% |-|
     sum:                                 1692.853  1692.853   4.5% |-|
    splines:                                 0.046     0.046   0.0% |
  vbar:                                     22.981    22.981   0.1% |
 Orthonormalize:                            21.703     0.018   0.0% |
  calc_s_matrix:                             2.895     2.895   0.0% |
  inverse-cholesky:                          6.993     6.993   0.0% |
  projections:                               0.003     0.003   0.0% |
  rotate_psi_s:                             11.794    11.794   0.0% |
Set symmetry:                                0.011     0.011   0.0% |
Other:                                     115.950   115.950   0.3% |
-------------------------------------------------------------------
Total:                                             37744.718 100.0%

Memory usage: 1.13 GiB
Date: Fri Mar 10 21:45:37 2023
