
  ___ ___ ___ _ _ _  
 |   |   |_  | | | | 
 | | | | | . | | | | 
 |__ |  _|___|_____|  22.8.0
 |___|_|             

User:   vazumah@d010
Date:   Fri Mar 10 10:08:01 2023
Arch:   x86_64
Pid:    15937
CWD:    /home/vazumah/Research_Projects/LiMEAS/LiNRR_proton_donors/on_pure_surface/Li_BCC100/adsorbates/butanol_x/ontop/9.702_9.702
Python: 3.10.6
gpaw:   /home/vazumah/anaconda3/envs/NAME/lib/python3.10/site-packages/gpaw
_gpaw:  /home/vazumah/anaconda3/envs/NAME/lib/python3.10/site-packages/
        _gpaw.cpython-310-x86_64-linux-gnu.so
ase:    /home/vazumah/anaconda3/envs/NAME/lib/python3.10/site-packages/ase (version 3.22.1)
numpy:  /home/vazumah/anaconda3/envs/NAME/lib/python3.10/site-packages/numpy (version 1.23.3)
scipy:  /home/vazumah/anaconda3/envs/NAME/lib/python3.10/site-packages/scipy (version 1.9.1)
libxc:  5.2.3
units:  Angstrom and eV
cores: 32
OpenMP: True
OMP_NUM_THREADS: 1

Reading from output.gpw
Reading input parameters:
  h: 0.16
  kpts: {size: [4, 4, 1]}
  occupations: {name: fermi-dirac,
                width: 0.05}
  poissonsolver: {dipolelayer: xy}
  xc: BEEF-vdW

Initialize ...

species:
  Li:
    name: Lithium
    id: 830b4218f175192f93f959cfc0aad614
    Z: 3.0
    valence: 1
    core: 2
    charge: 0.0
    file: /home/vazumah/anaconda3/envs/NAME/share/gpaw/Li.PBE.gz
    compensation charges: {type: gauss,
                           rc: 0.33,
                           lmax: 2}
    cutoffs: {filter: 1.91,
              core: 2.55}
    valence states:
      #              energy  rcut
      - 2s(1.00)    -2.874   1.058
      - 2p(0.00)    -1.090   1.058
      -  s          24.337   1.058
  
    # Using partial waves for Li as LCAO basis

  O:
    name: Oxygen
    id: 32ecd46bf208036f09c70b0ec9a88b78
    Z: 8.0
    valence: 6
    core: 2
    charge: 0.0
    file: /home/vazumah/anaconda3/envs/NAME/share/gpaw/O.PBE.gz
    compensation charges: {type: gauss,
                           rc: 0.21,
                           lmax: 2}
    cutoffs: {filter: 1.17,
              core: 0.83}
    valence states:
      #              energy  rcut
      - 2s(2.00)   -23.961   0.688
      - 2p(4.00)    -9.029   0.598
      -  s           3.251   0.688
      -  p          18.182   0.598
      -  d           0.000   0.619
  
    # Using partial waves for O as LCAO basis

  C:
    name: Carbon
    id: 4aa54d4b901d75f77cc0ea3eec22967b
    Z: 6.0
    valence: 4
    core: 2
    charge: 0.0
    file: /home/vazumah/anaconda3/envs/NAME/share/gpaw/C.PBE.gz
    compensation charges: {type: gauss,
                           rc: 0.20,
                           lmax: 2}
    cutoffs: {filter: 1.14,
              core: 1.14}
    valence states:
      #              energy  rcut
      - 2s(2.00)   -13.751   0.635
      - 2p(2.00)    -5.284   0.635
      -  s          13.461   0.635
      -  p          21.927   0.635
      -  d           0.000   0.635
  
    # Using partial waves for C as LCAO basis

  H:
    name: Hydrogen
    id: d65de229564ff8ea4db303e23b6d1ecf
    Z: 1.0
    valence: 1
    core: 0
    charge: 0.0
    file: /home/vazumah/anaconda3/envs/NAME/share/gpaw/H.PBE.gz
    compensation charges: {type: gauss,
                           rc: 0.15,
                           lmax: 2}
    cutoffs: {filter: 0.85,
              core: 0.53}
    valence states:
      #              energy  rcut
      - 1s(1.00)    -6.494   0.476
      -  s          20.717   0.476
      -  p           0.000   0.476
  
    # Using partial waves for H as LCAO basis

Reference energy: -13576.627914  # eV

Spin-paired calculation

Convergence criteria:
 Maximum [total energy] change in last 3 cyles: 0.0005 eV / electron
 Maximum integral of absolute [dens]ity change: 0.0001 electrons / valence electron
 Maximum integral of absolute [eigenst]ate change: 4e-08 eV^2 / valence electron
 Maximum number of scf [iter]ations: 333
 (Square brackets indicate name in SCF output, whereas a 'c' in
 the SCF output indicates the quantity has converged.)

Symmetries present (total): 1

  ( 1  0  0)
  ( 0  1  0)
  ( 0  0  1)

16 k-points: 4 x 4 x 1 Monkhorst-Pack grid
8 k-points in the irreducible part of the Brillouin zone
       k-points in crystal coordinates                weights
   0:     0.12500000   -0.37500000    0.00000000          2/16
   1:     0.12500000   -0.12500000    0.00000000          2/16
   2:     0.12500000    0.12500000    0.00000000          2/16
   3:     0.12500000    0.37500000    0.00000000          2/16
   4:     0.37500000   -0.37500000    0.00000000          2/16
   5:     0.37500000   -0.12500000    0.00000000          2/16
   6:     0.37500000    0.12500000    0.00000000          2/16
   7:     0.37500000    0.37500000    0.00000000          2/16

Wave functions: Uniform real-space grid
  Kinetic energy operator: 6*3+1=19 point O(h^6) finite-difference Laplacian
  ScaLapack parameters: grid=1x1, blocksize=None
  Wavefunction extrapolation:
    Improved wavefunction reuse through dual PAW basis 

Occupation numbers: Fermi-Dirac:
  width: 0.0500  # eV
 

Eigensolver
   Davidson(niter=2) 

Densities:
  Coarse grid: 60*60*156 grid
  Fine grid: 120*120*312 grid
  Total Charge: 0.000000 

Density mixing:
  Method: separate
  Backend: pulay
  Linear mixing parameter: 0.05
  old densities: 5
  Damping of long wavelength oscillations: 50 

Hamiltonian:
  XC and Coulomb potentials evaluated on a 120*120*312 grid
  Using the BEEF-vdW Exchange-Correlation functional
  Interpolation: tri-quintic (5. degree polynomial)
  Poisson solver: FastPoissonSolver using
    Stencil: 6*3+1=19 point O(h^6) finite-difference Laplacian
    FFT axes: [0, 1]
    FST axes: [2]

Dipole correction along z-axis 

XC parameters: BEEF-vdW with 2 nearest neighbor stencil

Memory estimate:
  Process memory now: 213.58 MiB
  Calculator: 312.18 MiB
    Density: 88.90 MiB
      Arrays: 27.47 MiB
      Localized functions: 50.99 MiB
      Mixer: 10.44 MiB
    Hamiltonian: 21.99 MiB
      Arrays: 17.96 MiB
      XC: 0.00 MiB
      Poisson: 0.00 MiB
      vbar: 4.03 MiB
    Wavefunctions: 201.30 MiB
      Arrays psit_nG: 93.93 MiB
      Eigensolver: 104.68 MiB
      Projections: 0.05 MiB
      Projectors: 2.63 MiB

Total number of cores used: 32
Parallelization over k-points: 8
Domain decomposition: 1 x 1 x 4

Number of atoms: 51
Number of atomic orbitals: 174
Number of bands in calculation: 45
Number of valence electrons: 68
Bands to converge: occupied

... initialized

Initializing position-dependent things.

Creating initial wave functions:
  45 bands from LCAO basis set

       .-----------------------.  
      /|                       |  
     / |                       |  
    /  |                       |  
   /   |                       |  
  /    |                       |  
 *     |          H            |  
 |     |           C     H     |  
 |     |                 C     |  
 |     H          H     H     O|  
 |     |                       |  
 |     Li        H             |  
 |     |       Li       H      |  
 |     |   H    C              |  
 |   Li|     Li      LC        |  
 |     |  Li      Li      Li   |  
 | Li  |   Li      Li          |  
 |     |Li      Li      Li     |  
 |     |         Li            |  
 |   LLi     LLi     LLi       |  
 |     |  Li      Li      Li   |  
 | Li  |   Li      Li          |  
 |     |Li      Li      Li     |  
 Li    | Li      Li            |  
 |    Li      Li      Li       |  
 |     |                       |  
 |     |                       |  
 |     |                       |  
 |     |                       |  
 |     |                       |  
 |     |                       |  
 |     .-----------------------.  
 |    /                       /   
 |   /                       /    
 |  /                       /     
 | /                       /      
 |/                       /       
 *-----------------------*        

Positions:
   0 Li     1.617037    1.617037   10.000000    ( 0.0000,  0.0000,  0.0000)
   1 Li     4.851111    1.617037   10.000000    ( 0.0000,  0.0000,  0.0000)
   2 Li     8.085185    1.617037   10.000000    ( 0.0000,  0.0000,  0.0000)
   3 Li     1.617037    4.851111   10.000000    ( 0.0000,  0.0000,  0.0000)
   4 Li     4.851111    4.851111   10.000000    ( 0.0000,  0.0000,  0.0000)
   5 Li     8.085185    4.851111   10.000000    ( 0.0000,  0.0000,  0.0000)
   6 Li     1.617037    8.085185   10.000000    ( 0.0000,  0.0000,  0.0000)
   7 Li     4.851111    8.085185   10.000000    ( 0.0000,  0.0000,  0.0000)
   8 Li     8.085185    8.085185   10.000000    ( 0.0000,  0.0000,  0.0000)
   9 Li     0.000000    0.000000   11.617037    ( 0.0000,  0.0000,  0.0000)
  10 Li     3.234074    0.000000   11.617037    ( 0.0000,  0.0000,  0.0000)
  11 Li     6.468148    0.000000   11.617037    ( 0.0000,  0.0000,  0.0000)
  12 Li     0.000000    3.234074   11.617037    ( 0.0000,  0.0000,  0.0000)
  13 Li     3.234074    3.234074   11.617037    ( 0.0000,  0.0000,  0.0000)
  14 Li     6.468148    3.234074   11.617037    ( 0.0000,  0.0000,  0.0000)
  15 Li     0.000000    6.468148   11.617037    ( 0.0000,  0.0000,  0.0000)
  16 Li     3.234074    6.468148   11.617037    ( 0.0000,  0.0000,  0.0000)
  17 Li     6.468148    6.468148   11.617037    ( 0.0000,  0.0000,  0.0000)
  18 Li     1.592846    1.596717   13.507883    ( 0.0000,  0.0000,  0.0000)
  19 Li     4.812049    1.655427   13.436820    ( 0.0000,  0.0000,  0.0000)
  20 Li     8.153440    1.607424   13.485025    ( 0.0000,  0.0000,  0.0000)
  21 Li     1.638358    4.866081   13.464878    ( 0.0000,  0.0000,  0.0000)
  22 Li     4.816719    4.851834   13.454912    ( 0.0000,  0.0000,  0.0000)
  23 Li     8.087651    4.870514   13.461569    ( 0.0000,  0.0000,  0.0000)
  24 Li     1.586698    8.098288   13.526910    ( 0.0000,  0.0000,  0.0000)
  25 Li     4.815960    8.027530   13.447007    ( 0.0000,  0.0000,  0.0000)
  26 Li     8.144754    8.074706   13.490342    ( 0.0000,  0.0000,  0.0000)
  27 Li     0.000191   -0.027679   15.837248    ( 0.0000,  0.0000,  0.0000)
  28 Li     3.280328   -0.004603   15.347924    ( 0.0000,  0.0000,  0.0000)
  29 Li     6.421227    0.006129   15.175423    ( 0.0000,  0.0000,  0.0000)
  30 Li     0.022757    3.312003   15.368044    ( 0.0000,  0.0000,  0.0000)
  31 Li     3.235041    3.267145   15.433804    ( 0.0000,  0.0000,  0.0000)
  32 Li     6.461417    3.260734   15.325708    ( 0.0000,  0.0000,  0.0000)
  33 Li     0.030040    6.390955   15.415320    ( 0.0000,  0.0000,  0.0000)
  34 Li     3.216395    6.452547   15.470158    ( 0.0000,  0.0000,  0.0000)
  35 Li     6.427892    6.433473   15.372942    ( 0.0000,  0.0000,  0.0000)
  36 O      9.459500    9.659821   17.764567    ( 0.0000,  0.0000,  0.0000)
  37 C      7.158990    9.600391   18.704279    ( 0.0000,  0.0000,  0.0000)
  38 C      5.939618   10.486969   18.978436    ( 0.0000,  0.0000,  0.0000)
  39 C      8.436282   10.406112   18.480074    ( 0.0000,  0.0000,  0.0000)
  40 C      4.657281    9.677885   19.167318    ( 0.0000,  0.0000,  0.0000)
  41 H      7.302334    8.882465   19.520174    ( 0.0000,  0.0000,  0.0000)
  42 H      6.962777    9.002270   17.806039    ( 0.0000,  0.0000,  0.0000)
  43 H      5.809761   11.164536   18.126348    ( 0.0000,  0.0000,  0.0000)
  44 H      6.111371   11.117404   19.859752    ( 0.0000,  0.0000,  0.0000)
  45 H      8.240128   11.269291   17.839736    ( 0.0000,  0.0000,  0.0000)
  46 H      8.861750   10.771431   19.419273    ( 0.0000,  0.0000,  0.0000)
  47 H      4.472156    9.029988   18.304190    ( 0.0000,  0.0000,  0.0000)
  48 H      4.722365    9.046130   20.056997    ( 0.0000,  0.0000,  0.0000)
  49 H      3.791326   10.336014   19.272841    ( 0.0000,  0.0000,  0.0000)
  50 H      9.771916    8.925619   18.310273    ( 0.0000,  0.0000,  0.0000)

Unit cell:
           periodic     x           y           z      points  spacing
  1. axis:    yes    9.702222    0.000000    0.000000    60     0.1617
  2. axis:    yes    0.000000    9.702222    0.000000    60     0.1617
  3. axis:    no     0.000000    0.000000   24.851111   156     0.1593

  Lengths:   9.702222   9.702222  24.851111
  Angles:   90.000000  90.000000  90.000000

Effective grid spacing dv^(1/3) = 0.1609

     iter     time        total  log10-change:
                         energy  eigst   dens
iter:   1 10:08:48  -322.847370  +1.09
iter:   2 10:09:14  -323.523972  +0.40  -1.71
iter:   3 10:09:40  -323.682278  -0.10  -2.01
iter:   4 10:10:07  -323.743305  -0.48  -2.25
Writing to output.gpw (mode='')

iter:   5 10:10:33  -323.771495  -0.81  -2.45
iter:   6 10:10:59  -323.785254  -1.11  -2.55
iter:   7 10:11:26  -323.793372c -1.29  -2.70
iter:   8 10:11:52  -323.798790c -1.51  -3.10
iter:   9 10:12:18  -323.802652c -1.63  -3.10
Writing to output.gpw (mode='')

iter:  10 10:12:45  -323.805406c -1.78  -3.00
iter:  11 10:13:11  -323.807308c -1.98  -2.91
iter:  12 10:13:37  -323.809905c -1.97  -2.84
iter:  13 10:14:03  -323.811686c -2.04  -2.71
iter:  14 10:14:30  -323.812523c -2.19  -2.63
Writing to output.gpw (mode='')

iter:  15 10:14:56  -323.814017c -2.24  -2.60
iter:  16 10:15:22  -323.816680c -2.18  -2.57
iter:  17 10:15:49  -323.817179c -2.51  -2.45
iter:  18 10:16:15  -323.815506c -2.70  -2.44
iter:  19 10:16:41  -323.821479c -2.17  -2.50
Writing to output.gpw (mode='')

iter:  20 10:17:07  -323.822133c -2.46  -2.34
iter:  21 10:17:33  -323.817166c -2.81  -2.32
iter:  22 10:18:00  -323.814424c -2.53  -2.40
iter:  23 10:18:28  -323.815300c -3.15  -2.50
iter:  24 10:18:57  -323.813196c -2.62  -2.48
Writing to output.gpw (mode='')

iter:  25 10:19:27  -323.813169c -3.25  -2.52
iter:  26 10:19:57  -323.812728c -2.92  -2.53
iter:  27 10:20:26  -323.811608c -2.87  -2.62
iter:  28 10:20:56  -323.811539c -2.64  -2.72
iter:  29 10:21:26  -323.811483c -3.10  -2.75
Writing to output.gpw (mode='')

iter:  30 10:21:56  -323.811551c -3.18  -2.92
iter:  31 10:22:25  -323.811534c -3.08  -2.98
iter:  32 10:22:56  -323.811617c -3.13  -3.11
iter:  33 10:23:26  -323.811605c -3.73  -3.16
iter:  34 10:23:57  -323.811620c -4.02  -3.26
Writing to output.gpw (mode='')

iter:  35 10:24:53  -323.811626c -4.16  -3.27
iter:  36 10:25:54  -323.811644c -4.25  -3.30
iter:  37 10:29:11  -323.811669c -4.08  -3.45
iter:  38 10:31:39  -323.811665c -4.52  -3.56
iter:  39 10:33:51  -323.811640c -4.66  -3.57
Writing to output.gpw (mode='')

iter:  40 10:35:00  -323.811639c -5.21  -3.68
iter:  41 10:36:16  -323.811628c -5.10  -3.74
iter:  42 10:37:33  -323.811623c -5.09  -3.86
iter:  43 10:38:44  -323.811622c -5.34  -3.96
iter:  44 10:39:56  -323.811621c -5.31  -4.01c
Writing to output.gpw (mode='')

iter:  45 10:41:34  -323.811623c -5.80  -4.11c
iter:  46 10:43:35  -323.811623c -5.69  -4.16c
iter:  47 10:45:41  -323.811622c -5.86  -4.34c
iter:  48 10:47:43  -323.811622c -6.18  -4.48c
iter:  49 10:49:55  -323.811624c -6.09  -4.51c
Writing to output.gpw (mode='')

iter:  50 10:51:57  -323.811624c -6.20  -4.71c
iter:  51 10:54:13  -323.811624c -6.47  -4.88c
iter:  52 10:56:41  -323.811624c -6.60  -4.96c
iter:  53 10:59:44  -323.811625c -6.55  -5.01c
iter:  54 11:01:50  -323.811624c -6.76  -5.06c
Writing to output.gpw (mode='')

iter:  55 11:05:35  -323.811624c -6.85  -5.12c
iter:  56 11:08:17  -323.811625c -6.85  -5.22c
iter:  57 11:10:27  -323.811625c -7.19  -5.27c
iter:  58 11:12:58  -323.811625c -7.11  -5.21c
iter:  59 11:17:18  -323.811625c -7.24  -5.30c
Writing to output.gpw (mode='')

iter:  60 11:20:37  -323.811625c -7.37  -5.34c
iter:  61 11:22:49  -323.811625c -7.32  -5.44c
iter:  62 11:25:04  -323.811625c -7.28  -5.60c
iter:  63 11:28:59  -323.811625c -7.50c -5.68c

Converged after 63 iterations.

Dipole moment: (7.325049, -1.179404, 0.402724) |e|*Ang

Energy contributions relative to reference atoms: (reference = -13576.627914)

Kinetic:       +163.691421
Potential:     -157.752448
External:        +0.000000
XC:            -330.009187
Entropy (-ST):   -0.151427
Local:           +0.334301
--------------------------
Free energy:   -323.887339
Extrapolated:  -323.811625

Dipole-layer corrected work functions: 3.385375, 2.611201 eV

Showing only first 2 kpts
 Kpt  Band  Eigenvalues  Occupancy
  0    32     -3.25606    1.98853
  0    33     -3.16516    1.93138
  0    34     -2.83395    0.07206
  0    35     -2.75294    0.01468

  1    32     -3.01824    1.19687
  1    33     -3.00280    1.04505
  1    34     -2.96082    0.64196
  1    35     -2.93506    0.44036


Fermi level: -2.99829

No gap
Writing to output.gpw (mode='')


Forces in eV/Ang:
  0 Li    0.00267   -0.00108   -0.26669
  1 Li    0.00118    0.00135   -0.28538
  2 Li   -0.00331    0.00624   -0.27507
  3 Li   -0.00096    0.00307   -0.28530
  4 Li    0.00223   -0.00104   -0.26070
  5 Li    0.00042   -0.00273   -0.28261
  6 Li    0.00396   -0.00227   -0.26830
  7 Li   -0.00460    0.00155   -0.28447
  8 Li    0.00020   -0.00433   -0.27259
  9 Li    0.01577   -0.01016    0.23406
 10 Li   -0.01433   -0.01240    0.27866
 11 Li    0.00087   -0.00588    0.32710
 12 Li    0.01834    0.02214    0.26921
 13 Li   -0.04409   -0.00948    0.24920
 14 Li    0.02009   -0.00458    0.28876
 15 Li    0.02450   -0.00900    0.25244
 16 Li   -0.04442    0.01703    0.24020
 17 Li    0.01451    0.00500    0.27768
 18 Li   -0.00900   -0.00843    0.01272
 19 Li    0.00599   -0.00613   -0.00115
 20 Li   -0.00029   -0.00090    0.00177
 21 Li   -0.00080   -0.00889   -0.00947
 22 Li    0.00607    0.00863   -0.00590
 23 Li    0.00364   -0.00952   -0.01539
 24 Li   -0.00890    0.01121    0.00903
 25 Li    0.00261    0.01849   -0.00413
 26 Li    0.00116    0.00924   -0.00211
 27 Li    0.03271   -0.00309   -0.03039
 28 Li   -0.00124   -0.00298    0.01866
 29 Li   -0.03033   -0.00579    0.00818
 30 Li   -0.01172   -0.01101    0.00552
 31 Li    0.00813   -0.01806   -0.01061
 32 Li    0.00266   -0.01272    0.00593
 33 Li   -0.02266    0.00235   -0.00508
 34 Li   -0.00007    0.01797   -0.01867
 35 Li    0.02254    0.01335    0.00615
 36 O     0.05805    0.01073   -0.02311
 37 C     0.02088   -0.01111   -0.00824
 38 C    -0.01008    0.02686    0.02157
 39 C    -0.01974   -0.00413    0.02129
 40 C    -0.01344   -0.01611    0.02009
 41 H     0.01018   -0.01342    0.03010
 42 H     0.03082    0.00020   -0.02828
 43 H     0.00290    0.04626    0.02130
 44 H     0.03266   -0.00602   -0.02649
 45 H    -0.01911    0.00006   -0.00524
 46 H    -0.03105    0.02729    0.04096
 47 H     0.01693    0.00227    0.03264
 48 H    -0.05247   -0.02773    0.00884
 49 H    -0.00057   -0.00342    0.04679
 50 H    -0.00393   -0.02683   -0.01060

System changes: positions 

Initializing position-dependent things.

Density initialized from wave functions
       .-----------------------.  
      /|                       |  
     / |                       |  
    /  |                       |  
   /   |                       |  
  /    |                       |  
 *     |          H            |  
 |     |           C     H     |  
 |     |                 C     |  
 |     H          H     H     O|  
 |     |                       |  
 |     |         H             Li 
 |     |       Li       H      |  
 |     |   H    C              |  
 |   Li|     Li      LC        |  
 |     |  Li      Li      Li   |  
 | Li  |   Li      Li          |  
 |     |Li      Li      Li     |  
 |     |         Li            |  
 |   LLi     LLi     LLi       |  
 |     |  Li      Li      Li   |  
 | Li  |   Li      Li          |  
 |     |Li      Li      Li     |  
 Li    | Li      Li            |  
 |    Li      Li      Li       |  
 |     |                       |  
 |     |                       |  
 |     |                       |  
 |     |                       |  
 |     |                       |  
 |     |                       |  
 |     .-----------------------.  
 |    /                       /   
 |   /                       /    
 |  /                       /     
 | /                       /      
 |/                       /       
 *-----------------------*        

Positions:
   0 Li     1.617037    1.617037   10.000000    ( 0.0000,  0.0000,  0.0000)
   1 Li     4.851111    1.617037   10.000000    ( 0.0000,  0.0000,  0.0000)
   2 Li     8.085185    1.617037   10.000000    ( 0.0000,  0.0000,  0.0000)
   3 Li     1.617037    4.851111   10.000000    ( 0.0000,  0.0000,  0.0000)
   4 Li     4.851111    4.851111   10.000000    ( 0.0000,  0.0000,  0.0000)
   5 Li     8.085185    4.851111   10.000000    ( 0.0000,  0.0000,  0.0000)
   6 Li     1.617037    8.085185   10.000000    ( 0.0000,  0.0000,  0.0000)
   7 Li     4.851111    8.085185   10.000000    ( 0.0000,  0.0000,  0.0000)
   8 Li     8.085185    8.085185   10.000000    ( 0.0000,  0.0000,  0.0000)
   9 Li     0.000000    0.000000   11.617037    ( 0.0000,  0.0000,  0.0000)
  10 Li     3.234074    0.000000   11.617037    ( 0.0000,  0.0000,  0.0000)
  11 Li     6.468148    0.000000   11.617037    ( 0.0000,  0.0000,  0.0000)
  12 Li     0.000000    3.234074   11.617037    ( 0.0000,  0.0000,  0.0000)
  13 Li     3.234074    3.234074   11.617037    ( 0.0000,  0.0000,  0.0000)
  14 Li     6.468148    3.234074   11.617037    ( 0.0000,  0.0000,  0.0000)
  15 Li     0.000000    6.468148   11.617037    ( 0.0000,  0.0000,  0.0000)
  16 Li     3.234074    6.468148   11.617037    ( 0.0000,  0.0000,  0.0000)
  17 Li     6.468148    6.468148   11.617037    ( 0.0000,  0.0000,  0.0000)
  18 Li     1.599173    1.600212   13.507425    ( 0.0000,  0.0000,  0.0000)
  19 Li     4.809866    1.657224   13.430443    ( 0.0000,  0.0000,  0.0000)
  20 Li     8.147313    1.606489   13.479697    ( 0.0000,  0.0000,  0.0000)
  21 Li     1.641837    4.862982   13.466950    ( 0.0000,  0.0000,  0.0000)
  22 Li     4.817751    4.852851   13.463534    ( 0.0000,  0.0000,  0.0000)
  23 Li     8.085031    4.867385   13.462410    ( 0.0000,  0.0000,  0.0000)
  24 Li     1.586476    8.093173   13.532878    ( 0.0000,  0.0000,  0.0000)
  25 Li     4.813551    8.024665   13.438917    ( 0.0000,  0.0000,  0.0000)
  26 Li     8.142948    8.073486   13.492507    ( 0.0000,  0.0000,  0.0000)
  27 Li    -0.012222   -0.032419   15.837960    ( 0.0000,  0.0000,  0.0000)
  28 Li     3.276965   -0.005216   15.345755    ( 0.0000,  0.0000,  0.0000)
  29 Li     6.416551    0.006645   15.167272    ( 0.0000,  0.0000,  0.0000)
  30 Li     0.022120    3.313116   15.366470    ( 0.0000,  0.0000,  0.0000)
  31 Li     3.232566    3.265511   15.430490    ( 0.0000,  0.0000,  0.0000)
  32 Li     6.464746    3.256010   15.320788    ( 0.0000,  0.0000,  0.0000)
  33 Li     0.027705    6.391179   15.413894    ( 0.0000,  0.0000,  0.0000)
  34 Li     3.213349    6.456138   15.469960    ( 0.0000,  0.0000,  0.0000)
  35 Li     6.429770    6.437342   15.370869    ( 0.0000,  0.0000,  0.0000)
  36 O      9.461549    9.658375   17.764182    ( 0.0000,  0.0000,  0.0000)
  37 C      7.156116    9.596362   18.700884    ( 0.0000,  0.0000,  0.0000)
  38 C      5.938588   10.484730   18.990139    ( 0.0000,  0.0000,  0.0000)
  39 C      8.435214   10.401576   18.482840    ( 0.0000,  0.0000,  0.0000)
  40 C      4.656920    9.678184   19.190124    ( 0.0000,  0.0000,  0.0000)
  41 H      7.299122    8.866588   19.506575    ( 0.0000,  0.0000,  0.0000)
  42 H      6.957339    9.009168   17.795100    ( 0.0000,  0.0000,  0.0000)
  43 H      5.800065   11.167610   18.143275    ( 0.0000,  0.0000,  0.0000)
  44 H      6.118933   11.109382   19.872988    ( 0.0000,  0.0000,  0.0000)
  45 H      8.239607   11.266449   17.844050    ( 0.0000,  0.0000,  0.0000)
  46 H      8.861006   10.762518   19.423550    ( 0.0000,  0.0000,  0.0000)
  47 H      4.460914    9.034240   18.327334    ( 0.0000,  0.0000,  0.0000)
  48 H      4.731416    9.046166   20.078513    ( 0.0000,  0.0000,  0.0000)
  49 H      3.794187   10.338846   19.304964    ( 0.0000,  0.0000,  0.0000)
  50 H      9.790318    8.935140   18.314547    ( 0.0000,  0.0000,  0.0000)

Unit cell:
           periodic     x           y           z      points  spacing
  1. axis:    yes    9.702222    0.000000    0.000000    60     0.1617
  2. axis:    yes    0.000000    9.702222    0.000000    60     0.1617
  3. axis:    no     0.000000    0.000000   24.851111   156     0.1593

  Lengths:   9.702222   9.702222  24.851111
  Angles:   90.000000  90.000000  90.000000

Effective grid spacing dv^(1/3) = 0.1609

     iter     time        total  log10-change:
                         energy  eigst   dens
iter:   1 11:34:26  -323.819963  -1.06
iter:   2 11:37:54  -323.820025  -1.93  -2.21
iter:   3 11:42:26  -323.819619c -2.50  -2.27
iter:   4 11:47:47  -323.821573c -2.64  -2.31
Writing to output.gpw (mode='')

iter:   5 11:53:45  -323.814111c -2.40  -2.24
iter:   6 11:58:20  -323.812925c -2.26  -2.63
iter:   7 12:02:49  -323.813169c -2.54  -2.87
iter:   8 12:06:59  -323.813005c -3.39  -2.84
iter:   9 12:09:40  -323.812880c -3.49  -3.01
Writing to output.gpw (mode='')

iter:  10 12:12:43  -323.812880c -4.26  -3.15
iter:  11 12:15:41  -323.812884c -4.30  -3.28
iter:  12 12:18:46  -323.812887c -4.52  -3.39
iter:  13 12:21:57  -323.812887c -4.32  -3.44
iter:  14 12:25:08  -323.812890c -4.70  -3.63
Writing to output.gpw (mode='')

iter:  15 12:29:03  -323.812880c -5.25  -3.65
iter:  16 12:32:55  -323.812870c -4.93  -3.78
iter:  17 12:36:31  -323.812871c -5.75  -4.00
iter:  18 12:39:42  -323.812874c -5.84  -4.11c
iter:  19 12:43:41  -323.812872c -5.98  -4.29c
Writing to output.gpw (mode='')

iter:  20 12:46:38  -323.812872c -6.03  -4.39c
iter:  21 12:50:12  -323.812872c -6.18  -4.43c
iter:  22 12:53:25  -323.812873c -6.50  -4.55c
iter:  23 12:57:05  -323.812871c -6.48  -4.60c
iter:  24 13:01:19  -323.812871c -6.81  -4.73c
Writing to output.gpw (mode='')

iter:  25 13:05:07  -323.812873c -6.71  -4.76c
iter:  26 13:09:27  -323.812873c -7.14  -5.00c
iter:  27 13:13:12  -323.812872c -7.09  -5.21c
iter:  28 13:16:32  -323.812872c -7.20  -5.30c
iter:  29 13:21:19  -323.812872c -7.22  -5.37c
Writing to output.gpw (mode='')

iter:  30 13:25:59  -323.812872c -7.55c -5.52c

Converged after 30 iterations.

Dipole moment: (7.303387, -0.772064, 0.403987) |e|*Ang

Energy contributions relative to reference atoms: (reference = -13576.627914)

Kinetic:       +163.578774
Potential:     -157.668162
External:        +0.000000
XC:            -329.982243
Entropy (-ST):   -0.151379
Local:           +0.334448
--------------------------
Free energy:   -323.888562
Extrapolated:  -323.812872

Dipole-layer corrected work functions: 3.385209, 2.608606 eV

Showing only first 2 kpts
 Kpt  Band  Eigenvalues  Occupancy
  0    32     -3.25532    1.98868
  0    33     -3.16402    1.93170
  0    34     -2.83228    0.07166
  0    35     -2.75235    0.01492

  1    32     -3.01629    1.19143
  1    33     -3.00115    1.04238
  1    34     -2.95890    0.63720
  1    35     -2.93446    0.44577


Fermi level: -2.99691

No gap

Forces in eV/Ang:
  0 Li    0.00328   -0.00050   -0.26664
  1 Li    0.00127    0.00122   -0.28563
  2 Li   -0.00382    0.00653   -0.27504
  3 Li   -0.00097    0.00311   -0.28597
  4 Li    0.00242   -0.00086   -0.26043
  5 Li    0.00037   -0.00291   -0.28305
  6 Li    0.00435   -0.00257   -0.26833
  7 Li   -0.00464    0.00143   -0.28513
  8 Li    0.00012   -0.00414   -0.27234
  9 Li    0.01857   -0.01177    0.23873
 10 Li   -0.01784   -0.01457    0.27789
 11 Li    0.00010   -0.00790    0.32445
 12 Li    0.01876    0.02215    0.27097
 13 Li   -0.04219   -0.00444    0.24692
 14 Li    0.01754   -0.00160    0.28685
 15 Li    0.02460   -0.01089    0.25634
 16 Li   -0.04637    0.01242    0.23973
 17 Li    0.01532    0.00233    0.27771
 18 Li   -0.02164   -0.01434    0.01018
 19 Li    0.00654   -0.00725    0.00548
 20 Li    0.01051   -0.00030    0.00578
 21 Li   -0.00535   -0.00363   -0.01323
 22 Li    0.00409    0.00770   -0.01901
 23 Li    0.00744   -0.00441   -0.01906
 24 Li   -0.01151    0.01844   -0.00193
 25 Li    0.00335    0.02221    0.00647
 26 Li    0.00342    0.00996   -0.00914
 27 Li    0.04031   -0.00151   -0.04024
 28 Li    0.00184   -0.00275    0.01894
 29 Li   -0.03407   -0.00649    0.01142
 30 Li   -0.01284   -0.01603    0.00520
 31 Li    0.01351   -0.01720   -0.00426
 32 Li   -0.00115   -0.01112    0.01233
 33 Li   -0.02194   -0.00091   -0.00273
 34 Li    0.00327    0.01492   -0.01529
 35 Li    0.02009    0.01118    0.00938
 36 O     0.01619    0.03246   -0.00222
 37 C     0.00074   -0.01050   -0.01885
 38 C     0.03118    0.01243    0.00435
 39 C    -0.00412   -0.01550   -0.00697
 40 C    -0.02498   -0.01625    0.00815
 41 H     0.00578   -0.00030    0.02775
 42 H     0.02167    0.02000   -0.01782
 43 H     0.02021    0.03451    0.02687
 44 H     0.03849    0.01071   -0.01789
 45 H    -0.01409   -0.00161    0.00961
 46 H    -0.03897    0.02843    0.04029
 47 H     0.01422   -0.02111    0.02553
 48 H    -0.06324   -0.04170   -0.00023
 49 H    -0.00565   -0.00107    0.05297
 50 H    -0.00995   -0.02757   -0.00717

System changes: positions 

Initializing position-dependent things.

Density initialized from wave functions
       .-----------------------.  
      /|                       |  
     / |                       |  
    /  |                       |  
   /   |                       |  
  /    |                       |  
 *     |          H            |  
 |     |           C     H     |  
 |     |                 C     |  
 |     H          H     H     O|  
 |     |                       |  
 |     |         H             Li 
 |     |       Li       H      |  
 |     |   H    C              |  
 |   Li|     Li      LC        |  
 |     |  Li      Li      Li   |  
 | Li  |   Li      Li          |  
 |     |Li      Li      Li     |  
 |     |         Li            |  
 |   LLi     LLi     LLi       |  
 |     |  Li      Li      Li   |  
 | Li  |   Li      Li          |  
 |     |Li      Li      Li     |  
 Li    | Li      Li            |  
 |    Li      Li      Li       |  
 |     |                       |  
 |     |                       |  
 |     |                       |  
 |     |                       |  
 |     |                       |  
 |     |                       |  
 |     .-----------------------.  
 |    /                       /   
 |   /                       /    
 |  /                       /     
 | /                       /      
 |/                       /       
 *-----------------------*        

Positions:
   0 Li     1.617037    1.617037   10.000000    ( 0.0000,  0.0000,  0.0000)
   1 Li     4.851111    1.617037   10.000000    ( 0.0000,  0.0000,  0.0000)
   2 Li     8.085185    1.617037   10.000000    ( 0.0000,  0.0000,  0.0000)
   3 Li     1.617037    4.851111   10.000000    ( 0.0000,  0.0000,  0.0000)
   4 Li     4.851111    4.851111   10.000000    ( 0.0000,  0.0000,  0.0000)
   5 Li     8.085185    4.851111   10.000000    ( 0.0000,  0.0000,  0.0000)
   6 Li     1.617037    8.085185   10.000000    ( 0.0000,  0.0000,  0.0000)
   7 Li     4.851111    8.085185   10.000000    ( 0.0000,  0.0000,  0.0000)
   8 Li     8.085185    8.085185   10.000000    ( 0.0000,  0.0000,  0.0000)
   9 Li     0.000000    0.000000   11.617037    ( 0.0000,  0.0000,  0.0000)
  10 Li     3.234074    0.000000   11.617037    ( 0.0000,  0.0000,  0.0000)
  11 Li     6.468148    0.000000   11.617037    ( 0.0000,  0.0000,  0.0000)
  12 Li     0.000000    3.234074   11.617037    ( 0.0000,  0.0000,  0.0000)
  13 Li     3.234074    3.234074   11.617037    ( 0.0000,  0.0000,  0.0000)
  14 Li     6.468148    3.234074   11.617037    ( 0.0000,  0.0000,  0.0000)
  15 Li     0.000000    6.468148   11.617037    ( 0.0000,  0.0000,  0.0000)
  16 Li     3.234074    6.468148   11.617037    ( 0.0000,  0.0000,  0.0000)
  17 Li     6.468148    6.468148   11.617037    ( 0.0000,  0.0000,  0.0000)
  18 Li     1.600037    1.600134   13.509173    ( 0.0000,  0.0000,  0.0000)
  19 Li     4.810386    1.656876   13.429792    ( 0.0000,  0.0000,  0.0000)
  20 Li     8.146036    1.605975   13.479901    ( 0.0000,  0.0000,  0.0000)
  21 Li     1.642315    4.861735   13.467115    ( 0.0000,  0.0000,  0.0000)
  22 Li     4.818525    4.853411   13.465221    ( 0.0000,  0.0000,  0.0000)
  23 Li     8.084599    4.866099   13.462334    ( 0.0000,  0.0000,  0.0000)
  24 Li     1.586247    8.093206   13.535275    ( 0.0000,  0.0000,  0.0000)
  25 Li     4.813897    8.025441   13.437498    ( 0.0000,  0.0000,  0.0000)
  26 Li     8.142764    8.074344   13.493761    ( 0.0000,  0.0000,  0.0000)
  27 Li    -0.010945   -0.032514   15.836237    ( 0.0000,  0.0000,  0.0000)
  28 Li     3.276712   -0.005369   15.346708    ( 0.0000,  0.0000,  0.0000)
  29 Li     6.415656    0.006352   15.167390    ( 0.0000,  0.0000,  0.0000)
  30 Li     0.021585    3.313278   15.366717    ( 0.0000,  0.0000,  0.0000)
  31 Li     3.232310    3.264276   15.428705    ( 0.0000,  0.0000,  0.0000)
  32 Li     6.465365    3.255245   15.319988    ( 0.0000,  0.0000,  0.0000)
  33 Li     0.026300    6.391860   15.412999    ( 0.0000,  0.0000,  0.0000)
  34 Li     3.212961    6.457586   15.468007    ( 0.0000,  0.0000,  0.0000)
  35 Li     6.431554    6.438461   15.370452    ( 0.0000,  0.0000,  0.0000)
  36 O      9.464738    9.658703   17.765205    ( 0.0000,  0.0000,  0.0000)
  37 C      7.156327    9.596126   18.700818    ( 0.0000,  0.0000,  0.0000)
  38 C      5.938445   10.484978   18.989850    ( 0.0000,  0.0000,  0.0000)
  39 C      8.436185   10.401328   18.483679    ( 0.0000,  0.0000,  0.0000)
  40 C      4.656331    9.677692   19.190399    ( 0.0000,  0.0000,  0.0000)
  41 H      7.296167    8.866785   19.507531    ( 0.0000,  0.0000,  0.0000)
  42 H      6.959293    9.009183   17.794448    ( 0.0000,  0.0000,  0.0000)
  43 H      5.798786   11.169572   18.144387    ( 0.0000,  0.0000,  0.0000)
  44 H      6.119470   11.109549   19.871759    ( 0.0000,  0.0000,  0.0000)
  45 H      8.239672   11.264981   17.843353    ( 0.0000,  0.0000,  0.0000)
  46 H      8.860869   10.764995   19.424242    ( 0.0000,  0.0000,  0.0000)
  47 H      4.461243    9.033939   18.327921    ( 0.0000,  0.0000,  0.0000)
  48 H      4.729180    9.044680   20.078097    ( 0.0000,  0.0000,  0.0000)
  49 H      3.794324   10.339006   19.305053    ( 0.0000,  0.0000,  0.0000)
  50 H      9.791294    8.934076   18.313640    ( 0.0000,  0.0000,  0.0000)

Unit cell:
           periodic     x           y           z      points  spacing
  1. axis:    yes    9.702222    0.000000    0.000000    60     0.1617
  2. axis:    yes    0.000000    9.702222    0.000000    60     0.1617
  3. axis:    no     0.000000    0.000000   24.851111   156     0.1593

  Lengths:   9.702222   9.702222  24.851111
  Angles:   90.000000  90.000000  90.000000

Effective grid spacing dv^(1/3) = 0.1609

     iter     time        total  log10-change:
                         energy  eigst   dens
iter:   1 13:30:07  -323.814405  -2.79
iter:   2 13:34:08  -323.813834  -3.48  -2.66
iter:   3 13:40:21  -323.813769c -4.12  -2.93
iter:   4 13:45:34  -323.813638c -4.22  -3.05
Writing to output.gpw (mode='')

iter:   5 13:49:41  -323.813622c -4.45  -3.29
iter:   6 13:53:28  -323.813603c -4.06  -3.38
iter:   7 13:57:14  -323.813597c -4.59  -3.63
iter:   8 14:00:19  -323.813597c -4.73  -3.75
iter:   9 14:05:16  -323.813594c -5.13  -3.71
Writing to output.gpw (mode='')

iter:  10 14:09:17  -323.813598c -4.93  -3.90
iter:  11 14:13:03  -323.813595c -5.93  -4.09c
iter:  12 14:17:51  -323.813599c -5.51  -4.14c
iter:  13 14:20:45  -323.813598c -5.75  -4.21c
iter:  14 14:23:41  -323.813597c -5.81  -4.39c
Writing to output.gpw (mode='')

iter:  15 14:26:57  -323.813596c -6.25  -4.42c
iter:  16 14:32:36  -323.813596c -6.66  -4.65c
iter:  17 14:36:36  -323.813596c -6.89  -4.70c
iter:  18 14:40:23  -323.813597c -7.06  -4.81c
iter:  19 14:44:12  -323.813597c -7.21  -4.89c
Writing to output.gpw (mode='')

iter:  20 14:47:15  -323.813597c -7.54c -5.07c

Converged after 20 iterations.

Dipole moment: (7.280593, -0.744250, 0.403702) |e|*Ang

Energy contributions relative to reference atoms: (reference = -13576.627914)

Kinetic:       +163.499436
Potential:     -157.606431
External:        +0.000000
XC:            -329.965152
Entropy (-ST):   -0.151393
Local:           +0.334247
--------------------------
Free energy:   -323.889293
Extrapolated:  -323.813597

Dipole-layer corrected work functions: 3.385283, 2.609229 eV

Showing only first 2 kpts
 Kpt  Band  Eigenvalues  Occupancy
  0    32     -3.25563    1.98867
  0    33     -3.16451    1.93188
  0    34     -2.83237    0.07130
  0    35     -2.75265    0.01490

  1    32     -3.01637    1.18882
  1    33     -3.00129    1.04036
  1    34     -2.95915    0.63636
  1    35     -2.93543    0.45007


Fermi level: -2.99726

No gap

Forces in eV/Ang:
  0 Li    0.00339   -0.00042   -0.26679
  1 Li    0.00126    0.00108   -0.28570
  2 Li   -0.00392    0.00659   -0.27507
  3 Li   -0.00104    0.00306   -0.28614
  4 Li    0.00248   -0.00087   -0.26045
  5 Li    0.00033   -0.00296   -0.28317
  6 Li    0.00436   -0.00250   -0.26850
  7 Li   -0.00463    0.00146   -0.28521
  8 Li    0.00010   -0.00409   -0.27239
  9 Li    0.01910   -0.01173    0.23998
 10 Li   -0.01883   -0.01458    0.27807
 11 Li    0.00061   -0.00798    0.32362
 12 Li    0.01891    0.02102    0.27170
 13 Li   -0.04150   -0.00428    0.24755
 14 Li    0.01707   -0.00148    0.28656
 15 Li    0.02455   -0.01061    0.25802
 16 Li   -0.04670    0.01218    0.24086
 17 Li    0.01594    0.00231    0.27807
 18 Li   -0.02357   -0.01489    0.00705
 19 Li    0.00590   -0.00705    0.00604
 20 Li    0.01265   -0.00006    0.00502
 21 Li   -0.00637   -0.00192   -0.01377
 22 Li    0.00341    0.00718   -0.02184
 23 Li    0.00811   -0.00274   -0.01954
 24 Li   -0.01151    0.01892   -0.00629
 25 Li    0.00309    0.02188    0.00828
 26 Li    0.00372    0.00948   -0.01182
 27 Li    0.03813   -0.00115   -0.03047
 28 Li    0.00301   -0.00257    0.01856
 29 Li   -0.03368   -0.00623    0.01222
 30 Li   -0.01270   -0.01626    0.00527
 31 Li    0.01438   -0.01624   -0.00229
 32 Li   -0.00196   -0.01055    0.01363
 33 Li   -0.02077   -0.00208   -0.00207
 34 Li    0.00396    0.01351   -0.01356
 35 Li    0.01844    0.01037    0.00980
 36 O    -0.01574    0.07168   -0.01144
 37 C     0.00415   -0.00167   -0.01767
 38 C     0.02438   -0.00478   -0.00754
 39 C     0.00007   -0.01656   -0.01509
 40 C    -0.00472    0.00204    0.00932
 41 H     0.01542   -0.00095    0.02226
 42 H     0.01715    0.01969   -0.01387
 43 H     0.02262    0.02000    0.02114
 44 H     0.03990    0.01603    0.00557
 45 H    -0.00978   -0.00311    0.01151
 46 H    -0.03974    0.01625    0.03033
 47 H     0.00670   -0.02593    0.00962
 48 H    -0.05359   -0.03544    0.00572
 49 H    -0.01320   -0.00137    0.05140
 50 H     0.00157   -0.05630    0.01904

System changes: positions 

Initializing position-dependent things.

Density initialized from wave functions
       .-----------------------.  
      /|                       |  
     / |                       |  
    /  |                       |  
   /   |                       |  
  /    |                       |  
 *     |          H            |  
 |     |           C     H     |  
 |     |                 C     |  
 |     H          H     H     O|  
 |     |                       |  
 |     |         H             Li 
 |     |       Li       H      |  
 |     |   H    C              |  
 |   Li|     Li      LC        |  
 |     |  Li      Li      Li   |  
 | Li  |   Li      Li          |  
 |     |Li      Li      Li     |  
 |     |         Li            |  
 |   LLi     LLi     LLi       |  
 |     |  Li      Li      Li   |  
 | Li  |   Li      Li          |  
 |     |Li      Li      Li     |  
 Li    | Li      Li            |  
 |    Li      Li      Li       |  
 |     |                       |  
 |     |                       |  
 |     |                       |  
 |     |                       |  
 |     |                       |  
 |     |                       |  
 |     .-----------------------.  
 |    /                       /   
 |   /                       /    
 |  /                       /     
 | /                       /      
 |/                       /       
 *-----------------------*        

Positions:
   0 Li     1.617037    1.617037   10.000000    ( 0.0000,  0.0000,  0.0000)
   1 Li     4.851111    1.617037   10.000000    ( 0.0000,  0.0000,  0.0000)
   2 Li     8.085185    1.617037   10.000000    ( 0.0000,  0.0000,  0.0000)
   3 Li     1.617037    4.851111   10.000000    ( 0.0000,  0.0000,  0.0000)
   4 Li     4.851111    4.851111   10.000000    ( 0.0000,  0.0000,  0.0000)
   5 Li     8.085185    4.851111   10.000000    ( 0.0000,  0.0000,  0.0000)
   6 Li     1.617037    8.085185   10.000000    ( 0.0000,  0.0000,  0.0000)
   7 Li     4.851111    8.085185   10.000000    ( 0.0000,  0.0000,  0.0000)
   8 Li     8.085185    8.085185   10.000000    ( 0.0000,  0.0000,  0.0000)
   9 Li     0.000000    0.000000   11.617037    ( 0.0000,  0.0000,  0.0000)
  10 Li     3.234074    0.000000   11.617037    ( 0.0000,  0.0000,  0.0000)
  11 Li     6.468148    0.000000   11.617037    ( 0.0000,  0.0000,  0.0000)
  12 Li     0.000000    3.234074   11.617037    ( 0.0000,  0.0000,  0.0000)
  13 Li     3.234074    3.234074   11.617037    ( 0.0000,  0.0000,  0.0000)
  14 Li     6.468148    3.234074   11.617037    ( 0.0000,  0.0000,  0.0000)
  15 Li     0.000000    6.468148   11.617037    ( 0.0000,  0.0000,  0.0000)
  16 Li     3.234074    6.468148   11.617037    ( 0.0000,  0.0000,  0.0000)
  17 Li     6.468148    6.468148   11.617037    ( 0.0000,  0.0000,  0.0000)
  18 Li     1.600554    1.599629   13.512222    ( 0.0000,  0.0000,  0.0000)
  19 Li     4.811158    1.656283   13.429214    ( 0.0000,  0.0000,  0.0000)
  20 Li     8.144305    1.605220   13.480512    ( 0.0000,  0.0000,  0.0000)
  21 Li     1.642930    4.859713   13.467144    ( 0.0000,  0.0000,  0.0000)
  22 Li     4.819653    4.854481   13.467335    ( 0.0000,  0.0000,  0.0000)
  23 Li     8.084219    4.864029   13.461858    ( 0.0000,  0.0000,  0.0000)
  24 Li     1.585285    8.093547   13.539095    ( 0.0000,  0.0000,  0.0000)
  25 Li     4.814271    8.027140   13.435797    ( 0.0000,  0.0000,  0.0000)
  26 Li     8.142466    8.075572   13.495579    ( 0.0000,  0.0000,  0.0000)
  27 Li    -0.008739   -0.033171   15.831080    ( 0.0000,  0.0000,  0.0000)
  28 Li     3.275564   -0.005774   15.348852    ( 0.0000,  0.0000,  0.0000)
  29 Li     6.412372    0.005767   15.168079    ( 0.0000,  0.0000,  0.0000)
  30 Li     0.020431    3.312586   15.367430    ( 0.0000,  0.0000,  0.0000)
  31 Li     3.232330    3.262041   15.426473    ( 0.0000,  0.0000,  0.0000)
  32 Li     6.466277    3.253813   15.319611    ( 0.0000,  0.0000,  0.0000)
  33 Li     0.023524    6.392388   15.412376    ( 0.0000,  0.0000,  0.0000)
  34 Li     3.212350    6.460191   15.465252    ( 0.0000,  0.0000,  0.0000)
  35 Li     6.434512    6.440177   15.370651    ( 0.0000,  0.0000,  0.0000)
  36 O      9.469066    9.659742   17.764916    ( 0.0000,  0.0000,  0.0000)
  37 C      7.156335    9.595489   18.699784    ( 0.0000,  0.0000,  0.0000)
  38 C      5.938333   10.485238   18.990337    ( 0.0000,  0.0000,  0.0000)
  39 C      8.437550   10.400209   18.484593    ( 0.0000,  0.0000,  0.0000)
  40 C      4.655458    9.676792   19.193726    ( 0.0000,  0.0000,  0.0000)
  41 H      7.291152    8.865124   19.507619    ( 0.0000,  0.0000,  0.0000)
  42 H      6.961499    9.011367   17.791039    ( 0.0000,  0.0000,  0.0000)
  43 H      5.796412   11.173578   18.148102    ( 0.0000,  0.0000,  0.0000)
  44 H      6.122675   11.109626   19.871415    ( 0.0000,  0.0000,  0.0000)
  45 H      8.239073   11.262943   17.843253    ( 0.0000,  0.0000,  0.0000)
  46 H      8.859117   10.767325   19.426618    ( 0.0000,  0.0000,  0.0000)
  47 H      4.460000    9.033377   18.331313    ( 0.0000,  0.0000,  0.0000)
  48 H      4.724918    9.040993   20.080181    ( 0.0000,  0.0000,  0.0000)
  49 H      3.794465   10.339124   19.310216    ( 0.0000,  0.0000,  0.0000)
  50 H      9.796706    8.933562   18.312698    ( 0.0000,  0.0000,  0.0000)

Unit cell:
           periodic     x           y           z      points  spacing
  1. axis:    yes    9.702222    0.000000    0.000000    60     0.1617
  2. axis:    yes    0.000000    9.702222    0.000000    60     0.1617
  3. axis:    no     0.000000    0.000000   24.851111   156     0.1593

  Lengths:   9.702222   9.702222  24.851111
  Angles:   90.000000  90.000000  90.000000

Effective grid spacing dv^(1/3) = 0.1609

     iter     time        total  log10-change:
                         energy  eigst   dens
iter:   1 14:50:58  -323.816361  -2.23
iter:   2 14:55:29  -323.815639  -3.01  -2.52
iter:   3 15:00:15  -323.815469c -3.63  -2.71
iter:   4 15:04:39  -323.814984c -3.59  -2.78
Writing to output.gpw (mode='')

iter:   5 15:09:34  -323.814952c -3.99  -3.02
iter:   6 15:14:07  -323.814856c -3.51  -3.10
iter:   7 15:19:11  -323.814838c -4.11  -3.32
iter:   8 15:25:14  -323.814846c -4.21  -3.43
iter:   9 15:29:08  -323.814832c -4.50  -3.44
Writing to output.gpw (mode='')

iter:  10 15:34:48  -323.814841c -4.61  -3.65
iter:  11 15:39:12  -323.814836c -5.41  -3.77
iter:  12 15:45:31  -323.814842c -5.04  -3.82
iter:  13 15:50:42  -323.814840c -4.83  -3.93
iter:  14 15:56:23  -323.814837c -5.71  -3.95
Writing to output.gpw (mode='')

iter:  15 16:03:13  -323.814834c -5.48  -4.09c
iter:  16 16:07:45  -323.814835c -5.85  -4.20c
iter:  17 16:13:57  -323.814835c -6.12  -4.28c
iter:  18 16:19:27  -323.814835c -6.14  -4.53c
iter:  19 16:24:45  -323.814835c -6.95  -4.53c
Writing to output.gpw (mode='')

iter:  20 16:29:35  -323.814836c -6.41  -4.60c
iter:  21 16:33:33  -323.814835c -6.64  -4.76c
iter:  22 16:37:25  -323.814835c -7.40  -4.75c
iter:  23 16:42:21  -323.814836c -6.82  -4.96c
iter:  24 16:44:54  -323.814835c -7.40  -4.99c
Writing to output.gpw (mode='')

iter:  25 16:47:36  -323.814836c -7.72c -5.37c

Converged after 25 iterations.

Dipole moment: (7.214925, -0.714107, 0.402785) |e|*Ang

Energy contributions relative to reference atoms: (reference = -13576.627914)

Kinetic:       +163.094386
Potential:     -157.304232
External:        +0.000000
XC:            -329.863342
Entropy (-ST):   -0.151408
Local:           +0.334056
--------------------------
Free energy:   -323.890540
Extrapolated:  -323.814836

Dipole-layer corrected work functions: 3.385281, 2.610991 eV

Showing only first 2 kpts
 Kpt  Band  Eigenvalues  Occupancy
  0    32     -3.25634    1.98863
  0    33     -3.16557    1.93212
  0    34     -2.83289    0.07081
  0    35     -2.75334    0.01484

  1    32     -3.01687    1.18519
  1    33     -3.00196    1.03820
  1    34     -2.95983    0.63464
  1    35     -2.93731    0.45713


Fermi level: -2.99814

No gap

Forces in eV/Ang:
  0 Li    0.00355   -0.00038   -0.26699
  1 Li    0.00121    0.00084   -0.28573
  2 Li   -0.00401    0.00672   -0.27508
  3 Li   -0.00118    0.00303   -0.28633
  4 Li    0.00258   -0.00090   -0.26046
  5 Li    0.00036   -0.00301   -0.28322
  6 Li    0.00437   -0.00234   -0.26870
  7 Li   -0.00466    0.00153   -0.28521
  8 Li    0.00018   -0.00405   -0.27241
  9 Li    0.01979   -0.01163    0.24192
 10 Li   -0.02052   -0.01447    0.27858
 11 Li    0.00135   -0.00796    0.32247
 12 Li    0.01917    0.01906    0.27265
 13 Li   -0.04056   -0.00441    0.24877
 14 Li    0.01631   -0.00146    0.28607
 15 Li    0.02456   -0.01007    0.26042
 16 Li   -0.04732    0.01223    0.24283
 17 Li    0.01676    0.00252    0.27867
 18 Li   -0.02515   -0.01514    0.00142
 19 Li    0.00446   -0.00636    0.00639
 20 Li    0.01467   -0.00024    0.00355
 21 Li   -0.00790    0.00062   -0.01350
 22 Li    0.00266    0.00626   -0.02478
 23 Li    0.00864   -0.00031   -0.01916
 24 Li   -0.01082    0.01864   -0.01334
 25 Li    0.00245    0.02024    0.01033
 26 Li    0.00342    0.00886   -0.01576
 27 Li    0.03318   -0.00041   -0.01161
 28 Li    0.00482   -0.00202    0.01788
 29 Li   -0.03105   -0.00558    0.01335
 30 Li   -0.01203   -0.01574    0.00540
 31 Li    0.01530   -0.01431    0.00021
 32 Li   -0.00314   -0.00904    0.01475
 33 Li   -0.01824   -0.00398   -0.00148
 34 Li    0.00491    0.01101   -0.01121
 35 Li    0.01537    0.00874    0.00954
 36 O    -0.02488    0.04382    0.04138
 37 C     0.00621   -0.00462   -0.00736
 38 C     0.02017   -0.02441    0.00829
 39 C     0.00162    0.00015   -0.01001
 40 C     0.01128    0.02053    0.00263
 41 H     0.03003    0.01198   -0.00897
 42 H     0.00726    0.01429   -0.00449
 43 H     0.02166   -0.00671    0.00747
 44 H     0.03417    0.00708    0.02254
 45 H    -0.00034   -0.00682    0.01523
 46 H    -0.03842   -0.01037   -0.00777
 47 H     0.00013   -0.01956   -0.00383
 48 H    -0.02686   -0.01329    0.00094
 49 H    -0.01519   -0.00400    0.04332
 50 H    -0.02116   -0.01485   -0.00823

System changes: positions 

Initializing position-dependent things.

Density initialized from wave functions
       .-----------------------.  
      /|                       |  
     / |                       |  
    /  |                       |  
   /   |                       |  
  /    |                       |  
 *     |          H            |  
 |     |          C      H     |  
 |     |                 C     |  
 |     H          H     H     O|  
 |     |                       |  
 |     |         H             Li 
 |     |       Li       H      |  
 |     |   H    C              |  
 |   Li|     Li      LC        |  
 |     |  Li      Li      Li   |  
 | Li  |   Li      Li          |  
 |     |Li      Li      Li     |  
 |     |         Li            |  
 |   LLi     LLi     LLi       |  
 |     |  Li      Li      Li   |  
 | Li  |   Li      Li          |  
 |     |Li      Li      Li     |  
 Li    | Li      Li            |  
 |    Li      Li      Li       |  
 |     |                       |  
 |     |                       |  
 |     |                       |  
 |     |                       |  
 |     |                       |  
 |     |                       |  
 |     .-----------------------.  
 |    /                       /   
 |   /                       /    
 |  /                       /     
 | /                       /      
 |/                       /       
 *-----------------------*        

Positions:
   0 Li     1.617037    1.617037   10.000000    ( 0.0000,  0.0000,  0.0000)
   1 Li     4.851111    1.617037   10.000000    ( 0.0000,  0.0000,  0.0000)
   2 Li     8.085185    1.617037   10.000000    ( 0.0000,  0.0000,  0.0000)
   3 Li     1.617037    4.851111   10.000000    ( 0.0000,  0.0000,  0.0000)
   4 Li     4.851111    4.851111   10.000000    ( 0.0000,  0.0000,  0.0000)
   5 Li     8.085185    4.851111   10.000000    ( 0.0000,  0.0000,  0.0000)
   6 Li     1.617037    8.085185   10.000000    ( 0.0000,  0.0000,  0.0000)
   7 Li     4.851111    8.085185   10.000000    ( 0.0000,  0.0000,  0.0000)
   8 Li     8.085185    8.085185   10.000000    ( 0.0000,  0.0000,  0.0000)
   9 Li     0.000000    0.000000   11.617037    ( 0.0000,  0.0000,  0.0000)
  10 Li     3.234074    0.000000   11.617037    ( 0.0000,  0.0000,  0.0000)
  11 Li     6.468148    0.000000   11.617037    ( 0.0000,  0.0000,  0.0000)
  12 Li     0.000000    3.234074   11.617037    ( 0.0000,  0.0000,  0.0000)
  13 Li     3.234074    3.234074   11.617037    ( 0.0000,  0.0000,  0.0000)
  14 Li     6.468148    3.234074   11.617037    ( 0.0000,  0.0000,  0.0000)
  15 Li     0.000000    6.468148   11.617037    ( 0.0000,  0.0000,  0.0000)
  16 Li     3.234074    6.468148   11.617037    ( 0.0000,  0.0000,  0.0000)
  17 Li     6.468148    6.468148   11.617037    ( 0.0000,  0.0000,  0.0000)
  18 Li     1.598668    1.597307   13.515161    ( 0.0000,  0.0000,  0.0000)
  19 Li     4.812767    1.654981   13.429027    ( 0.0000,  0.0000,  0.0000)
  20 Li     8.145234    1.604412   13.481745    ( 0.0000,  0.0000,  0.0000)
  21 Li     1.642712    4.858445   13.465648    ( 0.0000,  0.0000,  0.0000)
  22 Li     4.820884    4.855487   13.466461    ( 0.0000,  0.0000,  0.0000)
  23 Li     8.084415    4.862611   13.459762    ( 0.0000,  0.0000,  0.0000)
  24 Li     1.584127    8.096595   13.540804    ( 0.0000,  0.0000,  0.0000)
  25 Li     4.815589    8.030142   13.435144    ( 0.0000,  0.0000,  0.0000)
  26 Li     8.143300    8.078130   13.495640    ( 0.0000,  0.0000,  0.0000)
  27 Li    -0.002120   -0.032852   15.831254    ( 0.0000,  0.0000,  0.0000)
  28 Li     3.277649   -0.006010   15.351415    ( 0.0000,  0.0000,  0.0000)
  29 Li     6.410046    0.004989   15.170609    ( 0.0000,  0.0000,  0.0000)
  30 Li     0.018818    3.312060   15.368282    ( 0.0000,  0.0000,  0.0000)
  31 Li     3.233424    3.259374   15.424084    ( 0.0000,  0.0000,  0.0000)
  32 Li     6.466539    3.252317   15.319895    ( 0.0000,  0.0000,  0.0000)
  33 Li     0.020668    6.393278   15.410341    ( 0.0000,  0.0000,  0.0000)
  34 Li     3.212751    6.462623   15.461311    ( 0.0000,  0.0000,  0.0000)
  35 Li     6.438020    6.442329   15.370388    ( 0.0000,  0.0000,  0.0000)
  36 O      9.472128    9.660400   17.767527    ( 0.0000,  0.0000,  0.0000)
  37 C      7.157866    9.596073   18.702528    ( 0.0000,  0.0000,  0.0000)
  38 C      5.938880   10.485757   18.989599    ( 0.0000,  0.0000,  0.0000)
  39 C      8.438500   10.400894   18.485418    ( 0.0000,  0.0000,  0.0000)
  40 C      4.655182    9.676101   19.190886    ( 0.0000,  0.0000,  0.0000)
  41 H      7.292303    8.869305   19.513927    ( 0.0000,  0.0000,  0.0000)
  42 H      6.964063    9.011201   17.794756    ( 0.0000,  0.0000,  0.0000)
  43 H      5.799421   11.174476   18.147381    ( 0.0000,  0.0000,  0.0000)
  44 H      6.121492   11.112071   19.869577    ( 0.0000,  0.0000,  0.0000)
  45 H      8.238515   11.261226   17.842014    ( 0.0000,  0.0000,  0.0000)
  46 H      8.855838   10.772563   19.428108    ( 0.0000,  0.0000,  0.0000)
  47 H      4.462164    9.031296   18.328840    ( 0.0000,  0.0000,  0.0000)
  48 H      4.719400    9.039234   20.077501    ( 0.0000,  0.0000,  0.0000)
  49 H      3.793651   10.337914   19.305819    ( 0.0000,  0.0000,  0.0000)
  50 H      9.791956    8.928548   18.311333    ( 0.0000,  0.0000,  0.0000)

Unit cell:
           periodic     x           y           z      points  spacing
  1. axis:    yes    9.702222    0.000000    0.000000    60     0.1617
  2. axis:    yes    0.000000    9.702222    0.000000    60     0.1617
  3. axis:    no     0.000000    0.000000   24.851111   156     0.1593

  Lengths:   9.702222   9.702222  24.851111
  Angles:   90.000000  90.000000  90.000000

Effective grid spacing dv^(1/3) = 0.1609

     iter     time        total  log10-change:
                         energy  eigst   dens
iter:   1 16:51:15  -323.817215  -2.14
iter:   2 16:55:59  -323.816893  -2.93  -2.57
iter:   3 16:58:29  -323.816020c -3.46  -2.65
iter:   4 17:01:56  -323.816010c -3.93  -2.93
Writing to output.gpw (mode='')

iter:   5 17:06:11  -323.815887c -3.65  -2.96
iter:   6 17:10:57  -323.815856c -3.52  -3.12
iter:   7 17:14:30  -323.815821c -4.28  -3.22
iter:   8 17:18:53  -323.815827c -4.31  -3.41
iter:   9 17:21:29  -323.815825c -4.98  -3.62
Writing to output.gpw (mode='')

iter:  10 17:25:40  -323.815820c -5.18  -3.71
iter:  11 17:28:24  -323.815822c -4.92  -3.88
iter:  12 17:32:59  -323.815820c -5.49  -4.07c
iter:  13 17:36:15  -323.815820c -5.85  -4.12c
iter:  14 17:43:12  -323.815819c -5.69  -4.21c
Writing to output.gpw (mode='')

iter:  15 17:46:24  -323.815819c -5.78  -4.34c
iter:  16 17:49:20  -323.815819c -6.14  -4.28c
iter:  17 17:51:46  -323.815820c -6.23  -4.33c
iter:  18 17:55:08  -323.815820c -6.60  -4.67c
iter:  19 17:58:23  -323.815820c -6.90  -4.77c
Writing to output.gpw (mode='')

iter:  20 18:02:06  -323.815820c -6.80  -4.83c
iter:  21 18:07:23  -323.815821c -6.92  -4.99c
iter:  22 18:14:04  -323.815820c -7.33  -5.04c
iter:  23 18:17:28  -323.815821c -7.43c -5.16c

Converged after 23 iterations.

Dipole moment: (7.191587, -0.745049, 0.402023) |e|*Ang

Energy contributions relative to reference atoms: (reference = -13576.627914)

Kinetic:       +163.016619
Potential:     -157.244281
External:        +0.000000
XC:            -329.846130
Entropy (-ST):   -0.151455
Local:           +0.333699
--------------------------
Free energy:   -323.891548
Extrapolated:  -323.815821

Dipole-layer corrected work functions: 3.385428, 2.612602 eV

Showing only first 2 kpts
 Kpt  Band  Eigenvalues  Occupancy
  0    32     -3.25727    1.98864
  0    33     -3.16659    1.93231
  0    34     -2.83342    0.07033
  0    35     -2.75423    0.01485

  1    32     -3.01751    1.18288
  1    33     -3.00263    1.03613
  1    34     -2.96037    0.63175
  1    35     -2.93896    0.46253


Fermi level: -2.99901

No gap
Writing to output.gpw (mode='')


Forces in eV/Ang:
  0 Li    0.00354   -0.00047   -0.26713
  1 Li    0.00116    0.00056   -0.28588
  2 Li   -0.00401    0.00676   -0.27498
  3 Li   -0.00137    0.00297   -0.28655
  4 Li    0.00263   -0.00100   -0.26036
  5 Li    0.00036   -0.00299   -0.28330
  6 Li    0.00424   -0.00210   -0.26886
  7 Li   -0.00461    0.00167   -0.28511
  8 Li    0.00021   -0.00409   -0.27248
  9 Li    0.01989   -0.01097    0.24014
 10 Li   -0.02143   -0.01361    0.27849
 11 Li    0.00264   -0.00716    0.32102
 12 Li    0.01963    0.01691    0.27236
 13 Li   -0.04027   -0.00619    0.25044
 14 Li    0.01641   -0.00260    0.28546
 15 Li    0.02477   -0.00874    0.26141
 16 Li   -0.04755    0.01393    0.24478
 17 Li    0.01763    0.00390    0.27867
 18 Li   -0.02257   -0.01339   -0.00189
 19 Li    0.00289   -0.00531    0.00606
 20 Li    0.01290   -0.00101    0.00297
 21 Li   -0.00834    0.00163   -0.01114
 22 Li    0.00252    0.00536   -0.02342
 23 Li    0.00792    0.00074   -0.01630
 24 Li   -0.00909    0.01593   -0.01596
 25 Li    0.00157    0.01712    0.01014
 26 Li    0.00213    0.00808   -0.01582
 27 Li    0.02708    0.00037   -0.00191
 28 Li    0.00412   -0.00132    0.01670
 29 Li   -0.02580   -0.00456    0.01304
 30 Li   -0.01039   -0.01389    0.00511
 31 Li    0.01425   -0.01231    0.00093
 32 Li   -0.00351   -0.00661    0.01372
 33 Li   -0.01510   -0.00507   -0.00144
 34 Li    0.00470    0.00902   -0.00971
 35 Li    0.01239    0.00648    0.00821
 36 O    -0.04644    0.07333    0.04348
 37 C     0.00874    0.00053    0.00007
 38 C     0.01085   -0.03384    0.02147
 39 C     0.00113    0.00411    0.00756
 40 C     0.02009    0.02219    0.01222
 41 H     0.02925    0.00794   -0.02303
 42 H     0.00512   -0.00857   -0.00744
 43 H     0.01182   -0.01523   -0.00161
 44 H     0.03010    0.00053    0.03309
 45 H     0.00386    0.00097    0.00431
 46 H    -0.02240   -0.02516   -0.02728
 47 H    -0.00228   -0.00932   -0.00638
 48 H    -0.00517    0.00433   -0.00360
 49 H    -0.01695   -0.00019    0.03304
 50 H    -0.01116   -0.03763    0.01449

System changes: positions 

Initializing position-dependent things.

Density initialized from wave functions
       .-----------------------.  
      /|                       |  
     / |                       |  
    /  |                       |  
   /   |                       |  
  /    |                       |  
 *     |          H            |  
 |     |          C      H     |  
 |     |                 C     |  
 |     H          H     H     O|  
 |     |                       |  
 |     Li        H             |  
 |     |       Li       H      |  
 |     |   H    C              |  
 |   Li|     Li      LC        |  
 |     |  Li      Li      Li   |  
 | Li  |   Li      Li          |  
 |     |Li      Li      Li     |  
 |     |         Li            |  
 |   LLi     LLi     LLi       |  
 |     |  Li      Li      Li   |  
 | Li  |   Li      Li          |  
 |     |Li      Li      Li     |  
 Li    | Li      Li            |  
 |    Li      Li      Li       |  
 |     |                       |  
 |     |                       |  
 |     |                       |  
 |     |                       |  
 |     |                       |  
 |     |                       |  
 |     .-----------------------.  
 |    /                       /   
 |   /                       /    
 |  /                       /     
 | /                       /      
 |/                       /       
 *-----------------------*        

Positions:
   0 Li     1.617037    1.617037   10.000000    ( 0.0000,  0.0000,  0.0000)
   1 Li     4.851111    1.617037   10.000000    ( 0.0000,  0.0000,  0.0000)
   2 Li     8.085185    1.617037   10.000000    ( 0.0000,  0.0000,  0.0000)
   3 Li     1.617037    4.851111   10.000000    ( 0.0000,  0.0000,  0.0000)
   4 Li     4.851111    4.851111   10.000000    ( 0.0000,  0.0000,  0.0000)
   5 Li     8.085185    4.851111   10.000000    ( 0.0000,  0.0000,  0.0000)
   6 Li     1.617037    8.085185   10.000000    ( 0.0000,  0.0000,  0.0000)
   7 Li     4.851111    8.085185   10.000000    ( 0.0000,  0.0000,  0.0000)
   8 Li     8.085185    8.085185   10.000000    ( 0.0000,  0.0000,  0.0000)
   9 Li     0.000000    0.000000   11.617037    ( 0.0000,  0.0000,  0.0000)
  10 Li     3.234074    0.000000   11.617037    ( 0.0000,  0.0000,  0.0000)
  11 Li     6.468148    0.000000   11.617037    ( 0.0000,  0.0000,  0.0000)
  12 Li     0.000000    3.234074   11.617037    ( 0.0000,  0.0000,  0.0000)
  13 Li     3.234074    3.234074   11.617037    ( 0.0000,  0.0000,  0.0000)
  14 Li     6.468148    3.234074   11.617037    ( 0.0000,  0.0000,  0.0000)
  15 Li     0.000000    6.468148   11.617037    ( 0.0000,  0.0000,  0.0000)
  16 Li     3.234074    6.468148   11.617037    ( 0.0000,  0.0000,  0.0000)
  17 Li     6.468148    6.468148   11.617037    ( 0.0000,  0.0000,  0.0000)
  18 Li     1.596029    1.594305   13.517593    ( 0.0000,  0.0000,  0.0000)
  19 Li     4.813721    1.654000   13.425473    ( 0.0000,  0.0000,  0.0000)
  20 Li     8.146758    1.603397   13.480153    ( 0.0000,  0.0000,  0.0000)
  21 Li     1.643365    4.856460   13.462639    ( 0.0000,  0.0000,  0.0000)
  22 Li     4.822580    4.857464   13.465579    ( 0.0000,  0.0000,  0.0000)
  23 Li     8.084360    4.860341   13.454834    ( 0.0000,  0.0000,  0.0000)
  24 Li     1.581676    8.100484   13.542795    ( 0.0000,  0.0000,  0.0000)
  25 Li     4.815997    8.033584   13.431302    ( 0.0000,  0.0000,  0.0000)
  26 Li     8.144749    8.081240   13.493517    ( 0.0000,  0.0000,  0.0000)
  27 Li     0.002679   -0.034860   15.833311    ( 0.0000,  0.0000,  0.0000)
  28 Li     3.280707   -0.006613   15.353455    ( 0.0000,  0.0000,  0.0000)
  29 Li     6.403037    0.004120   15.169341    ( 0.0000,  0.0000,  0.0000)
  30 Li     0.015642    3.310941   15.368064    ( 0.0000,  0.0000,  0.0000)
  31 Li     3.235190    3.254608   15.420072    ( 0.0000,  0.0000,  0.0000)
  32 Li     6.467932    3.247066   15.318652    ( 0.0000,  0.0000,  0.0000)
  33 Li     0.015269    6.394269   15.406233    ( 0.0000,  0.0000,  0.0000)
  34 Li     3.212550    6.467544   15.456202    ( 0.0000,  0.0000,  0.0000)
  35 Li     6.443762    6.447701   15.369139    ( 0.0000,  0.0000,  0.0000)
  36 O      9.474030    9.660493   17.772380    ( 0.0000,  0.0000,  0.0000)
  37 C      7.158981    9.594549   18.706806    ( 0.0000,  0.0000,  0.0000)
  38 C      5.940484   10.484904   18.997254    ( 0.0000,  0.0000,  0.0000)
  39 C      8.438045   10.399844   18.488209    ( 0.0000,  0.0000,  0.0000)
  40 C      4.655122    9.675438   19.199903    ( 0.0000,  0.0000,  0.0000)
  41 H      7.298607    8.867172   19.517508    ( 0.0000,  0.0000,  0.0000)
  42 H      6.962506    9.014591   17.797302    ( 0.0000,  0.0000,  0.0000)
  43 H      5.802764   11.175494   18.155911    ( 0.0000,  0.0000,  0.0000)
  44 H      6.123221   11.112521   19.876665    ( 0.0000,  0.0000,  0.0000)
  45 H      8.236753   11.258523   17.843763    ( 0.0000,  0.0000,  0.0000)
  46 H      8.847491   10.774098   19.433513    ( 0.0000,  0.0000,  0.0000)
  47 H      4.459610    9.029361   18.338902    ( 0.0000,  0.0000,  0.0000)
  48 H      4.716195    9.037729   20.086773    ( 0.0000,  0.0000,  0.0000)
  49 H      3.793299   10.337019   19.318837    ( 0.0000,  0.0000,  0.0000)
  50 H      9.790994    8.925231   18.314167    ( 0.0000,  0.0000,  0.0000)

Unit cell:
           periodic     x           y           z      points  spacing
  1. axis:    yes    9.702222    0.000000    0.000000    60     0.1617
  2. axis:    yes    0.000000    9.702222    0.000000    60     0.1617
  3. axis:    no     0.000000    0.000000   24.851111   156     0.1593

  Lengths:   9.702222   9.702222  24.851111
  Angles:   90.000000  90.000000  90.000000

Effective grid spacing dv^(1/3) = 0.1609

     iter     time        total  log10-change:
                         energy  eigst   dens
iter:   1 18:22:11  -323.836115  -1.56
iter:   2 18:25:38  -323.823436  -2.22  -1.96
iter:   3 18:29:21  -323.820472c -3.12  -2.24
iter:   4 18:35:36  -323.818361c -3.32  -2.44
Writing to output.gpw (mode='')

iter:   5 18:45:14  -323.818210c -3.57  -2.70
iter:   6 18:53:53  -323.817542c -2.77  -2.72
iter:   7 19:01:49  -323.817531c -3.17  -3.02
iter:   8 19:09:00  -323.817496c -3.81  -3.07
iter:   9 19:15:12  -323.817480c -3.76  -3.21
Writing to output.gpw (mode='')

iter:  10 19:22:19  -323.817471c -3.78  -3.29
iter:  11 19:28:17  -323.817481c -4.78  -3.50
iter:  12 19:32:43  -323.817491c -4.70  -3.55
iter:  13 19:38:02  -323.817483c -4.94  -3.57
iter:  14 19:41:39  -323.817472c -4.66  -3.75
Writing to output.gpw (mode='')

iter:  15 19:45:27  -323.817476c -5.31  -3.84
