
  ___ ___ ___ _ _ _  
 |   |   |_  | | | | 
 | | | | | . | | | | 
 |__ |  _|___|_____|  22.8.0
 |___|_|             

User:   vazumah@d010
Date:   Fri Mar  3 06:01:15 2023
Arch:   x86_64
Pid:    13871
CWD:    /home/vazumah/Research_Projects/LiMEAS/LiNRR_proton_donors/on_pure_surface/Li_BCC100/adsorbates/butanol_x/ontop/9.702_9.702
Python: 3.10.6
gpaw:   /home/vazumah/anaconda3/envs/NAME/lib/python3.10/site-packages/gpaw
_gpaw:  /home/vazumah/anaconda3/envs/NAME/lib/python3.10/site-packages/
        _gpaw.cpython-310-x86_64-linux-gnu.so
ase:    /home/vazumah/anaconda3/envs/NAME/lib/python3.10/site-packages/ase (version 3.22.1)
numpy:  /home/vazumah/anaconda3/envs/NAME/lib/python3.10/site-packages/numpy (version 1.23.3)
scipy:  /home/vazumah/anaconda3/envs/NAME/lib/python3.10/site-packages/scipy (version 1.9.1)
libxc:  5.2.3
units:  Angstrom and eV
cores: 32
OpenMP: True
OMP_NUM_THREADS: 1

Input parameters:
  h: 0.16
  kpts: {size: [4, 4, 1]}
  occupations: {name: fermi-dirac,
                width: 0.05}
  poissonsolver: {dipolelayer: xy}
  xc: BEEF-vdW

System changes: positions, numbers, cell, pbc, initial_charges, initial_magmoms 

Initialize ...

species:
  Li:
    name: Lithium
    id: 830b4218f175192f93f959cfc0aad614
    Z: 3.0
    valence: 1
    core: 2
    charge: 0.0
    file: /home/vazumah/anaconda3/envs/NAME/share/gpaw/Li.PBE.gz
    compensation charges: {type: gauss,
                           rc: 0.33,
                           lmax: 2}
    cutoffs: {filter: 1.91,
              core: 2.55}
    valence states:
      #              energy  rcut
      - 2s(1.00)    -2.874   1.058
      - 2p(0.00)    -1.090   1.058
      -  s          24.337   1.058
  
    # Using partial waves for Li as LCAO basis

  O:
    name: Oxygen
    id: 32ecd46bf208036f09c70b0ec9a88b78
    Z: 8.0
    valence: 6
    core: 2
    charge: 0.0
    file: /home/vazumah/anaconda3/envs/NAME/share/gpaw/O.PBE.gz
    compensation charges: {type: gauss,
                           rc: 0.21,
                           lmax: 2}
    cutoffs: {filter: 1.17,
              core: 0.83}
    valence states:
      #              energy  rcut
      - 2s(2.00)   -23.961   0.688
      - 2p(4.00)    -9.029   0.598
      -  s           3.251   0.688
      -  p          18.182   0.598
      -  d           0.000   0.619
  
    # Using partial waves for O as LCAO basis

  C:
    name: Carbon
    id: 4aa54d4b901d75f77cc0ea3eec22967b
    Z: 6.0
    valence: 4
    core: 2
    charge: 0.0
    file: /home/vazumah/anaconda3/envs/NAME/share/gpaw/C.PBE.gz
    compensation charges: {type: gauss,
                           rc: 0.20,
                           lmax: 2}
    cutoffs: {filter: 1.14,
              core: 1.14}
    valence states:
      #              energy  rcut
      - 2s(2.00)   -13.751   0.635
      - 2p(2.00)    -5.284   0.635
      -  s          13.461   0.635
      -  p          21.927   0.635
      -  d           0.000   0.635
  
    # Using partial waves for C as LCAO basis

  H:
    name: Hydrogen
    id: d65de229564ff8ea4db303e23b6d1ecf
    Z: 1.0
    valence: 1
    core: 0
    charge: 0.0
    file: /home/vazumah/anaconda3/envs/NAME/share/gpaw/H.PBE.gz
    compensation charges: {type: gauss,
                           rc: 0.15,
                           lmax: 2}
    cutoffs: {filter: 0.85,
              core: 0.53}
    valence states:
      #              energy  rcut
      - 1s(1.00)    -6.494   0.476
      -  s          20.717   0.476
      -  p           0.000   0.476
  
    # Using partial waves for H as LCAO basis

Reference energy: -13576.627914  # eV

Spin-paired calculation

Convergence criteria:
 Maximum [total energy] change in last 3 cyles: 0.0005 eV / electron
 Maximum integral of absolute [dens]ity change: 0.0001 electrons / valence electron
 Maximum integral of absolute [eigenst]ate change: 4e-08 eV^2 / valence electron
 Maximum number of scf [iter]ations: 333
 (Square brackets indicate name in SCF output, whereas a 'c' in
 the SCF output indicates the quantity has converged.)

Symmetries present (total): 1

  ( 1  0  0)
  ( 0  1  0)
  ( 0  0  1)

16 k-points: 4 x 4 x 1 Monkhorst-Pack grid
8 k-points in the irreducible part of the Brillouin zone
       k-points in crystal coordinates                weights
   0:     0.12500000   -0.37500000    0.00000000          2/16
   1:     0.12500000   -0.12500000    0.00000000          2/16
   2:     0.12500000    0.12500000    0.00000000          2/16
   3:     0.12500000    0.37500000    0.00000000          2/16
   4:     0.37500000   -0.37500000    0.00000000          2/16
   5:     0.37500000   -0.12500000    0.00000000          2/16
   6:     0.37500000    0.12500000    0.00000000          2/16
   7:     0.37500000    0.37500000    0.00000000          2/16

Wave functions: Uniform real-space grid
  Kinetic energy operator: 6*3+1=19 point O(h^6) finite-difference Laplacian
  ScaLapack parameters: grid=1x1, blocksize=None
  Wavefunction extrapolation:
    Improved wavefunction reuse through dual PAW basis 

Occupation numbers: Fermi-Dirac:
  width: 0.0500  # eV
 

Eigensolver
   Davidson(niter=2) 

Densities:
  Coarse grid: 60*60*156 grid
  Fine grid: 120*120*312 grid
  Total Charge: 0.000000 

Density mixing:
  Method: separate
  Backend: pulay
  Linear mixing parameter: 0.05
  old densities: 5
  Damping of long wavelength oscillations: 50 

Hamiltonian:
  XC and Coulomb potentials evaluated on a 120*120*312 grid
  Using the BEEF-vdW Exchange-Correlation functional
  Interpolation: tri-quintic (5. degree polynomial)
  Poisson solver: FastPoissonSolver using
    Stencil: 6*3+1=19 point O(h^6) finite-difference Laplacian
    FFT axes: [0, 1]
    FST axes: [2]

Dipole correction along z-axis 

XC parameters: BEEF-vdW with 2 nearest neighbor stencil

Memory estimate:
  Process memory now: 212.18 MiB
  Calculator: 312.18 MiB
    Density: 88.90 MiB
      Arrays: 27.47 MiB
      Localized functions: 50.99 MiB
      Mixer: 10.44 MiB
    Hamiltonian: 21.99 MiB
      Arrays: 17.96 MiB
      XC: 0.00 MiB
      Poisson: 0.00 MiB
      vbar: 4.03 MiB
    Wavefunctions: 201.30 MiB
      Arrays psit_nG: 93.93 MiB
      Eigensolver: 104.68 MiB
      Projections: 0.05 MiB
      Projectors: 2.63 MiB

Total number of cores used: 32
Parallelization over k-points: 8
Domain decomposition: 1 x 1 x 4

Number of atoms: 51
Number of atomic orbitals: 174
Number of bands in calculation: 45
Number of valence electrons: 68
Bands to converge: occupied

... initialized

Initializing position-dependent things.

Density initialized from atomic densities
Creating initial wave functions:
  45 bands from LCAO basis set

       .-----------------------.  
      /|                       |  
     / |                       |  
    /  |                       |  
   /   |                       |  
  /    |                       |  
 *     |                       |  
 |     |          H      H     |  
 |     |           C     C     |  
 |     |          H     H      H  
 |     |                       |  
 |     |                       |  
 |     |         H     H       |  
 |     |        C      C       |  
 |   Li|   H Li  H   LiH O     |  
 |     |  Li      Li      Li   |  
 | Li  |   Li      Li          |  
 |     |Li      Li      Li     |  
 Li    | Li      Li            |  
 |   LLi     LLi     LLi       |  
 |     |  Li      Li      Li   |  
 | Li  |   Li      Li          |  
 |     |Li      Li      Li     |  
 Li    | Li      Li            |  
 |    Li      Li      Li       |  
 |     |                       |  
 |     |                       |  
 |     |                       |  
 |     |                       |  
 |     |                       |  
 |     |                       |  
 |     .-----------------------.  
 |    /                       /   
 |   /                       /    
 |  /                       /     
 | /                       /      
 |/                       /       
 *-----------------------*        

Positions:
   0 Li     1.617037    1.617037   10.000000    ( 0.0000,  0.0000,  0.0000)
   1 Li     4.851111    1.617037   10.000000    ( 0.0000,  0.0000,  0.0000)
   2 Li     8.085185    1.617037   10.000000    ( 0.0000,  0.0000,  0.0000)
   3 Li     1.617037    4.851111   10.000000    ( 0.0000,  0.0000,  0.0000)
   4 Li     4.851111    4.851111   10.000000    ( 0.0000,  0.0000,  0.0000)
   5 Li     8.085185    4.851111   10.000000    ( 0.0000,  0.0000,  0.0000)
   6 Li     1.617037    8.085185   10.000000    ( 0.0000,  0.0000,  0.0000)
   7 Li     4.851111    8.085185   10.000000    ( 0.0000,  0.0000,  0.0000)
   8 Li     8.085185    8.085185   10.000000    ( 0.0000,  0.0000,  0.0000)
   9 Li     0.000000    0.000000   11.617037    ( 0.0000,  0.0000,  0.0000)
  10 Li     3.234074    0.000000   11.617037    ( 0.0000,  0.0000,  0.0000)
  11 Li     6.468148    0.000000   11.617037    ( 0.0000,  0.0000,  0.0000)
  12 Li     0.000000    3.234074   11.617037    ( 0.0000,  0.0000,  0.0000)
  13 Li     3.234074    3.234074   11.617037    ( 0.0000,  0.0000,  0.0000)
  14 Li     6.468148    3.234074   11.617037    ( 0.0000,  0.0000,  0.0000)
  15 Li     0.000000    6.468148   11.617037    ( 0.0000,  0.0000,  0.0000)
  16 Li     3.234074    6.468148   11.617037    ( 0.0000,  0.0000,  0.0000)
  17 Li     6.468148    6.468148   11.617037    ( 0.0000,  0.0000,  0.0000)
  18 Li     1.617038    1.617038   13.469728    ( 0.0000,  0.0000,  0.0000)
  19 Li     4.851111    1.617038   13.469729    ( 0.0000,  0.0000,  0.0000)
  20 Li     8.085184    1.617038   13.469728    ( 0.0000,  0.0000,  0.0000)
  21 Li     1.617038    4.851111   13.469729    ( 0.0000,  0.0000,  0.0000)
  22 Li     4.851111    4.851111   13.469730    ( 0.0000,  0.0000,  0.0000)
  23 Li     8.085184    4.851111   13.469729    ( 0.0000,  0.0000,  0.0000)
  24 Li     1.617038    8.085184   13.469728    ( 0.0000,  0.0000,  0.0000)
  25 Li     4.851111    8.085184   13.469729    ( 0.0000,  0.0000,  0.0000)
  26 Li     8.085184    8.085184   13.469728    ( 0.0000,  0.0000,  0.0000)
  27 Li    -0.000000   -0.000000   15.445939    ( 0.0000,  0.0000,  0.0000)
  28 Li     3.234074    0.000000   15.445939    ( 0.0000,  0.0000,  0.0000)
  29 Li     6.468148    0.000000   15.445939    ( 0.0000,  0.0000,  0.0000)
  30 Li     0.000000    3.234074   15.445939    ( 0.0000,  0.0000,  0.0000)
  31 Li     3.234076    3.234076   15.445938    ( 0.0000,  0.0000,  0.0000)
  32 Li     6.468146    3.234076   15.445938    ( 0.0000,  0.0000,  0.0000)
  33 Li     0.000000    6.468148   15.445939    ( 0.0000,  0.0000,  0.0000)
  34 Li     3.234076    6.468146   15.445938    ( 0.0000,  0.0000,  0.0000)
  35 Li     6.468146    6.468146   15.445938    ( 0.0000,  0.0000,  0.0000)
  36 O      9.702222    9.702222   18.445939    ( 0.0000,  0.0000,  0.0000)
  37 C      7.235163    9.689881   18.481765    ( 0.0000,  0.0000,  0.0000)
  38 C      5.965601   10.544933   18.468355    ( 0.0000,  0.0000,  0.0000)
  39 C      8.517739   10.512701   18.446147    ( 0.0000,  0.0000,  0.0000)
  40 C      4.692891    9.693947   18.452726    ( 0.0000,  0.0000,  0.0000)
  41 H      7.249961    9.056712   19.375259    ( 0.0000,  0.0000,  0.0000)
  42 H      7.221846    9.019693   17.610409    ( 0.0000,  0.0000,  0.0000)
  43 H      5.978563   11.204008   17.592145    ( 0.0000,  0.0000,  0.0000)
  44 H      5.960698   11.201097   19.346325    ( 0.0000,  0.0000,  0.0000)
  45 H      8.511185   11.178268   17.572008    ( 0.0000,  0.0000,  0.0000)
  46 H      8.602255   11.136016   19.340765    ( 0.0000,  0.0000,  0.0000)
  47 H      4.665305    9.051467   17.568683    ( 0.0000,  0.0000,  0.0000)
  48 H      4.647574    9.043934   19.330177    ( 0.0000,  0.0000,  0.0000)
  49 H      3.789717   10.307673   18.446581    ( 0.0000,  0.0000,  0.0000)
  50 H      9.652912    9.113123   17.683760    ( 0.0000,  0.0000,  0.0000)

Unit cell:
           periodic     x           y           z      points  spacing
  1. axis:    yes    9.702222    0.000000    0.000000    60     0.1617
  2. axis:    yes    0.000000    9.702222    0.000000    60     0.1617
  3. axis:    no     0.000000    0.000000   24.851111   156     0.1593

  Lengths:   9.702222   9.702222  24.851111
  Angles:   90.000000  90.000000  90.000000

Effective grid spacing dv^(1/3) = 0.1609

     iter     time        total  log10-change:
                         energy  eigst   dens
iter:   1 06:02:01  -556.897734
iter:   2 06:02:28  -117.448934  +2.67  -0.00
iter:   3 06:02:54  -111.991990  +3.04  -0.23
iter:   4 06:03:20  -235.129514  +3.21  -0.31
Writing to output.gpw (mode='')

iter:   5 06:03:48  -275.575191  +2.66  -0.37
iter:   6 06:04:14  -310.135994  +2.30  -0.66
iter:   7 06:04:40  -324.111494  +1.96  -0.67
iter:   8 06:05:07  -328.769332  +1.68  -0.65
iter:   9 06:05:33  -335.562984  +1.53  -0.69
Writing to output.gpw (mode='')

iter:  10 06:06:00  -337.707081  +1.19  -0.70
iter:  11 06:06:27  -348.159651  +1.21  -0.70
iter:  12 06:06:53  -332.742561  +0.73  -0.66
iter:  13 06:07:19  -325.013057  +1.10  -0.77
iter:  14 06:07:45  -324.738141  +0.70  -0.82
Writing to output.gpw (mode='')

iter:  15 06:08:12  -326.364419  +1.04  -0.87
iter:  16 06:08:38  -324.668569  +1.05  -0.84
iter:  17 06:09:05  -324.015402  +0.64  -0.99
iter:  18 06:09:31  -323.647001  -0.00  -1.08
iter:  19 06:09:57  -323.429539  -0.22  -1.22
Writing to output.gpw (mode='')

iter:  20 06:10:24  -323.369390  -0.20  -1.36
iter:  21 06:10:50  -323.337067  -0.64  -1.52
iter:  22 06:11:17  -323.268628  -1.17  -1.60
iter:  23 06:11:43  -323.245712  -1.01  -1.69
iter:  24 06:12:10  -323.291733  -0.91  -1.78
Writing to output.gpw (mode='')

iter:  25 06:12:36  -323.265303  -1.60  -1.74
iter:  26 06:13:03  -323.244678  -1.31  -1.81
iter:  27 06:13:29  -323.262792c -0.99  -1.94
iter:  28 06:13:55  -323.244192c -1.59  -1.96
iter:  29 06:14:22  -323.242025c -1.80  -2.24
Writing to output.gpw (mode='')

iter:  30 06:14:48  -323.242275c -1.81  -2.39
iter:  31 06:15:15  -323.243034c -2.23  -2.54
iter:  32 06:15:41  -323.243619c -2.44  -2.56
iter:  33 06:16:08  -323.243516c -2.50  -2.59
iter:  34 06:16:34  -323.243745c -2.60  -2.73
Writing to output.gpw (mode='')

iter:  35 06:17:01  -323.243577c -2.78  -2.79
iter:  36 06:17:27  -323.243616c -3.02  -2.97
iter:  37 06:17:54  -323.243781c -3.03  -3.10
iter:  38 06:18:20  -323.243770c -3.29  -3.14
iter:  39 06:18:47  -323.243849c -3.46  -3.40
Writing to output.gpw (mode='')

iter:  40 06:19:13  -323.243910c -3.50  -3.50
iter:  41 06:19:40  -323.243979c -3.59  -3.50
iter:  42 06:20:06  -323.243995c -3.60  -3.45
iter:  43 06:20:33  -323.244028c -3.83  -3.70
iter:  44 06:20:59  -323.244060c -3.84  -3.72
Writing to output.gpw (mode='')

iter:  45 06:21:26  -323.244089c -3.90  -3.88
iter:  46 06:21:52  -323.244106c -4.11  -4.13c
iter:  47 06:22:19  -323.244120c -4.20  -4.11c
iter:  48 06:22:45  -323.244134c -4.08  -4.08c
iter:  49 06:23:11  -323.244144c -4.29  -4.08c
Writing to output.gpw (mode='')

iter:  50 06:23:38  -323.244157c -4.34  -4.04c
iter:  51 06:24:04  -323.244164c -4.37  -4.03c
iter:  52 06:24:31  -323.244171c -4.37  -4.00c
iter:  53 06:24:57  -323.244177c -4.61  -3.97
iter:  54 06:25:24  -323.244185c -4.34  -4.01c
Writing to output.gpw (mode='')

iter:  55 06:25:50  -323.244189c -4.67  -4.00c
iter:  56 06:26:16  -323.244191c -4.66  -3.99
iter:  57 06:26:43  -323.244194c -4.88  -3.99
iter:  58 06:27:09  -323.244195c -4.88  -3.97
iter:  59 06:27:36  -323.244198c -5.02  -4.18c
Writing to output.gpw (mode='')

iter:  60 06:28:02  -323.244200c -4.74  -4.28c
iter:  61 06:28:29  -323.244202c -4.83  -4.38c
iter:  62 06:28:55  -323.244204c -5.24  -4.39c
iter:  63 06:29:22  -323.244204c -5.21  -4.66c
iter:  64 06:29:48  -323.244205c -5.19  -4.79c
Writing to output.gpw (mode='')

iter:  65 06:30:15  -323.244205c -5.17  -4.81c
iter:  66 06:30:41  -323.244206c -5.34  -4.81c
iter:  67 06:31:07  -323.244206c -5.56  -4.99c
iter:  68 06:31:34  -323.244206c -5.51  -5.03c
iter:  69 06:32:00  -323.244207c -5.54  -5.17c
Writing to output.gpw (mode='')

iter:  70 06:32:27  -323.244207c -5.68  -5.25c
iter:  71 06:32:53  -323.244207c -5.82  -5.20c
iter:  72 06:33:19  -323.244208c -5.80  -5.16c
iter:  73 06:33:46  -323.244208c -5.82  -5.13c
iter:  74 06:34:12  -323.244208c -5.99  -5.03c
Writing to output.gpw (mode='')

iter:  75 06:34:38  -323.244208c -6.04  -5.05c
iter:  76 06:35:05  -323.244208c -5.86  -5.06c
iter:  77 06:35:31  -323.244208c -6.20  -5.03c
iter:  78 06:35:58  -323.244208c -6.13  -5.07c
iter:  79 06:36:24  -323.244208c -6.27  -5.06c
Writing to output.gpw (mode='')

iter:  80 06:36:51  -323.244208c -6.17  -5.01c
iter:  81 06:37:17  -323.244208c -6.24  -5.10c
iter:  82 06:37:43  -323.244208c -6.36  -5.14c
iter:  83 06:38:10  -323.244208c -6.29  -5.21c
iter:  84 06:38:36  -323.244208c -6.44  -5.23c
Writing to output.gpw (mode='')

iter:  85 06:39:03  -323.244209c -6.38  -5.31c
iter:  86 06:39:29  -323.244209c -6.54  -5.44c
iter:  87 06:39:55  -323.244209c -6.54  -5.50c
iter:  88 06:40:22  -323.244209c -6.58  -5.56c
iter:  89 06:40:48  -323.244209c -6.65  -5.61c
Writing to output.gpw (mode='')

iter:  90 06:41:15  -323.244209c -6.62  -5.73c
iter:  91 06:41:41  -323.244209c -6.75  -5.83c
iter:  92 06:42:08  -323.244209c -6.75  -5.98c
iter:  93 06:42:34  -323.244209c -6.82  -6.05c
iter:  94 06:43:00  -323.244209c -6.87  -6.06c
Writing to output.gpw (mode='')

iter:  95 06:43:27  -323.244209c -6.92  -6.09c
iter:  96 06:43:53  -323.244209c -6.95  -6.13c
iter:  97 06:44:20  -323.244209c -7.03  -6.15c
iter:  98 06:44:46  -323.244209c -7.07  -6.22c
iter:  99 06:45:12  -323.244209c -7.15  -6.61c
Writing to output.gpw (mode='')

iter: 100 06:45:39  -323.244209c -7.20  -6.48c
iter: 101 06:46:06  -323.244209c -7.23  -6.38c
iter: 102 06:46:32  -323.244209c -7.25  -6.41c
iter: 103 06:46:59  -323.244209c -7.32  -6.38c
iter: 104 06:47:25  -323.244209c -7.38  -6.19c
Writing to output.gpw (mode='')

iter: 105 06:47:52  -323.244209c -7.42c -6.15c

Converged after 105 iterations.

Dipole moment: (-4.165397, -11.823083, 0.089132) |e|*Ang

Energy contributions relative to reference atoms: (reference = -13576.627914)

Kinetic:       +163.780356
Potential:     -157.275572
External:        +0.000000
XC:            -330.002575
Entropy (-ST):   -0.152501
Local:           +0.329832
--------------------------
Free energy:   -323.320459
Extrapolated:  -323.244209

Dipole-layer corrected work functions: 3.403759, 3.232416 eV

Showing only first 2 kpts
 Kpt  Band  Eigenvalues  Occupancy
  0    32     -3.57013    1.98715
  0    33     -3.48985    1.93758
  0    34     -3.14987    0.06686
  0    35     -3.06397    0.01233

  1    32     -3.33680    1.18496
  1    33     -3.31073    0.92654
  1    34     -3.27956    0.63272
  1    35     -3.27683    0.60936


Fermi level: -3.31809

No gap

Forces in eV/Ang:
  0 Li    0.00108   -0.00167   -0.27334
  1 Li   -0.00206    0.00477   -0.27114
  2 Li    0.00060    0.00063   -0.27174
  3 Li    0.00038    0.00015   -0.27778
  4 Li    0.00185   -0.00339   -0.27468
  5 Li   -0.00272    0.00093   -0.27577
  6 Li   -0.00387    0.00225   -0.27263
  7 Li   -0.00042   -0.00189   -0.27072
  8 Li    0.00492   -0.00171   -0.27069
  9 Li    0.00261    0.00274    0.24856
 10 Li   -0.00427   -0.00184    0.26040
 11 Li    0.00091   -0.00133    0.26331
 12 Li    0.00071   -0.00396    0.26165
 13 Li    0.00641    0.00288    0.25139
 14 Li   -0.00617    0.00425    0.25118
 15 Li   -0.00301    0.00040    0.25574
 16 Li   -0.00383   -0.00091    0.26233
 17 Li    0.00622   -0.00164    0.25596
 18 Li    0.00669    0.00116    0.03692
 19 Li    0.00090   -0.00320    0.03932
 20 Li   -0.00636   -0.00043    0.03221
 21 Li   -0.00103   -0.00544    0.02755
 22 Li    0.00180    0.00241    0.04701
 23 Li   -0.00030   -0.00866    0.04117
 24 Li   -0.00509    0.00410    0.06003
 25 Li    0.00165    0.00188    0.03212
 26 Li    0.00293    0.01071    0.06545
 27 Li    0.08453    0.06390   -0.27357
 28 Li   -0.05162   -0.00246   -0.05274
 29 Li    0.00678   -0.01463   -0.17749
 30 Li    0.01347    0.03143   -0.05682
 31 Li   -0.00583    0.01911   -0.04439
 32 Li   -0.00583    0.05576   -0.09350
 33 Li   -0.00018    0.01066   -0.01959
 34 Li   -0.01222   -0.01341   -0.02773
 35 Li    0.01338   -0.03106   -0.04670
 36 O     0.03580    0.27188    0.17449
 37 C    -0.04005    0.14491    0.14837
 38 C    -0.04419   -0.09348    0.26930
 39 C     0.03578   -0.03722    0.24884
 40 C     0.02485    0.13370    0.14085
 41 H    -0.01278   -0.09535   -0.08982
 42 H     0.07423   -0.15279    0.01921
 43 H    -0.04237    0.09448   -0.07175
 44 H    -0.00829    0.04028   -0.04068
 45 H    -0.01054    0.09285   -0.06840
 46 H    -0.03645    0.03165   -0.04913
 47 H     0.01037   -0.11679   -0.06310
 48 H    -0.01339   -0.02910   -0.00099
 49 H    -0.03031    0.04932    0.01914
 50 H     0.03045   -0.43690   -0.12673

System changes: positions 

Initializing position-dependent things.

Density initialized from wave functions
       .-----------------------.  
      /|                       |  
     / |                       |  
    /  |                       |  
   /   |                       |  
  /    |                       |  
 *     |                       |  
 |     |          H      H     |  
 |     |           C     C     |  
 |     |          H     H      H  
 |     |                       |  
 |     |                       |  
 |     |       LiH     Hi      |  
 |     |        C      C       |  
 O     |   H Li  H   LiH     Li|  
 |     |  Li      Li      Li   |  
 | Li  |   Li      Li          |  
 |     |Li      Li      Li     |  
 Li    |                       |  
 |   LLi     LLi     LLi       |  
 |     |  Li      Li      Li   |  
 | Li  |   Li      Li          |  
 |     |Li      Li      Li     |  
 Li    | Li      Li            |  
 |    Li      Li      Li       |  
 |     |                       |  
 |     |                       |  
 |     |                       |  
 |     |                       |  
 |     |                       |  
 |     |                       |  
 |     .-----------------------.  
 |    /                       /   
 |   /                       /    
 |  /                       /     
 | /                       /      
 |/                       /       
 *-----------------------*        

Positions:
   0 Li     1.617037    1.617037   10.000000    ( 0.0000,  0.0000,  0.0000)
   1 Li     4.851111    1.617037   10.000000    ( 0.0000,  0.0000,  0.0000)
   2 Li     8.085185    1.617037   10.000000    ( 0.0000,  0.0000,  0.0000)
   3 Li     1.617037    4.851111   10.000000    ( 0.0000,  0.0000,  0.0000)
   4 Li     4.851111    4.851111   10.000000    ( 0.0000,  0.0000,  0.0000)
   5 Li     8.085185    4.851111   10.000000    ( 0.0000,  0.0000,  0.0000)
   6 Li     1.617037    8.085185   10.000000    ( 0.0000,  0.0000,  0.0000)
   7 Li     4.851111    8.085185   10.000000    ( 0.0000,  0.0000,  0.0000)
   8 Li     8.085185    8.085185   10.000000    ( 0.0000,  0.0000,  0.0000)
   9 Li     0.000000    0.000000   11.617037    ( 0.0000,  0.0000,  0.0000)
  10 Li     3.234074    0.000000   11.617037    ( 0.0000,  0.0000,  0.0000)
  11 Li     6.468148    0.000000   11.617037    ( 0.0000,  0.0000,  0.0000)
  12 Li     0.000000    3.234074   11.617037    ( 0.0000,  0.0000,  0.0000)
  13 Li     3.234074    3.234074   11.617037    ( 0.0000,  0.0000,  0.0000)
  14 Li     6.468148    3.234074   11.617037    ( 0.0000,  0.0000,  0.0000)
  15 Li     0.000000    6.468148   11.617037    ( 0.0000,  0.0000,  0.0000)
  16 Li     3.234074    6.468148   11.617037    ( 0.0000,  0.0000,  0.0000)
  17 Li     6.468148    6.468148   11.617037    ( 0.0000,  0.0000,  0.0000)
  18 Li     1.617134    1.617055   13.470255    ( 0.0000,  0.0000,  0.0000)
  19 Li     4.851124    1.616993   13.470291    ( 0.0000,  0.0000,  0.0000)
  20 Li     8.085093    1.617032   13.470188    ( 0.0000,  0.0000,  0.0000)
  21 Li     1.617024    4.851033   13.470123    ( 0.0000,  0.0000,  0.0000)
  22 Li     4.851137    4.851145   13.470402    ( 0.0000,  0.0000,  0.0000)
  23 Li     8.085179    4.850987   13.470318    ( 0.0000,  0.0000,  0.0000)
  24 Li     1.616965    8.085243   13.470585    ( 0.0000,  0.0000,  0.0000)
  25 Li     4.851135    8.085210   13.470188    ( 0.0000,  0.0000,  0.0000)
  26 Li     8.085226    8.085337   13.470663    ( 0.0000,  0.0000,  0.0000)
  27 Li     0.001208    0.000913   15.442031    ( 0.0000,  0.0000,  0.0000)
  28 Li     3.233336   -0.000035   15.445185    ( 0.0000,  0.0000,  0.0000)
  29 Li     6.468245   -0.000209   15.443403    ( 0.0000,  0.0000,  0.0000)
  30 Li     0.000192    3.234523   15.445127    ( 0.0000,  0.0000,  0.0000)
  31 Li     3.233993    3.234349   15.445304    ( 0.0000,  0.0000,  0.0000)
  32 Li     6.468062    3.234873   15.444602    ( 0.0000,  0.0000,  0.0000)
  33 Li    -0.000003    6.468301   15.445659    ( 0.0000,  0.0000,  0.0000)
  34 Li     3.233902    6.467954   15.445542    ( 0.0000,  0.0000,  0.0000)
  35 Li     6.468337    6.467702   15.445271    ( 0.0000,  0.0000,  0.0000)
  36 O      9.702733    9.706106   18.448432    ( 0.0000,  0.0000,  0.0000)
  37 C      7.234591    9.691951   18.483885    ( 0.0000,  0.0000,  0.0000)
  38 C      5.964970   10.543598   18.472202    ( 0.0000,  0.0000,  0.0000)
  39 C      8.518250   10.512170   18.449701    ( 0.0000,  0.0000,  0.0000)
  40 C      4.693246    9.695857   18.454738    ( 0.0000,  0.0000,  0.0000)
  41 H      7.249779    9.055350   19.373975    ( 0.0000,  0.0000,  0.0000)
  42 H      7.222906    9.017511   17.610683    ( 0.0000,  0.0000,  0.0000)
  43 H      5.977957   11.205358   17.591120    ( 0.0000,  0.0000,  0.0000)
  44 H      5.960580   11.201672   19.345744    ( 0.0000,  0.0000,  0.0000)
  45 H      8.511034   11.179594   17.571031    ( 0.0000,  0.0000,  0.0000)
  46 H      8.601734   11.136468   19.340063    ( 0.0000,  0.0000,  0.0000)
  47 H      4.665453    9.049799   17.567781    ( 0.0000,  0.0000,  0.0000)
  48 H      4.647383    9.043518   19.330163    ( 0.0000,  0.0000,  0.0000)
  49 H      3.789284   10.308377   18.446854    ( 0.0000,  0.0000,  0.0000)
  50 H      9.653347    9.106881   17.681949    ( 0.0000,  0.0000,  0.0000)

Unit cell:
           periodic     x           y           z      points  spacing
  1. axis:    yes    9.702222    0.000000    0.000000    60     0.1617
  2. axis:    yes    0.000000    9.702222    0.000000    60     0.1617
  3. axis:    no     0.000000    0.000000   24.851111   156     0.1593

  Lengths:   9.702222   9.702222  24.851111
  Angles:   90.000000  90.000000  90.000000

Effective grid spacing dv^(1/3) = 0.1609

     iter     time        total  log10-change:
                         energy  eigst   dens
iter:   1 06:48:28  -323.257199  -2.02
iter:   2 06:48:57  -323.254848  -2.67  -2.30
iter:   3 06:49:27  -323.253917c -3.46  -2.42
iter:   4 06:49:56  -323.252432c -2.36  -2.59
Writing to output.gpw (mode='')

iter:   5 06:50:25  -323.252006c -3.44  -2.66
iter:   6 06:50:51  -323.251830c -2.89  -2.90
iter:   7 06:51:21  -323.251929c -3.10  -3.05
iter:   8 06:51:50  -323.251811c -3.98  -3.07
iter:   9 06:52:19  -323.251744c -3.92  -3.20
Writing to output.gpw (mode='')

iter:  10 06:52:48  -323.251757c -4.28  -3.41
iter:  11 06:53:17  -323.251730c -4.08  -3.44
iter:  12 06:53:46  -323.251730c -5.41  -3.55
iter:  13 06:54:14  -323.251746c -4.71  -3.64
iter:  14 06:54:43  -323.251742c -4.85  -3.67
Writing to output.gpw (mode='')

iter:  15 06:55:14  -323.251742c -5.75  -3.95
iter:  16 06:55:44  -323.251742c -6.07  -4.10c
iter:  17 06:56:18  -323.251741c -6.30  -4.13c
iter:  18 06:56:51  -323.251738c -5.81  -4.14c
iter:  19 06:57:23  -323.251738c -6.76  -4.53c
Writing to output.gpw (mode='')

iter:  20 06:58:21  -323.251738c -6.96  -4.61c
iter:  21 06:59:12  -323.251737c -6.47  -4.67c
iter:  22 06:59:45  -323.251738c -7.07  -4.64c
iter:  23 07:00:48  -323.251738c -7.18  -4.66c
iter:  24 07:01:21  -323.251739c -7.09  -4.88c
Writing to output.gpw (mode='')

iter:  25 07:02:12  -323.251738c -7.75c -5.04c

Converged after 25 iterations.

Dipole moment: (-4.239227, -12.510477, 0.087767) |e|*Ang

Energy contributions relative to reference atoms: (reference = -13576.627914)

Kinetic:       +163.192135
Potential:     -156.852025
External:        +0.000000
XC:            -329.844815
Entropy (-ST):   -0.152456
Local:           +0.329194
--------------------------
Free energy:   -323.327967
Extrapolated:  -323.251738

Dipole-layer corrected work functions: 3.403479, 3.234762 eV

Showing only first 2 kpts
 Kpt  Band  Eigenvalues  Occupancy
  0    32     -3.57127    1.98717
  0    33     -3.49093    1.93764
  0    34     -3.15081    0.06673
  0    35     -3.06512    0.01236

  1    32     -3.33812    1.18776
  1    33     -3.31141    0.92308
  1    34     -3.28080    0.63453
  1    35     -3.27779    0.60871


Fermi level: -3.31912

No gap

Forces in eV/Ang:
  0 Li    0.00112   -0.00170   -0.27350
  1 Li   -0.00208    0.00481   -0.27124
  2 Li    0.00059    0.00062   -0.27203
  3 Li    0.00036    0.00016   -0.27773
  4 Li    0.00188   -0.00347   -0.27468
  5 Li   -0.00276    0.00095   -0.27577
  6 Li   -0.00397    0.00229   -0.27276
  7 Li   -0.00042   -0.00189   -0.27079
  8 Li    0.00502   -0.00172   -0.27092
  9 Li    0.00266    0.00270    0.24951
 10 Li   -0.00448   -0.00193    0.26120
 11 Li    0.00104   -0.00149    0.26429
 12 Li    0.00068   -0.00407    0.26238
 13 Li    0.00670    0.00301    0.25175
 14 Li   -0.00641    0.00431    0.25182
 15 Li   -0.00303    0.00050    0.25638
 16 Li   -0.00396   -0.00093    0.26298
 17 Li    0.00639   -0.00152    0.25672
 18 Li    0.00729    0.00214    0.03423
 19 Li    0.00049   -0.00290    0.03743
 20 Li   -0.00637    0.00048    0.02897
 21 Li   -0.00101   -0.00525    0.02642
 22 Li    0.00159    0.00264    0.04539
 23 Li   -0.00006   -0.00824    0.03946
 24 Li   -0.00462    0.00332    0.05751
 25 Li    0.00120    0.00143    0.03037
 26 Li    0.00306    0.00981    0.06241
 27 Li    0.08208    0.06243   -0.26333
 28 Li   -0.05018   -0.00273   -0.05042
 29 Li    0.00742   -0.01413   -0.16959
 30 Li    0.01299    0.03063   -0.05450
 31 Li   -0.00567    0.01881   -0.04345
 32 Li   -0.00579    0.05381   -0.09015
 33 Li   -0.00003    0.01181   -0.01815
 34 Li   -0.01211   -0.01318   -0.02679
 35 Li    0.01308   -0.03048   -0.04540
 36 O     0.05142   -0.03396   -0.14120
 37 C    -0.01109    0.00723    0.05560
 38 C    -0.02160    0.03754    0.04800
 39 C    -0.00314    0.04878    0.02573
 40 C    -0.01061    0.00161    0.03190
 41 H    -0.01347   -0.10245   -0.05202
 42 H     0.06801   -0.06722    0.09506
 43 H    -0.04222    0.00388    0.05034
 44 H    -0.01115    0.07616    0.02676
 45 H    -0.01746    0.02332    0.03377
 46 H    -0.02777    0.08223    0.03485
 47 H     0.01758   -0.03212    0.03538
 48 H    -0.02210   -0.02872    0.01213
 49 H    -0.02501    0.05317    0.02475
 50 H     0.04098   -0.15969    0.21090

System changes: positions 

Initializing position-dependent things.

Density initialized from wave functions
       .-----------------------.  
      /|                       |  
     / |                       |  
    /  |                       |  
   /   |                       |  
  /    |                       |  
 *     |                       |  
 |     |          H      H     |  
 |     |           C     C     |  
 |     |          H     H      H  
 |     |                       |  
 |     |                       |  
 |     |       LiH     Hi      |  
 |     |        C      C       |  
 O     |   H Li  H   LiH     Li|  
 |     |  Li      Li      Li   |  
 | Li  |   Li      Li          |  
 |     |Li      Li      Li     |  
 Li    |                       |  
 |   LLi     LLi     LLi       |  
 |     |  Li      Li      Li   |  
 | Li  |   Li      Li          |  
 |     |Li      Li      Li     |  
 Li    | Li      Li            |  
 |    Li      Li      Li       |  
 |     |                       |  
 |     |                       |  
 |     |                       |  
 |     |                       |  
 |     |                       |  
 |     |                       |  
 |     .-----------------------.  
 |    /                       /   
 |   /                       /    
 |  /                       /     
 | /                       /      
 |/                       /       
 *-----------------------*        

Positions:
   0 Li     1.617037    1.617037   10.000000    ( 0.0000,  0.0000,  0.0000)
   1 Li     4.851111    1.617037   10.000000    ( 0.0000,  0.0000,  0.0000)
   2 Li     8.085185    1.617037   10.000000    ( 0.0000,  0.0000,  0.0000)
   3 Li     1.617037    4.851111   10.000000    ( 0.0000,  0.0000,  0.0000)
   4 Li     4.851111    4.851111   10.000000    ( 0.0000,  0.0000,  0.0000)
   5 Li     8.085185    4.851111   10.000000    ( 0.0000,  0.0000,  0.0000)
   6 Li     1.617037    8.085185   10.000000    ( 0.0000,  0.0000,  0.0000)
   7 Li     4.851111    8.085185   10.000000    ( 0.0000,  0.0000,  0.0000)
   8 Li     8.085185    8.085185   10.000000    ( 0.0000,  0.0000,  0.0000)
   9 Li     0.000000    0.000000   11.617037    ( 0.0000,  0.0000,  0.0000)
  10 Li     3.234074    0.000000   11.617037    ( 0.0000,  0.0000,  0.0000)
  11 Li     6.468148    0.000000   11.617037    ( 0.0000,  0.0000,  0.0000)
  12 Li     0.000000    3.234074   11.617037    ( 0.0000,  0.0000,  0.0000)
  13 Li     3.234074    3.234074   11.617037    ( 0.0000,  0.0000,  0.0000)
  14 Li     6.468148    3.234074   11.617037    ( 0.0000,  0.0000,  0.0000)
  15 Li     0.000000    6.468148   11.617037    ( 0.0000,  0.0000,  0.0000)
  16 Li     3.234074    6.468148   11.617037    ( 0.0000,  0.0000,  0.0000)
  17 Li     6.468148    6.468148   11.617037    ( 0.0000,  0.0000,  0.0000)
  18 Li     1.617340    1.617108   13.471274    ( 0.0000,  0.0000,  0.0000)
  19 Li     4.851142    1.616906   13.471396    ( 0.0000,  0.0000,  0.0000)
  20 Li     8.084908    1.617038   13.471059    ( 0.0000,  0.0000,  0.0000)
  21 Li     1.616994    4.850879   13.470901    ( 0.0000,  0.0000,  0.0000)
  22 Li     4.851185    4.851220   13.471736    ( 0.0000,  0.0000,  0.0000)
  23 Li     8.085175    4.850744   13.471480    ( 0.0000,  0.0000,  0.0000)
  24 Li     1.616827    8.085346   13.472280    ( 0.0000,  0.0000,  0.0000)
  25 Li     4.851173    8.085256   13.471087    ( 0.0000,  0.0000,  0.0000)
  26 Li     8.085313    8.085630   13.472504    ( 0.0000,  0.0000,  0.0000)
  27 Li     0.003616    0.002741   15.434285    ( 0.0000,  0.0000,  0.0000)
  28 Li     3.231865   -0.000112   15.443699    ( 0.0000,  0.0000,  0.0000)
  29 Li     6.468455   -0.000624   15.438403    ( 0.0000,  0.0000,  0.0000)
  30 Li     0.000574    3.235420   15.443522    ( 0.0000,  0.0000,  0.0000)
  31 Li     3.233827    3.234899   15.444032    ( 0.0000,  0.0000,  0.0000)
  32 Li     6.467893    3.236455   15.441952    ( 0.0000,  0.0000,  0.0000)
  33 Li    -0.000005    6.468634   15.445119    ( 0.0000,  0.0000,  0.0000)
  34 Li     3.233549    6.467569   15.444755    ( 0.0000,  0.0000,  0.0000)
  35 Li     6.468720    6.466811   15.443940    ( 0.0000,  0.0000,  0.0000)
  36 O      9.704091    9.707812   18.447107    ( 0.0000,  0.0000,  0.0000)
  37 C      7.234013    9.693374   18.486318    ( 0.0000,  0.0000,  0.0000)
  38 C      5.964143   10.543535   18.475546    ( 0.0000,  0.0000,  0.0000)
  39 C      8.518501   10.512831   18.452414    ( 0.0000,  0.0000,  0.0000)
  40 C      4.693250    9.697067   18.456625    ( 0.0000,  0.0000,  0.0000)
  41 H      7.249393    9.052434   19.372130    ( 0.0000,  0.0000,  0.0000)
  42 H      7.224939    9.014803   17.612779    ( 0.0000,  0.0000,  0.0000)
  43 H      5.976728   11.206269   17.591509    ( 0.0000,  0.0000,  0.0000)
  44 H      5.960281   11.203571   19.345928    ( 0.0000,  0.0000,  0.0000)
  45 H      8.510588   11.180884   17.571113    ( 0.0000,  0.0000,  0.0000)
  46 H      8.600850   11.138413   19.340337    ( 0.0000,  0.0000,  0.0000)
  47 H      4.665900    9.048119   17.567943    ( 0.0000,  0.0000,  0.0000)
  48 H      4.646817    9.042680   19.330400    ( 0.0000,  0.0000,  0.0000)
  49 H      3.788510   10.309889   18.447524    ( 0.0000,  0.0000,  0.0000)
  50 H      9.654445    9.099797   17.685108    ( 0.0000,  0.0000,  0.0000)

Unit cell:
           periodic     x           y           z      points  spacing
  1. axis:    yes    9.702222    0.000000    0.000000    60     0.1617
  2. axis:    yes    0.000000    9.702222    0.000000    60     0.1617
  3. axis:    no     0.000000    0.000000   24.851111   156     0.1593

  Lengths:   9.702222   9.702222  24.851111
  Angles:   90.000000  90.000000  90.000000

Effective grid spacing dv^(1/3) = 0.1609

     iter     time        total  log10-change:
                         energy  eigst   dens
iter:   1 07:02:55  -323.260871  -2.27
iter:   2 07:04:00  -323.260671  -3.00  -2.62
iter:   3 07:04:31  -323.260266c -3.50  -2.62
iter:   4 07:05:02  -323.259433c -2.77  -2.71
Writing to output.gpw (mode='')

iter:   5 07:05:34  -323.259355c -4.01  -2.87
iter:   6 07:06:06  -323.259176c -3.57  -3.05
iter:   7 07:06:39  -323.259406c -2.95  -3.21
iter:   8 07:07:09  -323.259213c -4.13  -3.01
iter:   9 07:07:41  -323.259157c -3.89  -3.23
Writing to output.gpw (mode='')

iter:  10 07:08:14  -323.259202c -4.68  -3.43
iter:  11 07:08:45  -323.259153c -4.33  -3.46
iter:  12 07:09:17  -323.259153c -4.82  -3.72
iter:  13 07:09:48  -323.259157c -5.33  -3.81
iter:  14 07:10:21  -323.259164c -5.27  -3.98
Writing to output.gpw (mode='')

iter:  15 07:10:52  -323.259161c -6.20  -4.02c
iter:  16 07:11:24  -323.259160c -6.30  -4.16c
iter:  17 07:11:55  -323.259162c -6.25  -4.28c
iter:  18 07:13:05  -323.259161c -6.39  -4.37c
iter:  19 07:13:36  -323.259158c -6.22  -4.57c
Writing to output.gpw (mode='')

iter:  20 07:14:10  -323.259159c -7.15  -4.50c
iter:  21 07:14:43  -323.259160c -6.74  -4.57c
iter:  22 07:15:51  -323.259159c -7.31  -4.77c
iter:  23 07:17:08  -323.259159c -7.52c -4.94c

Converged after 23 iterations.

Dipole moment: (-4.420461, -12.905491, 0.087084) |e|*Ang

Energy contributions relative to reference atoms: (reference = -13576.627914)

Kinetic:       +162.835935
Potential:     -156.589131
External:        +0.000000
XC:            -329.759044
Entropy (-ST):   -0.152376
Local:           +0.329270
--------------------------
Free energy:   -323.335347
Extrapolated:  -323.259159

Dipole-layer corrected work functions: 3.403255, 3.235851 eV

Showing only first 2 kpts
 Kpt  Band  Eigenvalues  Occupancy
  0    32     -3.57185    1.98721
  0    33     -3.49164    1.93796
  0    34     -3.15070    0.06604
  0    35     -3.06572    0.01240

  1    32     -3.33811    1.18343
  1    33     -3.31146    0.91921
  1    34     -3.28177    0.63918
  1    35     -3.27833    0.60967


Fermi level: -3.31955

No gap
Writing to output.gpw (mode='')


Forces in eV/Ang:
  0 Li    0.00115   -0.00177   -0.27371
  1 Li   -0.00208    0.00472   -0.27142
  2 Li    0.00057    0.00064   -0.27244
  3 Li    0.00028    0.00015   -0.27768
  4 Li    0.00195   -0.00350   -0.27477
  5 Li   -0.00278    0.00093   -0.27583
  6 Li   -0.00399    0.00237   -0.27295
  7 Li   -0.00043   -0.00184   -0.27104
  8 Li    0.00504   -0.00171   -0.27128
  9 Li    0.00272    0.00255    0.25159
 10 Li   -0.00474   -0.00207    0.26255
 11 Li    0.00119   -0.00164    0.26596
 12 Li    0.00067   -0.00417    0.26357
 13 Li    0.00696    0.00320    0.25269
 14 Li   -0.00666    0.00445    0.25310
 15 Li   -0.00307    0.00065    0.25768
 16 Li   -0.00412   -0.00096    0.26411
 17 Li    0.00661   -0.00144    0.25815
 18 Li    0.00826    0.00384    0.02929
 19 Li   -0.00028   -0.00226    0.03389
 20 Li   -0.00629    0.00204    0.02400
 21 Li   -0.00091   -0.00464    0.02417
 22 Li    0.00100    0.00295    0.04187
 23 Li    0.00045   -0.00734    0.03611
 24 Li   -0.00366    0.00178    0.05254
 25 Li    0.00039    0.00061    0.02738
 26 Li    0.00319    0.00808    0.05673
 27 Li    0.07839    0.05955   -0.24576
 28 Li   -0.04761   -0.00281   -0.04732
 29 Li    0.00796   -0.01373   -0.16026
 30 Li    0.01247    0.03002   -0.05189
 31 Li   -0.00550    0.01820   -0.04177
 32 Li   -0.00556    0.05130   -0.08603
 33 Li    0.00019    0.01161   -0.01750
 34 Li   -0.01182   -0.01284   -0.02544
 35 Li    0.01246   -0.02956   -0.04347
 36 O     0.05255   -0.07786   -0.16669
 37 C     0.02121   -0.07105   -0.02509
 38 C    -0.00046    0.08985   -0.08181
 39 C    -0.01014    0.04861   -0.11800
 40 C    -0.05022   -0.06664   -0.03394
 41 H    -0.01273   -0.09803   -0.00288
 42 H     0.05467    0.00391    0.13705
 43 H    -0.03822   -0.04470    0.11316
 44 H    -0.01354    0.09134    0.06839
 45 H    -0.02494   -0.01357    0.08955
 46 H    -0.00562    0.09325    0.07622
 47 H     0.02008    0.03162    0.09986
 48 H    -0.02795   -0.02223    0.02171
 49 H    -0.00356    0.03465    0.02698
 50 H     0.01468   -0.08471    0.26830

System changes: positions 

Initializing position-dependent things.

Density initialized from wave functions
       .-----------------------.  
      /|                       |  
     / |                       |  
    /  |                       |  
   /   |                       |  
  /    |                       |  
 *     |                       |  
 |     |          H      H     |  
 |     |           C     C     |  
 |     |          H     H      H  
 |     |                       |  
 |     |                       |  
 |     |       LiH     Hi      |  
 |     |        C      C       |  
 O     |   H Li  H   LiH     Li|  
 |     |  Li      Li      Li   |  
 | Li  |   Li      Li          |  
 |     |Li      Li      Li     |  
 Li    |                       |  
 |   LLi     LLi     LLi       |  
 |     |  Li      Li      Li   |  
 | Li  |   Li      Li          |  
 |     |Li      Li      Li     |  
 Li    | Li      Li            |  
 |    Li      Li      Li       |  
 |     |                       |  
 |     |                       |  
 |     |                       |  
 |     |                       |  
 |     |                       |  
 |     |                       |  
 |     .-----------------------.  
 |    /                       /   
 |   /                       /    
 |  /                       /     
 | /                       /      
 |/                       /       
 *-----------------------*        

Positions:
   0 Li     1.617037    1.617037   10.000000    ( 0.0000,  0.0000,  0.0000)
   1 Li     4.851111    1.617037   10.000000    ( 0.0000,  0.0000,  0.0000)
   2 Li     8.085185    1.617037   10.000000    ( 0.0000,  0.0000,  0.0000)
   3 Li     1.617037    4.851111   10.000000    ( 0.0000,  0.0000,  0.0000)
   4 Li     4.851111    4.851111   10.000000    ( 0.0000,  0.0000,  0.0000)
   5 Li     8.085185    4.851111   10.000000    ( 0.0000,  0.0000,  0.0000)
   6 Li     1.617037    8.085185   10.000000    ( 0.0000,  0.0000,  0.0000)
   7 Li     4.851111    8.085185   10.000000    ( 0.0000,  0.0000,  0.0000)
   8 Li     8.085185    8.085185   10.000000    ( 0.0000,  0.0000,  0.0000)
   9 Li     0.000000    0.000000   11.617037    ( 0.0000,  0.0000,  0.0000)
  10 Li     3.234074    0.000000   11.617037    ( 0.0000,  0.0000,  0.0000)
  11 Li     6.468148    0.000000   11.617037    ( 0.0000,  0.0000,  0.0000)
  12 Li     0.000000    3.234074   11.617037    ( 0.0000,  0.0000,  0.0000)
  13 Li     3.234074    3.234074   11.617037    ( 0.0000,  0.0000,  0.0000)
  14 Li     6.468148    3.234074   11.617037    ( 0.0000,  0.0000,  0.0000)
  15 Li     0.000000    6.468148   11.617037    ( 0.0000,  0.0000,  0.0000)
  16 Li     3.234074    6.468148   11.617037    ( 0.0000,  0.0000,  0.0000)
  17 Li     6.468148    6.468148   11.617037    ( 0.0000,  0.0000,  0.0000)
  18 Li     1.618314    1.617431   13.475604    ( 0.0000,  0.0000,  0.0000)
  19 Li     4.851184    1.616547   13.476178    ( 0.0000,  0.0000,  0.0000)
  20 Li     8.084082    1.617140   13.474725    ( 0.0000,  0.0000,  0.0000)
  21 Li     1.616867    4.850217   13.474281    ( 0.0000,  0.0000,  0.0000)
  22 Li     4.851372    4.851570   13.477545    ( 0.0000,  0.0000,  0.0000)
  23 Li     8.085183    4.849697   13.476530    ( 0.0000,  0.0000,  0.0000)
  24 Li     1.616253    8.085736   13.479635    ( 0.0000,  0.0000,  0.0000)
  25 Li     4.851309    8.085421   13.474971    ( 0.0000,  0.0000,  0.0000)
  26 Li     8.085713    8.086861   13.480485    ( 0.0000,  0.0000,  0.0000)
  27 Li     0.014235    0.010798   15.400401    ( 0.0000,  0.0000,  0.0000)
  28 Li     3.225391   -0.000461   15.437183    ( 0.0000,  0.0000,  0.0000)
  29 Li     6.469422   -0.002467   15.416427    ( 0.0000,  0.0000,  0.0000)
  30 Li     0.002262    3.239416   15.436450    ( 0.0000,  0.0000,  0.0000)
  31 Li     3.233089    3.237333   15.438412    ( 0.0000,  0.0000,  0.0000)
  32 Li     6.467148    3.243427   15.430264    ( 0.0000,  0.0000,  0.0000)
  33 Li    -0.000004    6.470114   15.442724    ( 0.0000,  0.0000,  0.0000)
  34 Li     3.231980    6.465858   15.441290    ( 0.0000,  0.0000,  0.0000)
  35 Li     6.470407    6.462859   15.438063    ( 0.0000,  0.0000,  0.0000)
  36 O      9.710185    9.714215   18.440871    ( 0.0000,  0.0000,  0.0000)
  37 C      7.232948    9.696269   18.493486    ( 0.0000,  0.0000,  0.0000)
  38 C      5.961422   10.545463   18.484742    ( 0.0000,  0.0000,  0.0000)
  39 C      8.519400   10.515518   18.458089    ( 0.0000,  0.0000,  0.0000)
  40 C      4.691398    9.699493   18.462134    ( 0.0000,  0.0000,  0.0000)
  41 H      7.247704    9.039602   19.366194    ( 0.0000,  0.0000,  0.0000)
  42 H      7.233402    9.005950   17.624038    ( 0.0000,  0.0000,  0.0000)
  43 H      5.971418   11.208206   17.596010    ( 0.0000,  0.0000,  0.0000)
  44 H      5.958829   11.212729   19.348624    ( 0.0000,  0.0000,  0.0000)
  45 H      8.508233   11.185042   17.573951    ( 0.0000,  0.0000,  0.0000)
  46 H      8.597967   11.147529   19.343370    ( 0.0000,  0.0000,  0.0000)
  47 H      4.668010    9.043511   17.571582    ( 0.0000,  0.0000,  0.0000)
  48 H      4.644015    9.039244   19.331901    ( 0.0000,  0.0000,  0.0000)
  49 H      3.786095   10.315731   18.450623    ( 0.0000,  0.0000,  0.0000)
  50 H      9.658025    9.070922   17.701090    ( 0.0000,  0.0000,  0.0000)

Unit cell:
           periodic     x           y           z      points  spacing
  1. axis:    yes    9.702222    0.000000    0.000000    60     0.1617
  2. axis:    yes    0.000000    9.702222    0.000000    60     0.1617
  3. axis:    no     0.000000    0.000000   24.851111   156     0.1593

  Lengths:   9.702222   9.702222  24.851111
  Angles:   90.000000  90.000000  90.000000

Effective grid spacing dv^(1/3) = 0.1609

     iter     time        total  log10-change:
                         energy  eigst   dens
iter:   1 07:18:13  -323.305482  -1.11
iter:   2 07:19:08  -323.302040  -1.83  -2.00
iter:   3 07:20:44  -323.288844c -2.42  -2.07
iter:   4 07:21:37  -323.283259c -1.74  -2.22
Writing to output.gpw (mode='')

iter:   5 07:22:47  -323.283241c -2.91  -2.35
iter:   6 07:24:57  -323.280789c -2.28  -2.49
iter:   7 07:27:00  -323.281411c -2.23  -2.68
iter:   8 07:28:15  -323.280658c -3.10  -2.60
iter:   9 07:29:49  -323.280774c -3.23  -2.85
Writing to output.gpw (mode='')

iter:  10 07:31:19  -323.280492c -3.54  -2.92
iter:  11 07:32:29  -323.280508c -3.98  -3.24
iter:  12 07:33:37  -323.280498c -4.39  -3.37
iter:  13 07:34:28  -323.280503c -4.32  -3.41
iter:  14 07:37:02  -323.280500c -4.41  -3.53
Writing to output.gpw (mode='')

iter:  15 07:39:24  -323.280497c -5.19  -3.61
iter:  16 07:40:55  -323.280498c -5.00  -3.72
iter:  17 07:41:45  -323.280495c -5.70  -3.85
iter:  18 07:43:27  -323.280493c -5.38  -3.90
iter:  19 07:44:38  -323.280493c -5.59  -4.06c
Writing to output.gpw (mode='')

iter:  20 07:45:50  -323.280493c -5.91  -4.09c
iter:  21 07:47:03  -323.280493c -6.07  -4.18c
iter:  22 07:48:10  -323.280493c -6.31  -4.28c
iter:  23 07:49:49  -323.280494c -6.41  -4.44c
iter:  24 07:51:31  -323.280494c -6.37  -4.68c
Writing to output.gpw (mode='')

iter:  25 07:52:58  -323.280494c -6.95  -4.81c
iter:  26 07:54:36  -323.280494c -7.09  -4.86c
iter:  27 07:56:05  -323.280494c -7.11  -5.03c
iter:  28 07:57:24  -323.280494c -7.39  -5.12c
iter:  29 07:58:39  -323.280494c -7.48c -5.23c

Converged after 29 iterations.

Dipole moment: (-5.190284, -14.018792, 0.081654) |e|*Ang

Energy contributions relative to reference atoms: (reference = -13576.627914)

Kinetic:       +161.717551
Potential:     -155.751323
External:        +0.000000
XC:            -329.499956
Entropy (-ST):   -0.151973
Local:           +0.329220
--------------------------
Free energy:   -323.356481
Extrapolated:  -323.280494

Dipole-layer corrected work functions: 3.402548, 3.245580 eV

Showing only first 2 kpts
 Kpt  Band  Eigenvalues  Occupancy
  0    32     -3.57722    1.98743
  0    33     -3.49744    1.93950
  0    34     -3.15261    0.06280
  0    35     -3.07117    0.01264

  1    32     -3.34037    1.16160
  1    33     -3.31438    0.90349
  1    34     -3.28869    0.66035
  1    35     -3.28321    0.61276


Fermi level: -3.32406

No gap
Writing to output.gpw (mode='')


Forces in eV/Ang:
  0 Li    0.00128   -0.00190   -0.27473
  1 Li   -0.00211    0.00441   -0.27225
  2 Li    0.00049    0.00075   -0.27417
  3 Li   -0.00001    0.00015   -0.27776
  4 Li    0.00211   -0.00357   -0.27544
  5 Li   -0.00280    0.00086   -0.27628
  6 Li   -0.00402    0.00256   -0.27390
  7 Li   -0.00048   -0.00174   -0.27204
  8 Li    0.00513   -0.00170   -0.27279
  9 Li    0.00297    0.00186    0.26041
 10 Li   -0.00581   -0.00270    0.26833
 11 Li    0.00175   -0.00234    0.27276
 12 Li    0.00072   -0.00460    0.26841
 13 Li    0.00810    0.00402    0.25661
 14 Li   -0.00774    0.00507    0.25839
 15 Li   -0.00327    0.00134    0.26320
 16 Li   -0.00474   -0.00103    0.26873
 17 Li    0.00752   -0.00116    0.26433
 18 Li    0.01293    0.01168    0.00743
 19 Li   -0.00379    0.00063    0.01881
 20 Li   -0.00600    0.00906    0.00336
 21 Li   -0.00043   -0.00180    0.01443
 22 Li   -0.00174    0.00431    0.02635
 23 Li    0.00286   -0.00332    0.02143
 24 Li    0.00089   -0.00542    0.03035
 25 Li   -0.00324   -0.00311    0.01480
 26 Li    0.00380    0.00032    0.03237
 27 Li    0.06212    0.04591   -0.17154
 28 Li   -0.03672   -0.00283   -0.03402
 29 Li    0.01006   -0.01207   -0.12475
 30 Li    0.01036    0.02764   -0.04121
 31 Li   -0.00474    0.01532   -0.03405
 32 Li   -0.00447    0.04123   -0.06959
 33 Li    0.00091    0.01078   -0.01418
 34 Li   -0.01018   -0.01124   -0.01933
 35 Li    0.00970   -0.02526   -0.03474
 36 O     0.06024   -0.17145   -0.21793
 37 C     0.09437   -0.21574   -0.15024
 38 C     0.04997    0.10909   -0.27846
 39 C    -0.01313    0.03385   -0.28869
 40 C    -0.10152   -0.16467   -0.11818
 41 H    -0.00410   -0.02645    0.12502
 42 H    -0.00426    0.16383    0.13830
 43 H    -0.01684   -0.11191    0.18573
 44 H    -0.01745    0.07040    0.11406
 45 H    -0.04549   -0.06960    0.15640
 46 H     0.05455    0.02505    0.06575
 47 H     0.01084    0.16723    0.20353
 48 H    -0.04244    0.01583    0.03637
 49 H     0.05055   -0.03704    0.02416
 50 H    -0.06258    0.17060    0.40998

System changes: positions 

Initializing position-dependent things.

Density initialized from wave functions
       .-----------------------.  
      /|                       |  
     / |                       |  
    /  |                       |  
   /   |                       |  
  /    |                       |  
 *     |                       |  
 |     |          H      H     |  
 |     |           C     C     |  
 |     |          H     H     H|  
 |     |                       |  
 |     |                       |  
 |     |       LiH     Hi      |  
 |     |        C      C       |  
 O   Li|   H Li  H   LiH       |  
 |     |  Li      Li      Li   |  
 | Li  |   Li      Li          |  
 |     |Li      Li      Li     |  
 Li    |                       |  
 |   LLi     LLi     LLi       |  
 |     |  Li      Li      Li   |  
 | Li  |   Li      Li          |  
 |     |Li      Li      Li     |  
 Li    | Li      Li            |  
 |    Li      Li      Li       |  
 |     |                       |  
 |     |                       |  
 |     |                       |  
 |     |                       |  
 |     |                       |  
 |     |                       |  
 |     .-----------------------.  
 |    /                       /   
 |   /                       /    
 |  /                       /     
 | /                       /      
 |/                       /       
 *-----------------------*        

Positions:
   0 Li     1.617037    1.617037   10.000000    ( 0.0000,  0.0000,  0.0000)
   1 Li     4.851111    1.617037   10.000000    ( 0.0000,  0.0000,  0.0000)
   2 Li     8.085185    1.617037   10.000000    ( 0.0000,  0.0000,  0.0000)
   3 Li     1.617037    4.851111   10.000000    ( 0.0000,  0.0000,  0.0000)
   4 Li     4.851111    4.851111   10.000000    ( 0.0000,  0.0000,  0.0000)
   5 Li     8.085185    4.851111   10.000000    ( 0.0000,  0.0000,  0.0000)
   6 Li     1.617037    8.085185   10.000000    ( 0.0000,  0.0000,  0.0000)
   7 Li     4.851111    8.085185   10.000000    ( 0.0000,  0.0000,  0.0000)
   8 Li     8.085185    8.085185   10.000000    ( 0.0000,  0.0000,  0.0000)
   9 Li     0.000000    0.000000   11.617037    ( 0.0000,  0.0000,  0.0000)
  10 Li     3.234074    0.000000   11.617037    ( 0.0000,  0.0000,  0.0000)
  11 Li     6.468148    0.000000   11.617037    ( 0.0000,  0.0000,  0.0000)
  12 Li     0.000000    3.234074   11.617037    ( 0.0000,  0.0000,  0.0000)
  13 Li     3.234074    3.234074   11.617037    ( 0.0000,  0.0000,  0.0000)
  14 Li     6.468148    3.234074   11.617037    ( 0.0000,  0.0000,  0.0000)
  15 Li     0.000000    6.468148   11.617037    ( 0.0000,  0.0000,  0.0000)
  16 Li     3.234074    6.468148   11.617037    ( 0.0000,  0.0000,  0.0000)
  17 Li     6.468148    6.468148   11.617037    ( 0.0000,  0.0000,  0.0000)
  18 Li     1.619210    1.617856   13.478719    ( 0.0000,  0.0000,  0.0000)
  19 Li     4.851148    1.616311   13.479804    ( 0.0000,  0.0000,  0.0000)
  20 Li     8.083409    1.617366   13.477320    ( 0.0000,  0.0000,  0.0000)
  21 Li     1.616772    4.849731   13.476861    ( 0.0000,  0.0000,  0.0000)
  22 Li     4.851469    4.851885   13.482006    ( 0.0000,  0.0000,  0.0000)
  23 Li     8.085238    4.848918   13.480382    ( 0.0000,  0.0000,  0.0000)
  24 Li     1.615874    8.085909   13.485231    ( 0.0000,  0.0000,  0.0000)
  25 Li     4.851346    8.085480   13.477908    ( 0.0000,  0.0000,  0.0000)
  26 Li     8.086054    8.087715   13.486551    ( 0.0000,  0.0000,  0.0000)
  27 Li     0.022634    0.017143   15.374051    ( 0.0000,  0.0000,  0.0000)
  28 Li     3.220290   -0.000747   15.432095    ( 0.0000,  0.0000,  0.0000)
  29 Li     6.470259   -0.003949   15.399075    ( 0.0000,  0.0000,  0.0000)
  30 Li     0.003606    3.242654   15.430852    ( 0.0000,  0.0000,  0.0000)
  31 Li     3.232498    3.239276   15.433949    ( 0.0000,  0.0000,  0.0000)
  32 Li     6.466558    3.248955   15.420987    ( 0.0000,  0.0000,  0.0000)
  33 Li     0.000011    6.471314   15.440822    ( 0.0000,  0.0000,  0.0000)
  34 Li     3.230724    6.464484   15.438566    ( 0.0000,  0.0000,  0.0000)
  35 Li     6.471737    6.459698   15.433409    ( 0.0000,  0.0000,  0.0000)
  36 O      9.715345    9.717845   18.434943    ( 0.0000,  0.0000,  0.0000)
  37 C      7.233483    9.695966   18.497095    ( 0.0000,  0.0000,  0.0000)
  38 C      5.960161   10.547163   18.488773    ( 0.0000,  0.0000,  0.0000)
  39 C      8.520127   10.517362   18.459838    ( 0.0000,  0.0000,  0.0000)
  40 C      4.688966    9.699755   18.465201    ( 0.0000,  0.0000,  0.0000)
  41 H      7.246496    9.030569   19.363820    ( 0.0000,  0.0000,  0.0000)
  42 H      7.239160    9.001742   17.633101    ( 0.0000,  0.0000,  0.0000)
  43 H      5.967493   11.208619   17.600927    ( 0.0000,  0.0000,  0.0000)
  44 H      5.957564   11.219726   19.351602    ( 0.0000,  0.0000,  0.0000)
  45 H      8.505892   11.187458   17.577419    ( 0.0000,  0.0000,  0.0000)
  46 H      8.596785   11.153490   19.345418    ( 0.0000,  0.0000,  0.0000)
  47 H      4.669532    9.042304   17.576462    ( 0.0000,  0.0000,  0.0000)
  48 H      4.641432    9.037205   19.333400    ( 0.0000,  0.0000,  0.0000)
  49 H      3.785174   10.319077   18.453097    ( 0.0000,  0.0000,  0.0000)
  50 H      9.659421    9.052162   17.716816    ( 0.0000,  0.0000,  0.0000)

Unit cell:
           periodic     x           y           z      points  spacing
  1. axis:    yes    9.702222    0.000000    0.000000    60     0.1617
  2. axis:    yes    0.000000    9.702222    0.000000    60     0.1617
  3. axis:    no     0.000000    0.000000   24.851111   156     0.1593

  Lengths:   9.702222   9.702222  24.851111
  Angles:   90.000000  90.000000  90.000000

Effective grid spacing dv^(1/3) = 0.1609

     iter     time        total  log10-change:
                         energy  eigst   dens
iter:   1 08:00:07  -323.306113  -1.37
iter:   2 08:01:28  -323.302928  -2.04  -2.08
iter:   3 08:02:36  -323.300393c -2.64  -2.24
iter:   4 08:03:47  -323.293638c -2.04  -2.24
Writing to output.gpw (mode='')

iter:   5 08:05:00  -323.294025c -3.32  -2.52
iter:   6 08:06:14  -323.292741c -2.77  -2.60
iter:   7 08:07:50  -323.293233c -2.20  -2.82
iter:   8 08:08:49  -323.292660c -3.41  -2.71
iter:   9 08:09:47  -323.292691c -3.50  -2.99
Writing to output.gpw (mode='')

iter:  10 08:11:43  -323.292651c -3.78  -3.02
iter:  11 08:13:40  -323.292557c -3.62  -3.22
iter:  12 08:14:55  -323.292559c -4.46  -3.37
iter:  13 08:16:08  -323.292567c -4.45  -3.56
iter:  14 08:17:15  -323.292567c -4.74  -3.62
Writing to output.gpw (mode='')

iter:  15 08:18:12  -323.292553c -4.73  -3.77
iter:  16 08:19:28  -323.292558c -5.17  -3.73
iter:  17 08:20:42  -323.292558c -4.96  -3.93
iter:  18 08:22:41  -323.292551c -5.70  -4.00c
iter:  19 08:26:35  -323.292549c -5.22  -4.09c
Writing to output.gpw (mode='')

iter:  20 08:29:59  -323.292551c -5.57  -4.01c
iter:  21 08:33:16  -323.292551c -6.07  -4.37c
iter:  22 08:36:23  -323.292550c -6.33  -4.44c
iter:  23 08:39:42  -323.292550c -6.38  -4.72c
iter:  24 08:43:42  -323.292550c -6.95  -4.79c
Writing to output.gpw (mode='')

iter:  25 08:47:31  -323.292550c -7.09  -4.85c
iter:  26 08:50:23  -323.292551c -7.15  -4.91c
iter:  27 08:52:47  -323.292551c -7.50c -5.03c

Converged after 27 iterations.

Dipole moment: (-5.778401, -14.413964, 0.077567) |e|*Ang

Energy contributions relative to reference atoms: (reference = -13576.627914)

Kinetic:       +161.375997
Potential:     -155.480803
External:        +0.000000
XC:            -329.441170
Entropy (-ST):   -0.151628
Local:           +0.329240
--------------------------
Free energy:   -323.368364
Extrapolated:  -323.292551

Dipole-layer corrected work functions: 3.402126, 3.253016 eV

Showing only first 2 kpts
 Kpt  Band  Eigenvalues  Occupancy
  0    32     -3.58150    1.98762
  0    33     -3.50199    1.94071
  0    34     -3.15398    0.06025
  0    35     -3.07553    0.01285

  1    32     -3.34184    1.14173
  1    33     -3.31689    0.89361
  1    34     -3.29409    0.67717
  1    35     -3.28682    0.61368


Fermi level: -3.32757

No gap
Writing to output.gpw (mode='')


Forces in eV/Ang:
  0 Li    0.00136   -0.00202   -0.27551
  1 Li   -0.00213    0.00409   -0.27289
  2 Li    0.00044    0.00082   -0.27550
  3 Li   -0.00026    0.00012   -0.27779
  4 Li    0.00226   -0.00359   -0.27595
  5 Li   -0.00283    0.00079   -0.27658
  6 Li   -0.00400    0.00274   -0.27463
  7 Li   -0.00049   -0.00164   -0.27284
  8 Li    0.00512   -0.00166   -0.27396
  9 Li    0.00321    0.00129    0.26714
 10 Li   -0.00662   -0.00321    0.27261
 11 Li    0.00212   -0.00283    0.27782
 12 Li    0.00085   -0.00484    0.27191
 13 Li    0.00889    0.00481    0.25948
 14 Li   -0.00855    0.00564    0.26238
 15 Li   -0.00342    0.00183    0.26734
 16 Li   -0.00514   -0.00117    0.27205
 17 Li    0.00814   -0.00108    0.26897
 18 Li    0.01687    0.01808   -0.00958
 19 Li   -0.00660    0.00291    0.00737
 20 Li   -0.00575    0.01454   -0.01189
 21 Li   -0.00004    0.00057    0.00686
 22 Li   -0.00400    0.00537    0.01409
 23 Li    0.00486   -0.00013    0.01001
 24 Li    0.00470   -0.01134    0.01281
 25 Li   -0.00610   -0.00605    0.00548
 26 Li    0.00428   -0.00580    0.01382
 27 Li    0.04943    0.03532   -0.11788
 28 Li   -0.02841   -0.00254   -0.02482
 29 Li    0.01090   -0.01028   -0.10133
 30 Li    0.00889    0.02591   -0.03363
 31 Li   -0.00425    0.01299   -0.02802
 32 Li   -0.00355    0.03372   -0.05762
 33 Li    0.00135    0.00943   -0.01223
 34 Li   -0.00868   -0.01007   -0.01474
 35 Li    0.00749   -0.02181   -0.02819
 36 O     0.04628   -0.11215   -0.10219
 37 C     0.10038   -0.19769   -0.11634
 38 C     0.06008    0.05828   -0.22708
 39 C    -0.00184   -0.01655   -0.26100
 40 C    -0.06461   -0.13604   -0.07815
 41 H     0.00456    0.04022    0.17002
 42 H    -0.04171    0.19095    0.04844
 43 H     0.00276   -0.10165    0.14581
 44 H    -0.01662   -0.00017    0.06911
 45 H    -0.05524   -0.06814    0.13252
 46 H     0.08755   -0.05249    0.01509
 47 H    -0.00549    0.18016    0.18025
 48 H    -0.04768    0.03864    0.04537
 49 H     0.05618   -0.06979    0.01775
 50 H    -0.12468    0.21169    0.35150

System changes: positions 

Initializing position-dependent things.

Density initialized from wave functions
       .-----------------------.  
      /|                       |  
     / |                       |  
    /  |                       |  
   /   |                       |  
  /    |                       |  
 *     |                       |  
 |     |          H      H     |  
 |     |           C     C     |  
 |     |          H     H     H|  
 |     |                       |  
 |     |                       |  
 |     |       LiH     Hi      |  
 |     |        C      C       |  
 O   Li|   H Li  H   LiH       |  
 |     |  Li      Li      Li   |  
 | Li  |   Li      Li          |  
 |     |Li      Li      Li     |  
 Li    |                       |  
 |   LLi     LLi     LLi       |  
 |     |  Li      Li      Li   |  
 | Li  |   Li      Li          |  
 |     |Li      Li      Li     |  
 Li    | Li      Li            |  
 |    Li      Li      Li       |  
 |     |                       |  
 |     |                       |  
 |     |                       |  
 |     |                       |  
 |     |                       |  
 |     |                       |  
 |     .-----------------------.  
 |    /                       /   
 |   /                       /    
 |  /                       /     
 | /                       /      
 |/                       /       
 *-----------------------*        

Positions:
   0 Li     1.617037    1.617037   10.000000    ( 0.0000,  0.0000,  0.0000)
   1 Li     4.851111    1.617037   10.000000    ( 0.0000,  0.0000,  0.0000)
   2 Li     8.085185    1.617037   10.000000    ( 0.0000,  0.0000,  0.0000)
   3 Li     1.617037    4.851111   10.000000    ( 0.0000,  0.0000,  0.0000)
   4 Li     4.851111    4.851111   10.000000    ( 0.0000,  0.0000,  0.0000)
   5 Li     8.085185    4.851111   10.000000    ( 0.0000,  0.0000,  0.0000)
   6 Li     1.617037    8.085185   10.000000    ( 0.0000,  0.0000,  0.0000)
   7 Li     4.851111    8.085185   10.000000    ( 0.0000,  0.0000,  0.0000)
   8 Li     8.085185    8.085185   10.000000    ( 0.0000,  0.0000,  0.0000)
   9 Li     0.000000    0.000000   11.617037    ( 0.0000,  0.0000,  0.0000)
  10 Li     3.234074    0.000000   11.617037    ( 0.0000,  0.0000,  0.0000)
  11 Li     6.468148    0.000000   11.617037    ( 0.0000,  0.0000,  0.0000)
  12 Li     0.000000    3.234074   11.617037    ( 0.0000,  0.0000,  0.0000)
  13 Li     3.234074    3.234074   11.617037    ( 0.0000,  0.0000,  0.0000)
  14 Li     6.468148    3.234074   11.617037    ( 0.0000,  0.0000,  0.0000)
  15 Li     0.000000    6.468148   11.617037    ( 0.0000,  0.0000,  0.0000)
  16 Li     3.234074    6.468148   11.617037    ( 0.0000,  0.0000,  0.0000)
  17 Li     6.468148    6.468148   11.617037    ( 0.0000,  0.0000,  0.0000)
  18 Li     1.620353    1.618604   13.481298    ( 0.0000,  0.0000,  0.0000)
  19 Li     4.850981    1.616160   13.483185    ( 0.0000,  0.0000,  0.0000)
  20 Li     8.082693    1.617864   13.479400    ( 0.0000,  0.0000,  0.0000)
  21 Li     1.616687    4.849311   13.479298    ( 0.0000,  0.0000,  0.0000)
  22 Li     4.851473    4.852274   13.486261    ( 0.0000,  0.0000,  0.0000)
  23 Li     8.085388    4.848223   13.484016    ( 0.0000,  0.0000,  0.0000)
  24 Li     1.615635    8.085829   13.490470    ( 0.0000,  0.0000,  0.0000)
  25 Li     4.851255    8.085410   13.480641    ( 0.0000,  0.0000,  0.0000)
  26 Li     8.086444    8.088356   13.492238    ( 0.0000,  0.0000,  0.0000)
  27 Li     0.031119    0.023508   15.348154    ( 0.0000,  0.0000,  0.0000)
  28 Li     3.215168   -0.001050   15.427050    ( 0.0000,  0.0000,  0.0000)
  29 Li     6.471218   -0.005475   15.381511    ( 0.0000,  0.0000,  0.0000)
  30 Li     0.004987    3.246067   15.425173    ( 0.0000,  0.0000,  0.0000)
  31 Li     3.231885    3.241268   15.429407    ( 0.0000,  0.0000,  0.0000)
  32 Li     6.465961    3.254570   15.411541    ( 0.0000,  0.0000,  0.0000)
  33 Li     0.000050    6.472565   15.438874    ( 0.0000,  0.0000,  0.0000)
  34 Li     3.229432    6.463056   15.435839    ( 0.0000,  0.0000,  0.0000)
  35 Li     6.473073    6.456441   15.428690    ( 0.0000,  0.0000,  0.0000)
  36 O      9.720704    9.720964   18.429868    ( 0.0000,  0.0000,  0.0000)
  37 C      7.235428    9.693448   18.499638    ( 0.0000,  0.0000,  0.0000)
  38 C      5.959906   10.548456   18.490701    ( 0.0000,  0.0000,  0.0000)
  39 C      8.521032   10.518063   18.458989    ( 0.0000,  0.0000,  0.0000)
  40 C      4.686391    9.698832   18.467888    ( 0.0000,  0.0000,  0.0000)
  41 H      7.245546    9.023596   19.364510    ( 0.0000,  0.0000,  0.0000)
  42 H      7.243491    9.000630   17.640846    ( 0.0000,  0.0000,  0.0000)
  43 H      5.964091   11.207982   17.606737    ( 0.0000,  0.0000,  0.0000)
  44 H      5.956150   11.225248   19.354578    ( 0.0000,  0.0000,  0.0000)
  45 H      8.502773   11.189003   17.581934    ( 0.0000,  0.0000,  0.0000)
  46 H      8.597326   11.157077   19.346496    ( 0.0000,  0.0000,  0.0000)
  47 H      4.670637    9.043689   17.583046    ( 0.0000,  0.0000,  0.0000)
  48 H      4.638254    9.036169   19.335534    ( 0.0000,  0.0000,  0.0000)
  49 H      3.785164   10.320767   18.455582    ( 0.0000,  0.0000,  0.0000)
  50 H      9.658139    9.037660   17.735435    ( 0.0000,  0.0000,  0.0000)

Unit cell:
           periodic     x           y           z      points  spacing
  1. axis:    yes    9.702222    0.000000    0.000000    60     0.1617
  2. axis:    yes    0.000000    9.702222    0.000000    60     0.1617
  3. axis:    no     0.000000    0.000000   24.851111   156     0.1593

  Lengths:   9.702222   9.702222  24.851111
  Angles:   90.000000  90.000000  90.000000

Effective grid spacing dv^(1/3) = 0.1609

     iter     time        total  log10-change:
                         energy  eigst   dens
iter:   1 08:55:33  -323.316998  -1.40
iter:   2 08:59:11  -323.312276  -2.04  -2.05
iter:   3 09:01:57  -323.310180c -2.65  -2.27
iter:   4 09:05:10  -323.304223c -2.13  -2.27
Writing to output.gpw (mode='')

iter:   5 09:08:54  -323.304300c -3.40  -2.57
iter:   6 09:11:30  -323.303399c -2.61  -2.67
iter:   7 09:14:43  -323.303769c -2.46  -2.89
iter:   8 09:19:23  -323.303407c -3.51  -2.80
iter:   9 09:22:22  -323.303383c -3.62  -3.06
Writing to output.gpw (mode='')

iter:  10 09:26:23  -323.303365c -3.87  -3.11
iter:  11 09:29:23  -323.303317c -4.05  -3.40
iter:  12 09:32:02  -323.303321c -4.85  -3.53
iter:  13 09:35:19  -323.303324c -4.91  -3.63
iter:  14 09:38:19  -323.303326c -4.90  -3.66
Writing to output.gpw (mode='')

iter:  15 09:42:56  -323.303320c -4.97  -3.79
iter:  16 09:46:46  -323.303315c -5.14  -3.85
iter:  17 09:51:13  -323.303313c -5.80  -3.98
iter:  18 09:55:42  -323.303313c -5.81  -4.05c
iter:  19 09:59:01  -323.303313c -6.15  -4.32c
Writing to output.gpw (mode='')

iter:  20 10:02:13  -323.303313c -6.25  -4.43c
iter:  21 10:05:10  -323.303314c -6.42  -4.50c
iter:  22 10:09:02  -323.303315c -6.42  -4.53c
iter:  23 10:12:26  -323.303315c -6.67  -4.68c
iter:  24 10:16:34  -323.303316c -6.91  -4.81c
Writing to output.gpw (mode='')

iter:  25 10:20:16  -323.303316c -7.08  -5.03c
iter:  26 10:23:27  -323.303316c -7.20  -5.12c
iter:  27 10:26:37  -323.303316c -7.28  -5.18c
iter:  28 10:30:03  -323.303316c -7.36  -5.26c
iter:  29 10:33:11  -323.303316c -7.65c -5.31c

Converged after 29 iterations.

Dipole moment: (-6.299831, -14.477324, 0.073465) |e|*Ang

Energy contributions relative to reference atoms: (reference = -13576.627914)

Kinetic:       +161.616303
Potential:     -155.639867
External:        +0.000000
XC:            -329.532735
Entropy (-ST):   -0.151255
Local:           +0.328611
--------------------------
Free energy:   -323.378943
Extrapolated:  -323.303316

Dipole-layer corrected work functions: 3.401854, 3.260629 eV

Showing only first 2 kpts
 Kpt  Band  Eigenvalues  Occupancy
  0    32     -3.58609    1.98784
  0    33     -3.50670    1.94190
  0    34     -3.15548    0.05776
  0    35     -3.08023    0.01312

  1    32     -3.34337    1.12067
  1    33     -3.31972    0.88527
  1    34     -3.29961    0.69382
  1    35     -3.29042    0.61308


Fermi level: -3.33124

No gap
Writing to output.gpw (mode='')


Forces in eV/Ang:
  0 Li    0.00144   -0.00207   -0.27631
  1 Li   -0.00219    0.00373   -0.27348
  2 Li    0.00042    0.00090   -0.27677
  3 Li   -0.00051    0.00006   -0.27787
  4 Li    0.00236   -0.00352   -0.27658
  5 Li   -0.00283    0.00075   -0.27691
  6 Li   -0.00392    0.00285   -0.27539
  7 Li   -0.00048   -0.00160   -0.27360
  8 Li    0.00504   -0.00167   -0.27510
  9 Li    0.00350    0.00067    0.27368
 10 Li   -0.00734   -0.00377    0.27667
 11 Li    0.00234   -0.00333    0.28270
 12 Li    0.00105   -0.00493    0.27506
 13 Li    0.00967    0.00582    0.26208
 14 Li   -0.00938    0.00631    0.26624
 15 Li   -0.00353    0.00224    0.27118
 16 Li   -0.00542   -0.00142    0.27497
 17 Li    0.00862   -0.00105    0.27338
 18 Li    0.02085    0.02443   -0.02610
 19 Li   -0.00935    0.00514   -0.00374
 20 Li   -0.00538    0.01975   -0.02616
 21 Li    0.00036    0.00309   -0.00046
 22 Li   -0.00630    0.00636    0.00188
 23 Li    0.00688    0.00310   -0.00119
 24 Li    0.00865   -0.01731   -0.00474
 25 Li   -0.00892   -0.00891   -0.00340
 26 Li    0.00480   -0.01178   -0.00413
 27 Li    0.03751    0.02556   -0.06934
 28 Li   -0.02024   -0.00195   -0.01654
 29 Li    0.01089   -0.00784   -0.08155
 30 Li    0.00751    0.02409   -0.02653
 31 Li   -0.00376    0.01055   -0.02191
 32 Li   -0.00270    0.02623   -0.04606
 33 Li    0.00166    0.00778   -0.01068
 34 Li   -0.00696   -0.00899   -0.01041
 35 Li    0.00521   -0.01804   -0.02174
 36 O     0.01371    0.02510    0.05144
 37 C     0.05734   -0.08257   -0.01535
 38 C     0.05171   -0.03541   -0.05651
 39 C     0.01826   -0.06677   -0.08717
 40 C     0.01756   -0.03125    0.02244
 41 H     0.02120    0.09898    0.17015
 42 H    -0.06945    0.13162   -0.08328
 43 H     0.02394   -0.05108    0.04193
 44 H    -0.00564   -0.08696   -0.00237
 45 H    -0.05795   -0.03508    0.04375
 46 H     0.09642   -0.12797   -0.05324
 47 H    -0.02375    0.11318    0.07417
 48 H    -0.04610    0.04690    0.06095
 49 H     0.03438   -0.07377    0.01319
 50 H    -0.16023    0.12396    0.20850

System changes: positions 

Initializing position-dependent things.

Density initialized from wave functions
       .-----------------------.  
      /|                       |  
     / |                       |  
    /  |                       |  
   /   |                       |  
  /    |                       |  
 *     |                       |  
 |     |          H      H     |  
 |     |           C     C     |  
 |     |          H     H     H|  
 |     |                       |  
 |     |                       |  
 |     |       LiH     Hi      |  
 |     |        C      C       |  
 O   Li|   H Li  H   LiH       |  
 |     |  Li      Li      Li   |  
 | Li  |   Li      Li          |  
 |     |Li      Li      Li     |  
 Li    |                       |  
 |   LLi     LLi     LLi       |  
 |     |  Li      Li      Li   |  
 | Li  |   Li      Li          |  
 |     |Li      Li      Li     |  
 Li    | Li      Li            |  
 |    Li      Li      Li       |  
 |     |                       |  
 |     |                       |  
 |     |                       |  
 |     |                       |  
 |     |                       |  
 |     |                       |  
 |     .-----------------------.  
 |    /                       /   
 |   /                       /    
 |  /                       /     
 | /                       /      
 |/                       /       
 *-----------------------*        

Positions:
   0 Li     1.617037    1.617037   10.000000    ( 0.0000,  0.0000,  0.0000)
   1 Li     4.851111    1.617037   10.000000    ( 0.0000,  0.0000,  0.0000)
   2 Li     8.085185    1.617037   10.000000    ( 0.0000,  0.0000,  0.0000)
   3 Li     1.617037    4.851111   10.000000    ( 0.0000,  0.0000,  0.0000)
   4 Li     4.851111    4.851111   10.000000    ( 0.0000,  0.0000,  0.0000)
   5 Li     8.085185    4.851111   10.000000    ( 0.0000,  0.0000,  0.0000)
   6 Li     1.617037    8.085185   10.000000    ( 0.0000,  0.0000,  0.0000)
   7 Li     4.851111    8.085185   10.000000    ( 0.0000,  0.0000,  0.0000)
   8 Li     8.085185    8.085185   10.000000    ( 0.0000,  0.0000,  0.0000)
   9 Li     0.000000    0.000000   11.617037    ( 0.0000,  0.0000,  0.0000)
  10 Li     3.234074    0.000000   11.617037    ( 0.0000,  0.0000,  0.0000)
  11 Li     6.468148    0.000000   11.617037    ( 0.0000,  0.0000,  0.0000)
  12 Li     0.000000    3.234074   11.617037    ( 0.0000,  0.0000,  0.0000)
  13 Li     3.234074    3.234074   11.617037    ( 0.0000,  0.0000,  0.0000)
  14 Li     6.468148    3.234074   11.617037    ( 0.0000,  0.0000,  0.0000)
  15 Li     0.000000    6.468148   11.617037    ( 0.0000,  0.0000,  0.0000)
  16 Li     3.234074    6.468148   11.617037    ( 0.0000,  0.0000,  0.0000)
  17 Li     6.468148    6.468148   11.617037    ( 0.0000,  0.0000,  0.0000)
  18 Li     1.621549    1.619604   13.482521    ( 0.0000,  0.0000,  0.0000)
  19 Li     4.850679    1.616162   13.485402    ( 0.0000,  0.0000,  0.0000)
  20 Li     8.082100    1.618598   13.480288    ( 0.0000,  0.0000,  0.0000)
  21 Li     1.616637    4.849091   13.480941    ( 0.0000,  0.0000,  0.0000)
  22 Li     4.851349    4.852666   13.489183    ( 0.0000,  0.0000,  0.0000)
  23 Li     8.085628    4.847814   13.486455    ( 0.0000,  0.0000,  0.0000)
  24 Li     1.615648    8.085426   13.493924    ( 0.0000,  0.0000,  0.0000)
  25 Li     4.851014    8.085183   13.482426    ( 0.0000,  0.0000,  0.0000)
  26 Li     8.086805    8.088554   13.496010    ( 0.0000,  0.0000,  0.0000)
  27 Li     0.037627    0.028338   15.329187    ( 0.0000,  0.0000,  0.0000)
  28 Li     3.211289   -0.001293   15.423294    ( 0.0000,  0.0000,  0.0000)
  29 Li     6.472084   -0.006665   15.367947    ( 0.0000,  0.0000,  0.0000)
  30 Li     0.006074    3.248865   15.420788    ( 0.0000,  0.0000,  0.0000)
  31 Li     3.231394    3.242830   15.425888    ( 0.0000,  0.0000,  0.0000)
  32 Li     6.465502    3.258904   15.404210    ( 0.0000,  0.0000,  0.0000)
  33 Li     0.000109    6.473567   15.437337    ( 0.0000,  0.0000,  0.0000)
  34 Li     3.228417    6.461907   15.433781    ( 0.0000,  0.0000,  0.0000)
  35 Li     6.474084    6.453872   15.425055    ( 0.0000,  0.0000,  0.0000)
  36 O      9.724531    9.724060   18.427785    ( 0.0000,  0.0000,  0.0000)
  37 C      7.237644    9.690659   18.501533    ( 0.0000,  0.0000,  0.0000)
  38 C      5.960660   10.548264   18.491698    ( 0.0000,  0.0000,  0.0000)
  39 C      8.522078   10.517148   18.457622    ( 0.0000,  0.0000,  0.0000)
  40 C      4.685294    9.698068   18.470592    ( 0.0000,  0.0000,  0.0000)
  41 H      7.245364    9.020880   19.368149    ( 0.0000,  0.0000,  0.0000)
  42 H      7.245066    9.002046   17.644078    ( 0.0000,  0.0000,  0.0000)
  43 H      5.962279   11.206814   17.611076    ( 0.0000,  0.0000,  0.0000)
  44 H      5.955122   11.227085   19.356304    ( 0.0000,  0.0000,  0.0000)
  45 H      8.499530   11.189565   17.585459    ( 0.0000,  0.0000,  0.0000)
  46 H      8.599514   11.156836   19.345925    ( 0.0000,  0.0000,  0.0000)
  47 H      4.670881    9.046457   17.588507    ( 0.0000,  0.0000,  0.0000)
  48 H      4.635209    9.036362   19.338211    ( 0.0000,  0.0000,  0.0000)
  49 H      3.785703   10.320549   18.457526    ( 0.0000,  0.0000,  0.0000)
  50 H      9.654160    9.029679   17.751718    ( 0.0000,  0.0000,  0.0000)

Unit cell:
           periodic     x           y           z      points  spacing
  1. axis:    yes    9.702222    0.000000    0.000000    60     0.1617
  2. axis:    yes    0.000000    9.702222    0.000000    60     0.1617
  3. axis:    no     0.000000    0.000000   24.851111   156     0.1593

  Lengths:   9.702222   9.702222  24.851111
  Angles:   90.000000  90.000000  90.000000

Effective grid spacing dv^(1/3) = 0.1609

     iter     time        total  log10-change:
                         energy  eigst   dens
iter:   1 10:35:40  -323.316047  -1.68
iter:   2 10:38:22  -323.314222  -2.34  -2.23
iter:   3 10:40:56  -323.313259c -2.94  -2.42
iter:   4 10:43:31  -323.310718c -2.38  -2.42
Writing to output.gpw (mode='')

iter:   5 10:46:24  -323.310585c -3.66  -2.70
iter:   6 10:48:43  -323.310272c -2.91  -2.83
iter:   7 10:51:51  -323.310503c -2.79  -3.01
iter:   8 10:55:04  -323.310278c -3.81  -2.92
iter:   9 10:58:57  -323.310241c -3.87  -3.17
Writing to output.gpw (mode='')

iter:  10 11:03:09  -323.310221c -4.35  -3.25
iter:  11 11:07:24  -323.310200c -4.34  -3.57
iter:  12 11:11:08  -323.310203c -5.03  -3.72
iter:  13 11:15:00  -323.310204c -5.57  -3.80
iter:  14 11:17:16  -323.310209c -5.13  -3.83
Writing to output.gpw (mode='')

iter:  15 11:19:51  -323.310201c -5.09  -3.94
iter:  16 11:23:32  -323.310201c -5.94  -4.03c
iter:  17 11:26:31  -323.310201c -5.72  -4.08c
iter:  18 11:28:49  -323.310200c -6.49  -4.39c
iter:  19 11:31:10  -323.310200c -6.41  -4.44c
Writing to output.gpw (mode='')

iter:  20 11:33:46  -323.310201c -6.36  -4.47c
iter:  21 11:35:42  -323.310201c -6.28  -4.67c
iter:  22 11:37:54  -323.310201c -7.00  -4.67c
iter:  23 11:40:06  -323.310200c -6.79  -4.72c
iter:  24 11:43:10  -323.310201c -6.97  -4.88c
Writing to output.gpw (mode='')

iter:  25 11:44:57  -323.310201c -7.39  -5.03c
iter:  26 11:47:14  -323.310201c -7.51c -5.08c

Converged after 26 iterations.

Dipole moment: (-6.586555, -14.495517, 0.070936) |e|*Ang

Energy contributions relative to reference atoms: (reference = -13576.627914)

Kinetic:       +162.181791
Potential:     -156.048139
External:        +0.000000
XC:            -329.696716
Entropy (-ST):   -0.150960
Local:           +0.328343
--------------------------
Free energy:   -323.385681
Extrapolated:  -323.310201

Dipole-layer corrected work functions: 3.401656, 3.265292 eV

Showing only first 2 kpts
 Kpt  Band  Eigenvalues  Occupancy
  0    32     -3.58920    1.98805
  0    33     -3.50969    1.94274
  0    34     -3.15613    0.05601
  0    35     -3.08345    0.01338

  1    32     -3.34404    1.10524
  1    33     -3.32140    0.87983
  1    34     -3.30313    0.70558
  1    35     -3.29243    0.61111


Fermi level: -3.33347

No gap
Writing to output.gpw (mode='')


Forces in eV/Ang:
  0 Li    0.00151   -0.00210   -0.27686
  1 Li   -0.00229    0.00346   -0.27390
  2 Li    0.00045    0.00095   -0.27771
  3 Li   -0.00071   -0.00003   -0.27781
  4 Li    0.00243   -0.00349   -0.27700
  5 Li   -0.00282    0.00073   -0.27706
[...]
  4 Li   -0.00287   -0.00314   -0.26396
  5 Li   -0.00087    0.00182   -0.28096
  6 Li   -0.00373   -0.00331   -0.26799
  7 Li   -0.00133   -0.00087   -0.28209
  8 Li    0.00203   -0.00469   -0.27727
  9 Li    0.03456    0.00432    0.18996
 10 Li   -0.01440    0.00408    0.23167
 11 Li    0.00662    0.00014    0.28880
 12 Li    0.04616    0.04568    0.21255
 13 Li   -0.04545    0.00870    0.21016
 14 Li    0.01653    0.00192    0.25023
 15 Li    0.04557   -0.00430    0.18868
 16 Li   -0.03561    0.00808    0.18611
 17 Li    0.00842    0.01680    0.22634
 18 Li    0.03604    0.00989   -0.01633
 19 Li    0.01001   -0.01341    0.03296
 20 Li   -0.04384   -0.02328    0.01980
 21 Li   -0.00399   -0.02506    0.02951
 22 Li    0.01498    0.00389    0.04626
 23 Li   -0.00422   -0.02787    0.03556
 24 Li   -0.00343   -0.01489    0.03092
 25 Li    0.01756    0.01998    0.01542
 26 Li   -0.02005    0.02250    0.06011
 27 Li    0.05264    0.01160    0.10429
 28 Li   -0.01048   -0.00730    0.04813
 29 Li   -0.03063   -0.01231    0.04888
 30 Li   -0.00076    0.01874    0.03971
 31 Li   -0.00456   -0.00391   -0.00776
 32 Li    0.00180    0.03184    0.01329
 33 Li   -0.01224   -0.03320    0.02490
 34 Li   -0.00697    0.01421   -0.02339
 35 Li    0.01619   -0.01955    0.01027
 36 O    -0.09790   -0.07020   -0.18319
 37 C    -0.10116    0.02256    0.06735
 38 C    -0.00292    0.05487   -0.01195
 39 C    -0.02663    0.00086    0.02534
 40 C     0.12985    0.07048    0.04670
 41 H     0.12715   -0.09996    0.00517
 42 H     0.06612   -0.02324    0.01715
 43 H    -0.01549    0.07255   -0.19864
 44 H    -0.00924   -0.09653    0.05581
 45 H     0.01600    0.02215   -0.08933
 46 H     0.02059   -0.11399    0.00357
 47 H    -0.00963    0.00513    0.00734
 48 H    -0.09062    0.00815    0.02110
 49 H     0.05283   -0.06638    0.08278
 50 H    -0.08263    0.14475    0.11667

System changes: positions 

Initializing position-dependent things.

Density initialized from wave functions
       .-----------------------.  
      /|                       |  
     / |                       |  
    /  |                       |  
   /   |                       |  
  /    |                       |  
 *     |                       |  
 |     |          H      H     |  
 |     O           C     C     |  
 |     |          H     H     H|  
 |     |                       |  
 |     |                       |  
 |     |         H     H       |  
 |     |   H    C      C       |  
 |   Li|     Li  H   LiH       |  
 |     |  Li      Li      Li   |  
 | Li  |   Li      Li          |  
 |     |Li      Li      Li     |  
 Li    | Li      Li            |  
 |   LLi     LLi     LLi       |  
 |     |  Li      Li      Li   |  
 | Li  |   Li      Li          |  
 |     |Li      Li      Li     |  
 Li    | Li      Li            |  
 |    Li      Li      Li       |  
 |     |                       |  
 |     |                       |  
 |     |                       |  
 |     |                       |  
 |     |                       |  
 |     |                       |  
 |     .-----------------------.  
 |    /                       /   
 |   /                       /    
 |  /                       /     
 | /                       /      
 |/                       /       
 *-----------------------*        

Positions:
   0 Li     1.617037    1.617037   10.000000    ( 0.0000,  0.0000,  0.0000)
   1 Li     4.851111    1.617037   10.000000    ( 0.0000,  0.0000,  0.0000)
   2 Li     8.085185    1.617037   10.000000    ( 0.0000,  0.0000,  0.0000)
   3 Li     1.617037    4.851111   10.000000    ( 0.0000,  0.0000,  0.0000)
   4 Li     4.851111    4.851111   10.000000    ( 0.0000,  0.0000,  0.0000)
   5 Li     8.085185    4.851111   10.000000    ( 0.0000,  0.0000,  0.0000)
   6 Li     1.617037    8.085185   10.000000    ( 0.0000,  0.0000,  0.0000)
   7 Li     4.851111    8.085185   10.000000    ( 0.0000,  0.0000,  0.0000)
   8 Li     8.085185    8.085185   10.000000    ( 0.0000,  0.0000,  0.0000)
   9 Li     0.000000    0.000000   11.617037    ( 0.0000,  0.0000,  0.0000)
  10 Li     3.234074    0.000000   11.617037    ( 0.0000,  0.0000,  0.0000)
  11 Li     6.468148    0.000000   11.617037    ( 0.0000,  0.0000,  0.0000)
  12 Li     0.000000    3.234074   11.617037    ( 0.0000,  0.0000,  0.0000)
  13 Li     3.234074    3.234074   11.617037    ( 0.0000,  0.0000,  0.0000)
  14 Li     6.468148    3.234074   11.617037    ( 0.0000,  0.0000,  0.0000)
  15 Li     0.000000    6.468148   11.617037    ( 0.0000,  0.0000,  0.0000)
  16 Li     3.234074    6.468148   11.617037    ( 0.0000,  0.0000,  0.0000)
  17 Li     6.468148    6.468148   11.617037    ( 0.0000,  0.0000,  0.0000)
  18 Li     1.586587    1.602576   13.475147    ( 0.0000,  0.0000,  0.0000)
  19 Li     4.817330    1.650494   13.365457    ( 0.0000,  0.0000,  0.0000)
  20 Li     8.195334    1.644476   13.404912    ( 0.0000,  0.0000,  0.0000)
  21 Li     1.638312    4.890377   13.412998    ( 0.0000,  0.0000,  0.0000)
  22 Li     4.824893    4.859510   13.413145    ( 0.0000,  0.0000,  0.0000)
  23 Li     8.088359    4.890474   13.393435    ( 0.0000,  0.0000,  0.0000)
  24 Li     1.621258    8.129840   13.454010    ( 0.0000,  0.0000,  0.0000)
  25 Li     4.816003    8.029352   13.393596    ( 0.0000,  0.0000,  0.0000)
  26 Li     8.171171    8.084803   13.391153    ( 0.0000,  0.0000,  0.0000)
  27 Li     0.054074    0.038394   15.558602    ( 0.0000,  0.0000,  0.0000)
  28 Li     3.328751    0.009475   15.275400    ( 0.0000,  0.0000,  0.0000)
  29 Li     6.524728    0.007681   15.055245    ( 0.0000,  0.0000,  0.0000)
  30 Li     0.011574    3.328231   15.289076    ( 0.0000,  0.0000,  0.0000)
  31 Li     3.236071    3.246992   15.354407    ( 0.0000,  0.0000,  0.0000)
  32 Li     6.467888    3.214304   15.237203    ( 0.0000,  0.0000,  0.0000)
  33 Li     0.017939    6.510076   15.298920    ( 0.0000,  0.0000,  0.0000)
  34 Li     3.227201    6.450610   15.408613    ( 0.0000,  0.0000,  0.0000)
  35 Li     6.476695    6.499824   15.296179    ( 0.0000,  0.0000,  0.0000)
  36 O      9.703208    9.684822   18.328291    ( 0.0000,  0.0000,  0.0000)
  37 C      7.229280    9.655758   18.756510    ( 0.0000,  0.0000,  0.0000)
  38 C      5.960368   10.515801   18.777717    ( 0.0000,  0.0000,  0.0000)
  39 C      8.503182   10.471767   18.559151    ( 0.0000,  0.0000,  0.0000)
  40 C      4.676262    9.680532   18.792433    ( 0.0000,  0.0000,  0.0000)
  41 H      7.278704    9.082567   19.686416    ( 0.0000,  0.0000,  0.0000)
  42 H      7.129304    8.937868   17.929447    ( 0.0000,  0.0000,  0.0000)
  43 H      5.962435   11.151657   17.891410    ( 0.0000,  0.0000,  0.0000)
  44 H      5.978594   11.212913   19.622590    ( 0.0000,  0.0000,  0.0000)
  45 H      8.367691   11.140296   17.700026    ( 0.0000,  0.0000,  0.0000)
  46 H      8.700780   11.119261   19.420472    ( 0.0000,  0.0000,  0.0000)
  47 H      4.657778    8.985845   17.945037    ( 0.0000,  0.0000,  0.0000)
  48 H      4.614082    9.081063   19.704378    ( 0.0000,  0.0000,  0.0000)
  49 H      3.786612   10.315277   18.718000    ( 0.0000,  0.0000,  0.0000)
  50 H      9.458558    8.763423   18.154165    ( 0.0000,  0.0000,  0.0000)

Unit cell:
           periodic     x           y           z      points  spacing
  1. axis:    yes    9.702222    0.000000    0.000000    60     0.1617
  2. axis:    yes    0.000000    9.702222    0.000000    60     0.1617
  3. axis:    no     0.000000    0.000000   24.851111   156     0.1593

  Lengths:   9.702222   9.702222  24.851111
  Angles:   90.000000  90.000000  90.000000

Effective grid spacing dv^(1/3) = 0.1609

     iter     time        total  log10-change:
                         energy  eigst   dens
iter:   1 18:53:03  -323.438991  -0.71
iter:   2 18:58:06  -323.435482  -1.54  -1.98
iter:   3 19:03:29  -323.434314c -2.07  -2.11
iter:   4 19:07:30  -323.442019c -2.07  -2.17
Writing to output.gpw (mode='')

iter:   5 19:11:52  -323.419276c -1.88  -2.07
iter:   6 19:16:12  -323.417687c -2.01  -2.45
iter:   7 19:20:59  -323.417570c -2.23  -2.62
iter:   8 19:26:14  -323.417593c -3.12  -2.71
iter:   9 19:31:08  -323.417834c -2.99  -2.78
Writing to output.gpw (mode='')

iter:  10 19:36:26  -323.417614c -3.16  -2.85
iter:  11 19:40:32  -323.417617c -3.49  -2.99
iter:  12 19:46:26  -323.417562c -3.90  -3.06
iter:  13 19:51:57  -323.417596c -3.62  -3.22
iter:  14 19:56:22  -323.417569c -4.12  -3.38
Writing to output.gpw (mode='')

iter:  15 20:01:51  -323.417559c -4.60  -3.51
iter:  16 20:06:13  -323.417555c -4.62  -3.57
iter:  17 20:11:14  -323.417554c -5.07  -3.79
iter:  18 20:16:01  -323.417556c -4.83  -3.85
iter:  19 20:21:31  -323.417556c -5.24  -3.95
Writing to output.gpw (mode='')

iter:  20 20:26:39  -323.417560c -5.29  -4.01c
iter:  21 20:31:48  -323.417562c -5.02  -4.06c
iter:  22 20:36:33  -323.417561c -5.81  -4.25c
iter:  23 20:41:45  -323.417561c -5.88  -4.41c
iter:  24 20:45:01  -323.417560c -6.04  -4.48c
Writing to output.gpw (mode='')

iter:  25 20:49:34  -323.417560c -6.17  -4.67c
iter:  26 20:55:27  -323.417560c -6.54  -4.74c
iter:  27 21:00:44  -323.417561c -6.56  -4.84c
iter:  28 21:05:19  -323.417561c -6.73  -4.94c
iter:  29 21:10:03  -323.417561c -6.80  -5.01c
Writing to output.gpw (mode='')

iter:  30 21:15:03  -323.417561c -6.76  -5.07c
iter:  31 21:19:58  -323.417561c -7.13  -5.28c
iter:  32 21:24:50  -323.417561c -7.12  -5.31c
iter:  33 21:30:45  -323.417561c -6.96  -5.34c
iter:  34 21:36:10  -323.417561c -7.29  -5.24c
Writing to output.gpw (mode='')

iter:  35 21:42:01  -323.417561c -7.27  -5.31c
iter:  36 21:45:53  -323.417561c -7.58c -5.22c

Converged after 36 iterations.

Dipole moment: (-2.447264, -8.053545, 0.149951) |e|*Ang

Energy contributions relative to reference atoms: (reference = -13576.627914)

Kinetic:       +165.023118
Potential:     -158.157054
External:        +0.000000
XC:            -330.527321
Entropy (-ST):   -0.149882
Local:           +0.318637
--------------------------
Free energy:   -323.492502
Extrapolated:  -323.417561

Dipole-layer corrected work functions: 3.397999, 3.109741 eV

Showing only first 2 kpts
 Kpt  Band  Eigenvalues  Occupancy
  0    32     -3.56252    1.99584
  0    33     -3.44322    1.95568
  0    34     -3.06631    0.04590
  0    35     -3.05600    0.03751

  1    32     -3.24512    0.91271
  1    33     -3.22745    0.74179
  1    34     -3.21663    0.64394
  1    35     -3.20120    0.51713


Fermi level: -3.25387

No gap
Writing to output.gpw (mode='')


Forces in eV/Ang:
  0 Li   -0.00057   -0.00179   -0.26509
  1 Li   -0.00233    0.00221   -0.29223
  2 Li   -0.00021   -0.00205   -0.27515
  3 Li   -0.00054    0.00016   -0.29127
  4 Li   -0.00300   -0.00317   -0.26198
  5 Li   -0.00065    0.00175   -0.28260
  6 Li   -0.00374   -0.00323   -0.26756
  7 Li   -0.00108   -0.00015   -0.28344
  8 Li    0.00156   -0.00433   -0.27719
  9 Li    0.03547    0.00398    0.17863
 10 Li   -0.01602    0.00499    0.23228
 11 Li    0.00887    0.00121    0.28746
 12 Li    0.04729    0.04431    0.21652
 13 Li   -0.05072    0.00400    0.21617
 14 Li    0.02144   -0.00221    0.25291
 15 Li    0.04635   -0.00216    0.19458
 16 Li   -0.03861    0.01148    0.19149
 17 Li    0.01147    0.01910    0.22851
 18 Li    0.04240    0.01704   -0.02353
 19 Li    0.00801   -0.01191    0.03033
 20 Li   -0.04740   -0.01864    0.01496
 21 Li   -0.00417   -0.02480    0.02582
 22 Li    0.01216    0.00652    0.03837
 23 Li   -0.00035   -0.02637    0.02978
 24 Li   -0.00041   -0.02311    0.02367
 25 Li    0.01461    0.01879    0.01206
 26 Li   -0.01933    0.01609    0.05480
 27 Li    0.05678    0.01323    0.12620
 28 Li   -0.01400   -0.00706    0.05788
 29 Li   -0.03266   -0.01210    0.05875
 30 Li   -0.00001    0.01780    0.04617
 31 Li   -0.00566   -0.00468   -0.00450
 32 Li    0.00159    0.03387    0.02131
 33 Li   -0.01312   -0.03489    0.03213
 34 Li   -0.00701    0.01438   -0.02215
 35 Li    0.01628   -0.02268    0.01807
 36 O    -0.12780    0.00720   -0.21225
 37 C    -0.06326   -0.01639    0.07612
 38 C    -0.00861    0.11952   -0.05325
 39 C    -0.05317    0.04031   -0.01718
 40 C     0.07880    0.05500    0.01747
 41 H     0.13152   -0.13895    0.00881
 42 H     0.10497   -0.02155    0.04212
 43 H    -0.05338    0.09759   -0.23346
 44 H     0.00150   -0.08818    0.09670
 45 H     0.00731    0.00237   -0.10513
 46 H     0.04133   -0.13153    0.04297
 47 H     0.00600    0.02960    0.01346
 48 H    -0.09775    0.01354    0.01198
 49 H     0.06032   -0.07177    0.10070
 50 H    -0.08867    0.09715    0.11358

System changes: positions 

Initializing position-dependent things.

Density initialized from wave functions
       .-----------------------.  
      /|                       |  
     / |                       |  
    /  |                       |  
   /   |                       |  
  /    |                       |  
 *     |                       |  
 |     |          H      H     |  
 |     |           C     C     O  
 |     |          H     H     H|  
 |     |                       |  
 |     |                       |  
 |     |         H     H       |  
 |     |   H    C     C        |  
 |   Li|     Li  H   LiH       |  
 |     |  Li      Li      Li   |  
 | Li  |   Li      Li          |  
 |     |Li      Li      Li     |  
 Li    | Li      Li            |  
 |   LLi     LLi     LLi       |  
 |     |  Li      Li      Li   |  
 | Li  |   Li      Li          |  
 |     |Li      Li      Li     |  
 Li    | Li      Li            |  
 |    Li      Li      Li       |  
 |     |                       |  
 |     |                       |  
 |     |                       |  
 |     |                       |  
 |     |                       |  
 |     |                       |  
 |     .-----------------------.  
 |    /                       /   
 |   /                       /    
 |  /                       /     
 | /                       /      
 |/                       /       
 *-----------------------*        

Positions:
   0 Li     1.617037    1.617037   10.000000    ( 0.0000,  0.0000,  0.0000)
   1 Li     4.851111    1.617037   10.000000    ( 0.0000,  0.0000,  0.0000)
   2 Li     8.085185    1.617037   10.000000    ( 0.0000,  0.0000,  0.0000)
   3 Li     1.617037    4.851111   10.000000    ( 0.0000,  0.0000,  0.0000)
   4 Li     4.851111    4.851111   10.000000    ( 0.0000,  0.0000,  0.0000)
   5 Li     8.085185    4.851111   10.000000    ( 0.0000,  0.0000,  0.0000)
   6 Li     1.617037    8.085185   10.000000    ( 0.0000,  0.0000,  0.0000)
   7 Li     4.851111    8.085185   10.000000    ( 0.0000,  0.0000,  0.0000)
   8 Li     8.085185    8.085185   10.000000    ( 0.0000,  0.0000,  0.0000)
   9 Li     0.000000    0.000000   11.617037    ( 0.0000,  0.0000,  0.0000)
  10 Li     3.234074    0.000000   11.617037    ( 0.0000,  0.0000,  0.0000)
  11 Li     6.468148    0.000000   11.617037    ( 0.0000,  0.0000,  0.0000)
  12 Li     0.000000    3.234074   11.617037    ( 0.0000,  0.0000,  0.0000)
  13 Li     3.234074    3.234074   11.617037    ( 0.0000,  0.0000,  0.0000)
  14 Li     6.468148    3.234074   11.617037    ( 0.0000,  0.0000,  0.0000)
  15 Li     0.000000    6.468148   11.617037    ( 0.0000,  0.0000,  0.0000)
  16 Li     3.234074    6.468148   11.617037    ( 0.0000,  0.0000,  0.0000)
  17 Li     6.468148    6.468148   11.617037    ( 0.0000,  0.0000,  0.0000)
  18 Li     1.578162    1.592296   13.485175    ( 0.0000,  0.0000,  0.0000)
  19 Li     4.818499    1.650656   13.360165    ( 0.0000,  0.0000,  0.0000)
  20 Li     8.204698    1.638099   13.409471    ( 0.0000,  0.0000,  0.0000)
  21 Li     1.640047    4.890625   13.411460    ( 0.0000,  0.0000,  0.0000)
  22 Li     4.826435    4.858041   13.413938    ( 0.0000,  0.0000,  0.0000)
  23 Li     8.085056    4.890217   13.391625    ( 0.0000,  0.0000,  0.0000)
  24 Li     1.617441    8.140852   13.460068    ( 0.0000,  0.0000,  0.0000)
  25 Li     4.817739    8.028741   13.389433    ( 0.0000,  0.0000,  0.0000)
  26 Li     8.176224    8.092051   13.391982    ( 0.0000,  0.0000,  0.0000)
  27 Li     0.052947    0.034978   15.598440    ( 0.0000,  0.0000,  0.0000)
  28 Li     3.343676    0.010030   15.265915    ( 0.0000,  0.0000,  0.0000)
  29 Li     6.525564    0.008982   15.045436    ( 0.0000,  0.0000,  0.0000)
  30 Li     0.010427    3.332777   15.282985    ( 0.0000,  0.0000,  0.0000)
  31 Li     3.237195    3.245235   15.349842    ( 0.0000,  0.0000,  0.0000)
  32 Li     6.468899    3.207911   15.228841    ( 0.0000,  0.0000,  0.0000)
  33 Li     0.018395    6.509148   15.288029    ( 0.0000,  0.0000,  0.0000)
  34 Li     3.227696    6.452836   15.405335    ( 0.0000,  0.0000,  0.0000)
  35 Li     6.477563    6.506560   15.286434    ( 0.0000,  0.0000,  0.0000)
  36 O      9.695861    9.677818   18.308229    ( 0.0000,  0.0000,  0.0000)
  37 C      7.225999    9.654077   18.776568    ( 0.0000,  0.0000,  0.0000)
  38 C      5.959308   10.513912   18.802290    ( 0.0000,  0.0000,  0.0000)
  39 C      8.500140   10.466809   18.564635    ( 0.0000,  0.0000,  0.0000)
  40 C      4.676436    9.678471   18.819471    ( 0.0000,  0.0000,  0.0000)
  41 H      7.282094    9.087440   19.709270    ( 0.0000,  0.0000,  0.0000)
  42 H      7.112910    8.933468   17.953083    ( 0.0000,  0.0000,  0.0000)
  43 H      5.963632   11.146961   17.915089    ( 0.0000,  0.0000,  0.0000)
  44 H      5.977250   11.214778   19.643062    ( 0.0000,  0.0000,  0.0000)
  45 H      8.356710   11.139034   17.710320    ( 0.0000,  0.0000,  0.0000)
  46 H      8.710316   11.113192   19.423602    ( 0.0000,  0.0000,  0.0000)
  47 H      4.656021    8.980230   17.974409    ( 0.0000,  0.0000,  0.0000)
  48 H      4.614183    9.081826   19.733770    ( 0.0000,  0.0000,  0.0000)
  49 H      3.787542   10.313350   18.740554    ( 0.0000,  0.0000,  0.0000)
  50 H      9.446179    8.749321   18.176025    ( 0.0000,  0.0000,  0.0000)

Unit cell:
           periodic     x           y           z      points  spacing
  1. axis:    yes    9.702222    0.000000    0.000000    60     0.1617
  2. axis:    yes    0.000000    9.702222    0.000000    60     0.1617
  3. axis:    no     0.000000    0.000000   24.851111   156     0.1593

  Lengths:   9.702222   9.702222  24.851111
  Angles:   90.000000  90.000000  90.000000

Effective grid spacing dv^(1/3) = 0.1609

     iter     time        total  log10-change:
                         energy  eigst   dens
iter:   1 21:50:01  -323.439349  -0.75
iter:   2 21:53:57  -323.440396  -1.59  -2.10
iter:   3 21:58:54  -323.440659c -2.09  -2.16
iter:   4 22:03:08  -323.450829c -1.94  -2.17
Writing to output.gpw (mode='')

iter:   5 22:08:10  -323.426194c -1.90  -2.05
iter:   6 22:12:55  -323.424767c -1.92  -2.50
iter:   7 22:18:28  -323.425145c -2.19  -2.69
iter:   8 22:25:04  -323.425579c -2.61  -2.73
iter:   9 22:30:29  -323.425672c -2.95  -2.65
Writing to output.gpw (mode='')

iter:  10 22:35:06  -323.425535c -3.41  -2.83
iter:  11 22:39:42  -323.425083c -3.25  -2.89
iter:  12 22:44:03  -323.425099c -4.01  -3.13
iter:  13 22:49:57  -323.425144c -3.48  -3.13
iter:  14 22:55:31  -323.425067c -4.07  -3.13
Writing to output.gpw (mode='')

iter:  15 22:59:48  -323.425073c -4.38  -3.47
iter:  16 23:03:35  -323.425079c -4.71  -3.50
iter:  17 23:06:28  -323.425086c -4.73  -3.62
iter:  18 23:09:44  -323.425075c -4.93  -3.71
iter:  19 23:13:16  -323.425076c -5.47  -3.82
Writing to output.gpw (mode='')

iter:  20 23:16:28  -323.425077c -5.10  -3.89
iter:  21 23:19:53  -323.425071c -5.30  -4.06c
iter:  22 23:23:03  -323.425074c -5.65  -4.08c
iter:  23 23:26:20  -323.425073c -6.00  -4.44c
iter:  24 23:31:51  -323.425074c -6.29  -4.60c
Writing to output.gpw (mode='')

iter:  25 23:35:59  -323.425074c -6.57  -4.62c
iter:  26 23:41:12  -323.425075c -6.37  -4.67c
iter:  27 23:45:41  -323.425075c -6.64  -4.76c
iter:  28 23:51:10  -323.425075c -6.93  -4.97c
iter:  29 23:55:58  -323.425074c -6.92  -4.99c
Writing to output.gpw (mode='')

iter:  30 00:00:56  -323.425073c -6.88  -5.09c
