
  ___ ___ ___ _ _ _  
 |   |   |_  | | | | 
 | | | | | . | | | | 
 |__ |  _|___|_____|  22.8.0
 |___|_|             

User:   vazumah@c22.hercules
Date:   Sat Mar 11 04:11:52 2023
Arch:   x86_64
Pid:    32034
CWD:    /home/vazumah/Python_projects/LiNRR/Li_adsorb_studies/proton_donors/on_pure_surface/Li_BCC100/adsorbates/formic_acid_z/bridge/0.0_1.617
Python: 3.10.8
gpaw:   /home/vazumah/.conda/envs/GPAW/lib/python3.10/site-packages/gpaw
_gpaw:  /home/vazumah/.conda/envs/GPAW/lib/python3.10/site-packages/
        _gpaw.cpython-310-x86_64-linux-gnu.so
ase:    /home/vazumah/.conda/envs/GPAW/lib/python3.10/site-packages/ase (version 3.22.1)
numpy:  /home/vazumah/.conda/envs/GPAW/lib/python3.10/site-packages/numpy (version 1.24.1)
scipy:  /home/vazumah/.conda/envs/GPAW/lib/python3.10/site-packages/scipy (version 1.10.0)
libxc:  5.2.3
units:  Angstrom and eV
cores: 24
OpenMP: True
OMP_NUM_THREADS: 1

Input parameters:
  h: 0.16
  kpts: {size: [4, 4, 1]}
  occupations: {name: fermi-dirac,
                width: 0.05}
  poissonsolver: {dipolelayer: xy}
  xc: BEEF-vdW

System changes: positions, numbers, cell, pbc, initial_charges, initial_magmoms 

Initialize ...

species:
  Li:
    name: Lithium
    id: 830b4218f175192f93f959cfc0aad614
    Z: 3.0
    valence: 1
    core: 2
    charge: 0.0
    file: /home/vazumah/.conda/envs/GPAW/share/gpaw/Li.PBE.gz
    compensation charges: {type: gauss,
                           rc: 0.33,
                           lmax: 2}
    cutoffs: {filter: 1.91,
              core: 2.55}
    valence states:
      #              energy  rcut
      - 2s(1.00)    -2.874   1.058
      - 2p(0.00)    -1.090   1.058
      -  s          24.337   1.058
  
    # Using partial waves for Li as LCAO basis

  O:
    name: Oxygen
    id: 32ecd46bf208036f09c70b0ec9a88b78
    Z: 8.0
    valence: 6
    core: 2
    charge: 0.0
    file: /home/vazumah/.conda/envs/GPAW/share/gpaw/O.PBE.gz
    compensation charges: {type: gauss,
                           rc: 0.21,
                           lmax: 2}
    cutoffs: {filter: 1.17,
              core: 0.83}
    valence states:
      #              energy  rcut
      - 2s(2.00)   -23.961   0.688
      - 2p(4.00)    -9.029   0.598
      -  s           3.251   0.688
      -  p          18.182   0.598
      -  d           0.000   0.619
  
    # Using partial waves for O as LCAO basis

  C:
    name: Carbon
    id: 4aa54d4b901d75f77cc0ea3eec22967b
    Z: 6.0
    valence: 4
    core: 2
    charge: 0.0
    file: /home/vazumah/.conda/envs/GPAW/share/gpaw/C.PBE.gz
    compensation charges: {type: gauss,
                           rc: 0.20,
                           lmax: 2}
    cutoffs: {filter: 1.14,
              core: 1.14}
    valence states:
      #              energy  rcut
      - 2s(2.00)   -13.751   0.635
      - 2p(2.00)    -5.284   0.635
      -  s          13.461   0.635
      -  p          21.927   0.635
      -  d           0.000   0.635
  
    # Using partial waves for C as LCAO basis

  H:
    name: Hydrogen
    id: d65de229564ff8ea4db303e23b6d1ecf
    Z: 1.0
    valence: 1
    core: 0
    charge: 0.0
    file: /home/vazumah/.conda/envs/GPAW/share/gpaw/H.PBE.gz
    compensation charges: {type: gauss,
                           rc: 0.15,
                           lmax: 2}
    cutoffs: {filter: 0.85,
              core: 0.53}
    valence states:
      #              energy  rcut
      - 1s(1.00)    -6.494   0.476
      -  s          20.717   0.476
      -  p           0.000   0.476
  
    # Using partial waves for H as LCAO basis

Reference energy: -12434.674571  # eV

Spin-paired calculation

Convergence criteria:
 Maximum [total energy] change in last 3 cyles: 0.0005 eV / electron
 Maximum integral of absolute [dens]ity change: 0.0001 electrons / valence electron
 Maximum integral of absolute [eigenst]ate change: 4e-08 eV^2 / valence electron
 Maximum number of scf [iter]ations: 333
 (Square brackets indicate name in SCF output, whereas a 'c' in
 the SCF output indicates the quantity has converged.)

Symmetries present (total): 2

  ( 1  0  0)  (-1  0  0)
  ( 0  1  0)  ( 0  1  0)
  ( 0  0  1)  ( 0  0  1)

16 k-points: 4 x 4 x 1 Monkhorst-Pack grid
4 k-points in the irreducible part of the Brillouin zone
       k-points in crystal coordinates                weights
   0:     0.12500000    0.12500000    0.00000000          4/16
   1:     0.12500000    0.37500000    0.00000000          4/16
   2:     0.37500000    0.12500000    0.00000000          4/16
   3:     0.37500000    0.37500000    0.00000000          4/16

Wave functions: Uniform real-space grid
  Kinetic energy operator: 6*3+1=19 point O(h^6) finite-difference Laplacian
  ScaLapack parameters: grid=1x1, blocksize=None
  Wavefunction extrapolation:
    Improved wavefunction reuse through dual PAW basis 

Occupation numbers: Fermi-Dirac:
  width: 0.0500  # eV
 

Eigensolver
   Davidson(niter=2) 

Densities:
  Coarse grid: 60*60*156 grid
  Fine grid: 120*120*312 grid
  Total Charge: 0.000000 

Density mixing:
  Method: separate
  Backend: pulay
  Linear mixing parameter: 0.05
  old densities: 5
  Damping of long wavelength oscillations: 50 

Hamiltonian:
  XC and Coulomb potentials evaluated on a 120*120*312 grid
  Using the BEEF-vdW Exchange-Correlation functional
  Interpolation: tri-quintic (5. degree polynomial)
  Poisson solver: FastPoissonSolver using
    Stencil: 6*3+1=19 point O(h^6) finite-difference Laplacian
    FFT axes: [0, 1]
    FST axes: [2]

Dipole correction along z-axis 

XC parameters: BEEF-vdW with 2 nearest neighbor stencil

Memory estimate:
  Process memory now: 153.57 MiB
  Calculator: 185.60 MiB
    Density: 58.40 MiB
      Arrays: 18.37 MiB
      Localized functions: 33.03 MiB
      Mixer: 7.00 MiB
    Hamiltonian: 14.62 MiB
      Arrays: 12.02 MiB
      XC: 0.00 MiB
      Poisson: 0.00 MiB
      vbar: 2.61 MiB
    Wavefunctions: 112.57 MiB
      Arrays psit_nG: 51.83 MiB
      Eigensolver: 59.04 MiB
      Projections: 0.02 MiB
      Projectors: 1.68 MiB

Total number of cores used: 24
Parallelization over k-points: 4
Domain decomposition: 1 x 2 x 3

Number of atoms: 41
Number of atomic orbitals: 158
Number of bands in calculation: 37
Number of valence electrons: 54
Bands to converge: occupied

... initialized

Initializing position-dependent things.

Density initialized from atomic densities
Creating initial wave functions:
  37 bands from LCAO basis set

       .-----------------------.  
      /|                       |  
     / |                       |  
    /  |                       |  
   /   |                       |  
  /    |                       |  
 *     |                       |  
 |     |                       |  
 |     |                       |  
 |     |                       |  
 |     |                       |  
 |O    |                       |  
 |     |                       |  
 HC    |                       |  
 |O  Li|     Li      Li        |  
 H     |  Li      Li      Li   |  
 | Li  |   Li      Li          |  
 |     |Li      Li      Li     |  
 Li    | Li      Li            |  
 |   LLi     LLi     LLi       |  
 |     |  Li      Li      Li   |  
 | Li  |   Li      Li          |  
 |     |Li      Li      Li     |  
 Li    | Li      Li            |  
 |    Li      Li      Li       |  
 |     |                       |  
 |     |                       |  
 |     |                       |  
 |     |                       |  
 |     |                       |  
 |     |                       |  
 |     .-----------------------.  
 |    /                       /   
 |   /                       /    
 |  /                       /     
 | /                       /      
 |/                       /       
 *-----------------------*        

Positions:
   0 Li     1.617037    1.617037   10.000000    ( 0.0000,  0.0000,  0.0000)
   1 Li     4.851111    1.617037   10.000000    ( 0.0000,  0.0000,  0.0000)
   2 Li     8.085185    1.617037   10.000000    ( 0.0000,  0.0000,  0.0000)
   3 Li     1.617037    4.851111   10.000000    ( 0.0000,  0.0000,  0.0000)
   4 Li     4.851111    4.851111   10.000000    ( 0.0000,  0.0000,  0.0000)
   5 Li     8.085185    4.851111   10.000000    ( 0.0000,  0.0000,  0.0000)
   6 Li     1.617037    8.085185   10.000000    ( 0.0000,  0.0000,  0.0000)
   7 Li     4.851111    8.085185   10.000000    ( 0.0000,  0.0000,  0.0000)
   8 Li     8.085185    8.085185   10.000000    ( 0.0000,  0.0000,  0.0000)
   9 Li     0.000000    0.000000   11.617037    ( 0.0000,  0.0000,  0.0000)
  10 Li     3.234074    0.000000   11.617037    ( 0.0000,  0.0000,  0.0000)
  11 Li     6.468148    0.000000   11.617037    ( 0.0000,  0.0000,  0.0000)
  12 Li     0.000000    3.234074   11.617037    ( 0.0000,  0.0000,  0.0000)
  13 Li     3.234074    3.234074   11.617037    ( 0.0000,  0.0000,  0.0000)
  14 Li     6.468148    3.234074   11.617037    ( 0.0000,  0.0000,  0.0000)
  15 Li     0.000000    6.468148   11.617037    ( 0.0000,  0.0000,  0.0000)
  16 Li     3.234074    6.468148   11.617037    ( 0.0000,  0.0000,  0.0000)
  17 Li     6.468148    6.468148   11.617037    ( 0.0000,  0.0000,  0.0000)
  18 Li     1.617038    1.617038   13.469728    ( 0.0000,  0.0000,  0.0000)
  19 Li     4.851111    1.617038   13.469729    ( 0.0000,  0.0000,  0.0000)
  20 Li     8.085184    1.617038   13.469728    ( 0.0000,  0.0000,  0.0000)
  21 Li     1.617038    4.851111   13.469729    ( 0.0000,  0.0000,  0.0000)
  22 Li     4.851111    4.851111   13.469730    ( 0.0000,  0.0000,  0.0000)
  23 Li     8.085184    4.851111   13.469729    ( 0.0000,  0.0000,  0.0000)
  24 Li     1.617038    8.085184   13.469728    ( 0.0000,  0.0000,  0.0000)
  25 Li     4.851111    8.085184   13.469729    ( 0.0000,  0.0000,  0.0000)
  26 Li     8.085184    8.085184   13.469728    ( 0.0000,  0.0000,  0.0000)
  27 Li    -0.000000   -0.000000   15.445939    ( 0.0000,  0.0000,  0.0000)
  28 Li     3.234074    0.000000   15.445939    ( 0.0000,  0.0000,  0.0000)
  29 Li     6.468148    0.000000   15.445939    ( 0.0000,  0.0000,  0.0000)
  30 Li     0.000000    3.234074   15.445939    ( 0.0000,  0.0000,  0.0000)
  31 Li     3.234076    3.234076   15.445938    ( 0.0000,  0.0000,  0.0000)
  32 Li     6.468146    3.234076   15.445938    ( 0.0000,  0.0000,  0.0000)
  33 Li     0.000000    6.468148   15.445939    ( 0.0000,  0.0000,  0.0000)
  34 Li     3.234076    6.468146   15.445938    ( 0.0000,  0.0000,  0.0000)
  35 Li     6.468146    6.468146   15.445938    ( 0.0000,  0.0000,  0.0000)
  36 O      0.000000    1.617037   17.445939    ( 0.0000,  0.0000,  0.0000)
  37 O      0.000000    2.217364   19.607713    ( 0.0000,  0.0000,  0.0000)
  38 C      0.000000    1.349992   18.780985    ( 0.0000,  0.0000,  0.0000)
  39 H      0.000000    0.271539   19.013945    ( 0.0000,  0.0000,  0.0000)
  40 H     -0.000000    0.784010   16.951768    ( 0.0000,  0.0000,  0.0000)

Unit cell:
           periodic     x           y           z      points  spacing
  1. axis:    yes    9.702222    0.000000    0.000000    60     0.1617
  2. axis:    yes    0.000000    9.702222    0.000000    60     0.1617
  3. axis:    no     0.000000    0.000000   24.851111   156     0.1593

  Lengths:   9.702222   9.702222  24.851111
  Angles:   90.000000  90.000000  90.000000

Effective grid spacing dv^(1/3) = 0.1609

     iter     time        total  log10-change:
                         energy  eigst   dens
iter:   1 04:12:37  -386.511089
iter:   2 04:13:03  -176.230701  +2.35  -0.11
iter:   3 04:13:30  -151.916855  +3.25  -0.26
iter:   4 04:13:56  -158.447290  +2.71  -0.16
Writing to output.gpw (mode='')

iter:   5 04:14:24  -192.537978  +2.80  -0.28
iter:   6 04:14:51  -219.851518  +2.63  -0.50
iter:   7 04:15:17  -275.840587  +2.66  -0.51
iter:   8 04:15:43  -277.116810  +2.30  -0.39
iter:   9 04:16:10  -260.771116  +2.18  -0.43
Writing to output.gpw (mode='')

iter:  10 04:16:38  -266.024847  +1.86  -0.57
iter:  11 04:17:04  -318.671334  +2.29  -0.55
iter:  12 04:17:30  -319.316932  +1.88  -0.39
iter:  13 04:17:57  -296.630335  +1.67  -0.37
iter:  14 04:18:23  -269.904373  +1.42  -0.52
Writing to output.gpw (mode='')

iter:  15 04:18:51  -265.069479  +0.96  -0.61
iter:  16 04:19:17  -267.637801  +1.37  -0.73
iter:  17 04:19:44  -259.266264  +1.09  -0.65
iter:  18 04:20:10  -257.654067  +0.27  -0.77
iter:  19 04:20:36  -257.545074  +0.22  -0.88
Writing to output.gpw (mode='')

iter:  20 04:21:05  -258.079656  +0.88  -0.99
iter:  21 04:21:31  -257.030060  +0.43  -0.95
iter:  22 04:21:58  -256.868842  -0.15  -1.19
iter:  23 04:22:24  -256.749005  +0.20  -1.25
iter:  24 04:22:51  -256.986307  -0.22  -1.39
Writing to output.gpw (mode='')

iter:  25 04:23:18  -256.833907  -0.76  -1.31
iter:  26 04:23:45  -256.785811  -0.18  -1.42
iter:  27 04:24:12  -256.714276  -0.92  -1.55
iter:  28 04:24:38  -256.720523  -0.96  -1.80
iter:  29 04:25:05  -256.732392c -1.06  -1.86
Writing to output.gpw (mode='')

iter:  30 04:25:35  -256.730351c -1.05  -1.95
iter:  31 04:26:01  -256.734280c -1.34  -2.11
iter:  32 04:26:28  -256.744469c -1.11  -2.11
iter:  33 04:26:54  -256.739615c -1.71  -2.07
iter:  34 04:27:21  -256.741439c -1.59  -2.28
Writing to output.gpw (mode='')

iter:  35 04:27:49  -256.744191c -1.85  -2.42
iter:  36 04:28:15  -256.746312c -1.74  -2.40
iter:  37 04:28:42  -256.747169c -2.18  -2.39
iter:  38 04:29:08  -256.747812c -1.97  -2.42
iter:  39 04:29:35  -256.749142c -2.05  -2.69
Writing to output.gpw (mode='')

iter:  40 04:30:03  -256.749741c -2.34  -2.67
iter:  41 04:30:29  -256.750307c -2.38  -2.73
iter:  42 04:30:56  -256.750944c -2.34  -2.75
iter:  43 04:31:23  -256.751410c -2.57  -2.77
iter:  44 04:31:49  -256.752038c -2.59  -2.78
Writing to output.gpw (mode='')

iter:  45 04:32:17  -256.752338c -2.62  -2.72
iter:  46 04:32:44  -256.752620c -2.85  -2.90
iter:  47 04:33:10  -256.752832c -2.90  -2.97
iter:  48 04:33:37  -256.753080c -2.72  -3.03
iter:  49 04:34:03  -256.753305c -2.94  -3.18
Writing to output.gpw (mode='')

iter:  50 04:34:31  -256.753438c -2.97  -3.32
iter:  51 04:34:58  -256.753554c -3.18  -3.47
iter:  52 04:35:25  -256.753617c -3.44  -3.60
iter:  53 04:35:51  -256.753677c -3.40  -3.65
iter:  54 04:36:18  -256.753748c -3.21  -3.69
Writing to output.gpw (mode='')

iter:  55 04:36:47  -256.753797c -3.46  -3.78
iter:  56 04:37:13  -256.753843c -3.54  -3.84
iter:  57 04:37:40  -256.753874c -3.72  -3.89
iter:  58 04:38:07  -256.753912c -3.55  -3.96
iter:  59 04:38:33  -256.753944c -3.75  -4.05c
Writing to output.gpw (mode='')

iter:  60 04:39:01  -256.753967c -3.69  -4.18c
iter:  61 04:39:28  -256.753985c -3.87  -4.23c
iter:  62 04:39:54  -256.754005c -3.94  -4.18c
iter:  63 04:40:21  -256.754017c -4.22  -4.13c
iter:  64 04:40:48  -256.754027c -4.09  -4.11c
Writing to output.gpw (mode='')

iter:  65 04:41:15  -256.754036c -4.16  -4.07c
iter:  66 04:41:42  -256.754045c -4.28  -4.05c
iter:  67 04:42:08  -256.754054c -4.18  -4.09c
iter:  68 04:42:35  -256.754061c -4.28  -4.03c
iter:  69 04:43:02  -256.754067c -4.43  -3.98
Writing to output.gpw (mode='')

iter:  70 04:43:34  -256.754071c -4.51  -3.98
iter:  71 04:44:01  -256.754076c -4.52  -3.93
iter:  72 04:44:27  -256.754079c -4.55  -4.06c
iter:  73 04:44:54  -256.754080c -4.71  -4.09c
iter:  74 04:45:21  -256.754083c -4.70  -4.21c
Writing to output.gpw (mode='')

iter:  75 04:45:48  -256.754084c -4.74  -4.38c
iter:  76 04:46:15  -256.754087c -4.60  -4.46c
iter:  77 04:46:42  -256.754087c -5.00  -4.65c
iter:  78 04:47:08  -256.754088c -4.97  -4.77c
iter:  79 04:47:35  -256.754089c -5.05  -4.84c
Writing to output.gpw (mode='')

iter:  80 04:48:03  -256.754090c -4.98  -4.84c
iter:  81 04:48:29  -256.754091c -5.18  -4.87c
iter:  82 04:48:56  -256.754091c -5.33  -5.02c
iter:  83 04:49:22  -256.754092c -5.06  -5.11c
iter:  84 04:49:49  -256.754092c -5.44  -5.19c
Writing to output.gpw (mode='')

iter:  85 04:50:17  -256.754092c -5.39  -5.21c
iter:  86 04:50:43  -256.754093c -5.60  -5.25c
iter:  87 04:51:10  -256.754093c -5.39  -5.44c
iter:  88 04:51:37  -256.754093c -5.67  -5.55c
iter:  89 04:52:03  -256.754093c -5.46  -5.58c
Writing to output.gpw (mode='')

iter:  90 04:52:31  -256.754093c -5.60  -5.59c
iter:  91 04:52:58  -256.754093c -5.88  -5.58c
iter:  92 04:53:24  -256.754093c -5.64  -5.53c
iter:  93 04:53:51  -256.754093c -5.90  -5.52c
iter:  94 04:54:17  -256.754094c -5.62  -5.45c
Writing to output.gpw (mode='')

iter:  95 04:54:46  -256.754094c -5.97  -5.41c
iter:  96 04:55:12  -256.754094c -5.83  -5.35c
iter:  97 04:55:39  -256.754094c -5.94  -5.32c
iter:  98 04:56:05  -256.754094c -6.10  -5.31c
iter:  99 04:56:32  -256.754094c -6.10  -5.16c
Writing to output.gpw (mode='')

iter: 100 04:57:00  -256.754094c -5.93  -5.25c
iter: 101 04:57:26  -256.754094c -6.19  -5.26c
iter: 102 04:57:53  -256.754094c -6.23  -5.21c
iter: 103 04:58:20  -256.754094c -6.19  -5.33c
iter: 104 04:58:46  -256.754094c -6.36  -5.51c
Writing to output.gpw (mode='')

iter: 105 04:59:14  -256.754094c -6.37  -5.48c
iter: 106 04:59:41  -256.754094c -6.55  -5.71c
iter: 107 05:00:07  -256.754094c -6.49  -5.66c
iter: 108 05:00:34  -256.754094c -6.53  -5.73c
iter: 109 05:01:01  -256.754094c -6.57  -5.65c
Writing to output.gpw (mode='')

iter: 110 05:01:29  -256.754094c -6.71  -5.65c
iter: 111 05:01:55  -256.754094c -6.66  -5.62c
iter: 112 05:02:22  -256.754094c -6.74  -5.64c
iter: 113 05:02:48  -256.754094c -6.69  -5.71c
iter: 114 05:03:15  -256.754093c -6.77  -5.73c
Writing to output.gpw (mode='')

iter: 115 05:03:45  -256.754093c -6.79  -5.79c
iter: 116 05:04:11  -256.754093c -6.93  -5.91c
iter: 117 05:04:38  -256.754093c -6.62  -5.92c
iter: 118 05:05:05  -256.754093c -6.82  -5.99c
iter: 119 05:05:31  -256.754093c -6.95  -5.99c
Writing to output.gpw (mode='')

iter: 120 05:05:59  -256.754093c -6.94  -6.04c
iter: 121 05:06:25  -256.754093c -7.11  -6.07c
iter: 122 05:06:52  -256.754093c -7.07  -6.08c
iter: 123 05:07:18  -256.754093c -7.13  -6.27c
iter: 124 05:07:45  -256.754093c -7.13  -6.31c
Writing to output.gpw (mode='')

iter: 125 05:08:15  -256.754093c -7.20  -6.39c
iter: 126 05:08:42  -256.754093c -7.31  -6.53c
iter: 127 05:09:08  -256.754093c -7.31  -6.76c
iter: 128 05:09:35  -256.754093c -7.29  -6.76c
iter: 129 05:10:01  -256.754093c -7.32  -6.61c
Writing to output.gpw (mode='')

iter: 130 05:10:30  -256.754093c -7.45c -6.62c

Converged after 130 iterations.

Dipole moment: (-15.287557, -5.949685, -0.187822) |e|*Ang

Energy contributions relative to reference atoms: (reference = -12434.674571)

Kinetic:       +117.631652
Potential:     -107.377229
External:        +0.000000
XC:            -267.483558
Entropy (-ST):   -0.150851
Local:           +0.550468
--------------------------
Free energy:   -256.829519
Extrapolated:  -256.754093

Dipole-layer corrected work functions: 3.382678, 3.743737 eV

Showing only first 2 kpts
 Kpt  Band  Eigenvalues  Occupancy
  0    25     -3.60188    1.36856
  0    26     -3.54982    0.86689
  0    27     -3.52299    0.61818
  0    28     -3.50930    0.50769

  1    25     -3.81706    1.98760
  1    26     -3.72749    1.92786
  1    27     -3.40082    0.07481
  1    28     -3.31131    0.01289


Fermi level: -3.56321

No gap

Forces in eV/Ang:
  0 Li    0.00572   -0.00280   -0.27576
  1 Li    0.00000    0.00429   -0.27072
  2 Li   -0.00572   -0.00280   -0.27576
  3 Li    0.00230    0.00248   -0.26985
  4 Li    0.00000   -0.00537   -0.27219
  5 Li   -0.00230    0.00248   -0.26985
  6 Li   -0.00383   -0.00041   -0.27289
  7 Li    0.00000    0.00139   -0.27323
  8 Li    0.00383   -0.00041   -0.27289
  9 Li    0.00000    0.00219    0.26280
 10 Li    0.00475   -0.00246    0.25927
 11 Li   -0.00475   -0.00246    0.25927
 12 Li    0.00000   -0.00959    0.28345
 13 Li    0.01017    0.00398    0.25221
 14 Li   -0.01017    0.00398    0.25221
 15 Li    0.00000    0.00892    0.25637
 16 Li   -0.00737   -0.00086    0.26402
 17 Li    0.00737   -0.00086    0.26402
 18 Li    0.01384   -0.00335   -0.00776
 19 Li    0.00000    0.00132    0.04926
 20 Li   -0.01384   -0.00335   -0.00776
 21 Li   -0.00837   -0.00956    0.03849
 22 Li    0.00000    0.00461    0.04040
 23 Li    0.00837   -0.00956    0.03849
 24 Li   -0.00253    0.01486    0.05631
 25 Li    0.00000   -0.00662    0.02423
 26 Li    0.00253    0.01486    0.05631
 27 Li    0.00000   -0.68049   -1.38283
 28 Li    0.00421   -0.02257   -0.03509
 29 Li   -0.00421   -0.02257   -0.03509
 30 Li    0.00000   -0.03011    0.16581
 31 Li    0.03370    0.01105   -0.03616
 32 Li   -0.03370    0.01105   -0.03616
 33 Li    0.00000    0.04523    0.00502
 34 Li   -0.00816    0.00583   -0.01356
 35 Li    0.00816    0.00583   -0.01356
 36 O     0.00000    1.02708    0.14789
 37 O     0.00000    0.08341   -0.06531
 38 C     0.00000   -0.18621    0.61342
 39 H     0.00000    0.05304   -0.07932
 40 H     0.00000   -0.32686    0.61823

System changes: positions 

Initializing position-dependent things.

Density initialized from wave functions
       .-----------------------.  
      /|                       |  
     / |                       |  
    /  |                       |  
   /   |                       |  
  /    |                       |  
 *     |                       |  
 |     |                       |  
 |     |                       |  
 |     |                       |  
 |     |                       |  
 |O    |                       |  
 |     Li      Li      Li      |  
 HC    |                       |  
 |O  Li|     Li      Li        |  
 H     |  Li      Li      Li   |  
 | Li  |   Li      Li          |  
 |     |Li      Li      Li     |  
 |     |                       |  
 |   LLi     LLi     LLi       |  
 |     |  Li      Li      Li   |  
 | Li  |   Li      Li          |  
 |     |Li      Li      Li     |  
 Li    | Li      Li            |  
 |    Li      Li      Li       |  
 |     |                       |  
 |     |                       |  
 |     |                       |  
 |     |                       |  
 |     |                       |  
 |     |                       |  
 |     .-----------------------.  
 |    /                       /   
 |   /                       /    
 |  /                       /     
 | /                       /      
 |/                       /       
 *-----------------------*        

Positions:
   0 Li     1.617037    1.617037   10.000000    ( 0.0000,  0.0000,  0.0000)
   1 Li     4.851111    1.617037   10.000000    ( 0.0000,  0.0000,  0.0000)
   2 Li     8.085185    1.617037   10.000000    ( 0.0000,  0.0000,  0.0000)
   3 Li     1.617037    4.851111   10.000000    ( 0.0000,  0.0000,  0.0000)
   4 Li     4.851111    4.851111   10.000000    ( 0.0000,  0.0000,  0.0000)
   5 Li     8.085185    4.851111   10.000000    ( 0.0000,  0.0000,  0.0000)
   6 Li     1.617037    8.085185   10.000000    ( 0.0000,  0.0000,  0.0000)
   7 Li     4.851111    8.085185   10.000000    ( 0.0000,  0.0000,  0.0000)
   8 Li     8.085185    8.085185   10.000000    ( 0.0000,  0.0000,  0.0000)
   9 Li     0.000000    0.000000   11.617037    ( 0.0000,  0.0000,  0.0000)
  10 Li     3.234074    0.000000   11.617037    ( 0.0000,  0.0000,  0.0000)
  11 Li     6.468148    0.000000   11.617037    ( 0.0000,  0.0000,  0.0000)
  12 Li     0.000000    3.234074   11.617037    ( 0.0000,  0.0000,  0.0000)
  13 Li     3.234074    3.234074   11.617037    ( 0.0000,  0.0000,  0.0000)
  14 Li     6.468148    3.234074   11.617037    ( 0.0000,  0.0000,  0.0000)
  15 Li     0.000000    6.468148   11.617037    ( 0.0000,  0.0000,  0.0000)
  16 Li     3.234074    6.468148   11.617037    ( 0.0000,  0.0000,  0.0000)
  17 Li     6.468148    6.468148   11.617037    ( 0.0000,  0.0000,  0.0000)
  18 Li     1.617236    1.616990   13.469617    ( 0.0000,  0.0000,  0.0000)
  19 Li     4.851111    1.617057   13.470433    ( 0.0000,  0.0000,  0.0000)
  20 Li     8.084986    1.616990   13.469617    ( 0.0000,  0.0000,  0.0000)
  21 Li     1.616919    4.850974   13.470279    ( 0.0000,  0.0000,  0.0000)
  22 Li     4.851111    4.851177   13.470307    ( 0.0000,  0.0000,  0.0000)
  23 Li     8.085303    4.850974   13.470279    ( 0.0000,  0.0000,  0.0000)
  24 Li     1.617002    8.085396   13.470532    ( 0.0000,  0.0000,  0.0000)
  25 Li     4.851111    8.085089   13.470076    ( 0.0000,  0.0000,  0.0000)
  26 Li     8.085220    8.085396   13.470532    ( 0.0000,  0.0000,  0.0000)
  27 Li    -0.000000   -0.009721   15.426185    ( 0.0000,  0.0000,  0.0000)
  28 Li     3.234134   -0.000322   15.445437    ( 0.0000,  0.0000,  0.0000)
  29 Li     6.468088   -0.000322   15.445437    ( 0.0000,  0.0000,  0.0000)
  30 Li     0.000000    3.233644   15.448307    ( 0.0000,  0.0000,  0.0000)
  31 Li     3.234558    3.234234   15.445421    ( 0.0000,  0.0000,  0.0000)
  32 Li     6.467664    3.234234   15.445421    ( 0.0000,  0.0000,  0.0000)
  33 Li     0.000000    6.468794   15.446011    ( 0.0000,  0.0000,  0.0000)
  34 Li     3.233960    6.468229   15.445744    ( 0.0000,  0.0000,  0.0000)
  35 Li     6.468262    6.468229   15.445744    ( 0.0000,  0.0000,  0.0000)
  36 O      0.000000    1.631709   17.448052    ( 0.0000,  0.0000,  0.0000)
  37 O      0.000000    2.218556   19.606780    ( 0.0000,  0.0000,  0.0000)
  38 C      0.000000    1.347332   18.789748    ( 0.0000,  0.0000,  0.0000)
  39 H      0.000000    0.272297   19.012811    ( 0.0000,  0.0000,  0.0000)
  40 H     -0.000000    0.779341   16.960599    ( 0.0000,  0.0000,  0.0000)

Unit cell:
           periodic     x           y           z      points  spacing
  1. axis:    yes    9.702222    0.000000    0.000000    60     0.1617
  2. axis:    yes    0.000000    9.702222    0.000000    60     0.1617
  3. axis:    no     0.000000    0.000000   24.851111   156     0.1593

  Lengths:   9.702222   9.702222  24.851111
  Angles:   90.000000  90.000000  90.000000

Effective grid spacing dv^(1/3) = 0.1609

     iter     time        total  log10-change:
                         energy  eigst   dens
iter:   1 05:11:02  -256.826844  -1.33
iter:   2 05:11:29  -256.820027  -1.83  -2.01
iter:   3 05:11:55  -256.816658c -2.52  -2.12
iter:   4 05:12:22  -256.813036c -1.42  -2.32
Writing to output.gpw (mode='')

iter:   5 05:12:49  -256.808173c -1.98  -2.17
iter:   6 05:13:16  -256.808554c -2.68  -2.58
iter:   7 05:13:43  -256.808086c -2.32  -2.56
iter:   8 05:14:09  -256.807209c -2.38  -2.73
iter:   9 05:14:35  -256.807239c -3.06  -2.76
Writing to output.gpw (mode='')

iter:  10 05:15:03  -256.807204c -3.55  -2.77
iter:  11 05:15:30  -256.807102c -3.58  -2.81
iter:  12 05:15:56  -256.807108c -3.65  -3.14
iter:  13 05:16:22  -256.807114c -4.07  -3.28
iter:  14 05:16:49  -256.807099c -4.60  -3.31
Writing to output.gpw (mode='')

iter:  15 05:17:17  -256.807098c -4.54  -3.39
iter:  16 05:17:43  -256.807094c -4.97  -3.54
iter:  17 05:18:10  -256.807085c -4.61  -3.61
iter:  18 05:18:36  -256.807093c -4.89  -3.60
iter:  19 05:19:02  -256.807100c -4.45  -3.82
Writing to output.gpw (mode='')

iter:  20 05:19:30  -256.807091c -5.28  -3.76
iter:  21 05:19:56  -256.807089c -5.12  -4.10c
iter:  22 05:20:23  -256.807091c -6.00  -4.04c
iter:  23 05:20:49  -256.807093c -5.70  -4.23c
iter:  24 05:21:16  -256.807091c -6.22  -4.24c
Writing to output.gpw (mode='')

iter:  25 05:21:43  -256.807090c -6.17  -4.37c
iter:  26 05:22:10  -256.807092c -6.00  -4.52c
iter:  27 05:22:36  -256.807091c -6.59  -4.44c
iter:  28 05:23:03  -256.807090c -6.39  -4.67c
iter:  29 05:23:29  -256.807091c -6.78  -4.77c
Writing to output.gpw (mode='')

iter:  30 05:23:58  -256.807091c -6.72  -4.70c
iter:  31 05:24:24  -256.807091c -6.79  -4.91c
iter:  32 05:24:51  -256.807090c -6.77  -4.96c
iter:  33 05:25:17  -256.807091c -7.35  -5.06c
iter:  34 05:25:44  -256.807091c -7.27  -5.15c
Writing to output.gpw (mode='')

iter:  35 05:26:11  -256.807091c -7.43c -5.32c

Converged after 35 iterations.

Dipole moment: (-15.291138, -5.808251, -0.180736) |e|*Ang

Energy contributions relative to reference atoms: (reference = -12434.674571)

Kinetic:       +117.315893
Potential:     -107.236300
External:        +0.000000
XC:            -267.360010
Entropy (-ST):   -0.150772
Local:           +0.548713
--------------------------
Free energy:   -256.882476
Extrapolated:  -256.807091

Dipole-layer corrected work functions: 3.381830, 3.729266 eV

Showing only first 2 kpts
 Kpt  Band  Eigenvalues  Occupancy
  0    25     -3.59521    1.37703
  0    26     -3.54193    0.86470
  0    27     -3.51532    0.61808
  0    28     -3.50118    0.50423

  1    25     -3.80978    1.98769
  1    26     -3.71962    1.92757
  1    27     -3.39339    0.07515
  1    28     -3.30404    0.01299


Fermi level: -3.55555

No gap

Forces in eV/Ang:
  0 Li    0.00579   -0.00293   -0.27647
  1 Li    0.00000    0.00439   -0.27053
  2 Li   -0.00579   -0.00293   -0.27647
  3 Li    0.00224    0.00256   -0.26965
  4 Li    0.00000   -0.00545   -0.27218
  5 Li   -0.00224    0.00256   -0.26965
  6 Li   -0.00404   -0.00039   -0.27351
  7 Li    0.00000    0.00154   -0.27278
  8 Li    0.00404   -0.00039   -0.27351
  9 Li    0.00000    0.00165    0.26521
 10 Li    0.00442   -0.00258    0.26047
 11 Li   -0.00442   -0.00258    0.26047
 12 Li    0.00000   -0.00955    0.28442
 13 Li    0.01058    0.00433    0.25267
 14 Li   -0.01058    0.00433    0.25267
 15 Li    0.00000    0.00981    0.25749
 16 Li   -0.00693   -0.00115    0.26446
 17 Li    0.00693   -0.00115    0.26446
 18 Li    0.01537   -0.00098   -0.01258
 19 Li    0.00000    0.00109    0.04859
 20 Li   -0.01537   -0.00098   -0.01258
 21 Li   -0.00870   -0.00970    0.03811
 22 Li    0.00000    0.00461    0.03950
 23 Li    0.00870   -0.00970    0.03811
 24 Li    0.00183    0.01013    0.04864
 25 Li    0.00000   -0.00655    0.02370
 26 Li   -0.00183    0.01013    0.04864
 27 Li    0.00000   -0.61986   -1.27602
 28 Li    0.00353   -0.02263   -0.03328
 29 Li   -0.00353   -0.02263   -0.03328
 30 Li    0.00000   -0.03821    0.17585
 31 Li    0.03444    0.01176   -0.03524
 32 Li   -0.03444    0.01176   -0.03524
 33 Li    0.00000    0.04328    0.00537
 34 Li   -0.00802    0.00581   -0.01340
 35 Li    0.00802    0.00581   -0.01340
 36 O     0.00000    0.30269    0.10865
 37 O     0.00000    0.18326    0.27763
 38 C     0.00000    0.10724    0.08466
 39 H     0.00000   -0.08139   -0.03838
 40 H     0.00000    0.14456    0.69983

System changes: positions 

Initializing position-dependent things.

Density initialized from wave functions
       .-----------------------.  
      /|                       |  
     / |                       |  
    /  |                       |  
   /   |                       |  
  /    |                       |  
 *     |                       |  
 |     |                       |  
 |     |                       |  
 |     |                       |  
 |     |                       |  
 |O    |                       |  
 |     Li      Li      Li      |  
 HC    |                       |  
 |O  Li|     Li      Li        |  
 H     |  Li      Li      Li   |  
 | Li  |   Li      Li          |  
 |     |Li      Li      Li     |  
 |     |                       |  
 |   LLi     LLi     LLi       |  
 |     |  Li      Li      Li   |  
 | Li  |   Li      Li          |  
 |     |Li      Li      Li     |  
 Li    | Li      Li            |  
 |    Li      Li      Li       |  
 |     |                       |  
 |     |                       |  
 |     |                       |  
 |     |                       |  
 |     |                       |  
 |     |                       |  
 |     .-----------------------.  
 |    /                       /   
 |   /                       /    
 |  /                       /     
 | /                       /      
 |/                       /       
 *-----------------------*        

Positions:
   0 Li     1.617037    1.617037   10.000000    ( 0.0000,  0.0000,  0.0000)
   1 Li     4.851111    1.617037   10.000000    ( 0.0000,  0.0000,  0.0000)
   2 Li     8.085185    1.617037   10.000000    ( 0.0000,  0.0000,  0.0000)
   3 Li     1.617037    4.851111   10.000000    ( 0.0000,  0.0000,  0.0000)
   4 Li     4.851111    4.851111   10.000000    ( 0.0000,  0.0000,  0.0000)
   5 Li     8.085185    4.851111   10.000000    ( 0.0000,  0.0000,  0.0000)
   6 Li     1.617037    8.085185   10.000000    ( 0.0000,  0.0000,  0.0000)
   7 Li     4.851111    8.085185   10.000000    ( 0.0000,  0.0000,  0.0000)
   8 Li     8.085185    8.085185   10.000000    ( 0.0000,  0.0000,  0.0000)
   9 Li     0.000000    0.000000   11.617037    ( 0.0000,  0.0000,  0.0000)
  10 Li     3.234074    0.000000   11.617037    ( 0.0000,  0.0000,  0.0000)
  11 Li     6.468148    0.000000   11.617037    ( 0.0000,  0.0000,  0.0000)
  12 Li     0.000000    3.234074   11.617037    ( 0.0000,  0.0000,  0.0000)
  13 Li     3.234074    3.234074   11.617037    ( 0.0000,  0.0000,  0.0000)
  14 Li     6.468148    3.234074   11.617037    ( 0.0000,  0.0000,  0.0000)
  15 Li     0.000000    6.468148   11.617037    ( 0.0000,  0.0000,  0.0000)
  16 Li     3.234074    6.468148   11.617037    ( 0.0000,  0.0000,  0.0000)
  17 Li     6.468148    6.468148   11.617037    ( 0.0000,  0.0000,  0.0000)
  18 Li     1.617641    1.616940   13.469320    ( 0.0000,  0.0000,  0.0000)
  19 Li     4.851111    1.617089   13.471769    ( 0.0000,  0.0000,  0.0000)
  20 Li     8.084581    1.616940   13.469320    ( 0.0000,  0.0000,  0.0000)
  21 Li     1.616684    4.850711   13.471325    ( 0.0000,  0.0000,  0.0000)
  22 Li     4.851111    4.851303   13.471396    ( 0.0000,  0.0000,  0.0000)
  23 Li     8.085538    4.850711   13.471325    ( 0.0000,  0.0000,  0.0000)
  24 Li     1.617009    8.085720   13.471938    ( 0.0000,  0.0000,  0.0000)
  25 Li     4.851111    8.084909   13.470729    ( 0.0000,  0.0000,  0.0000)
  26 Li     8.085213    8.085720   13.471938    ( 0.0000,  0.0000,  0.0000)
  27 Li    -0.000000   -0.027269   15.390239    ( 0.0000,  0.0000,  0.0000)
  28 Li     3.234237   -0.000941   15.444510    ( 0.0000,  0.0000,  0.0000)
  29 Li     6.467985   -0.000941   15.444510    ( 0.0000,  0.0000,  0.0000)
  30 Li     0.000000    3.232678   15.453018    ( 0.0000,  0.0000,  0.0000)
  31 Li     3.235492    3.234549   15.444449    ( 0.0000,  0.0000,  0.0000)
  32 Li     6.466730    3.234549   15.444449    ( 0.0000,  0.0000,  0.0000)
  33 Li     0.000000    6.469997   15.446154    ( 0.0000,  0.0000,  0.0000)
  34 Li     3.233739    6.468388   15.445376    ( 0.0000,  0.0000,  0.0000)
  35 Li     6.468483    6.468388   15.445376    ( 0.0000,  0.0000,  0.0000)
  36 O      0.000000    1.647113   17.451409    ( 0.0000,  0.0000,  0.0000)
  37 O     -0.000000    2.222585   19.610999    ( 0.0000,  0.0000,  0.0000)
  38 C      0.000000    1.347378   18.797265    ( 0.0000,  0.0000,  0.0000)
  39 H     -0.000000    0.271394   19.011359    ( 0.0000,  0.0000,  0.0000)
  40 H     -0.000000    0.778656   16.978935    ( 0.0000,  0.0000,  0.0000)

Unit cell:
           periodic     x           y           z      points  spacing
  1. axis:    yes    9.702222    0.000000    0.000000    60     0.1617
  2. axis:    yes    0.000000    9.702222    0.000000    60     0.1617
  3. axis:    no     0.000000    0.000000   24.851111   156     0.1593

  Lengths:   9.702222   9.702222  24.851111
  Angles:   90.000000  90.000000  90.000000

Effective grid spacing dv^(1/3) = 0.1609

     iter     time        total  log10-change:
                         energy  eigst   dens
iter:   1 05:26:45  -256.906102  -1.16
iter:   2 05:27:11  -256.890614  -1.62  -1.85
iter:   3 05:27:38  -256.885158c -2.50  -1.99
iter:   4 05:28:04  -256.878009c -1.49  -2.18
Writing to output.gpw (mode='')

iter:   5 05:28:32  -256.878142c -2.17  -2.28
iter:   6 05:28:58  -256.877874c -2.59  -2.46
iter:   7 05:29:25  -256.876608c -2.02  -2.47
iter:   8 05:29:51  -256.875474c -3.07  -2.53
iter:   9 05:30:17  -256.875300c -3.24  -2.79
Writing to output.gpw (mode='')

iter:  10 05:30:45  -256.875211c -3.12  -2.89
iter:  11 05:31:12  -256.875219c -3.62  -3.06
iter:  12 05:31:38  -256.875180c -3.58  -3.10
iter:  13 05:32:04  -256.875166c -4.41  -3.21
iter:  14 05:32:31  -256.875181c -3.95  -3.40
Writing to output.gpw (mode='')

iter:  15 05:33:01  -256.875175c -4.53  -3.38
iter:  16 05:33:28  -256.875175c -5.13  -3.61
iter:  17 05:33:54  -256.875193c -4.42  -3.73
iter:  18 05:34:20  -256.875174c -4.99  -3.52
iter:  19 05:34:47  -256.875170c -4.64  -3.82
Writing to output.gpw (mode='')

iter:  20 05:35:14  -256.875174c -5.20  -3.90
iter:  21 05:35:41  -256.875169c -5.29  -3.94
iter:  22 05:36:07  -256.875168c -5.40  -4.22c
iter:  23 05:36:33  -256.875169c -5.91  -4.27c
iter:  24 05:37:00  -256.875169c -5.71  -4.33c
Writing to output.gpw (mode='')

iter:  25 05:37:27  -256.875170c -5.99  -4.47c
iter:  26 05:37:54  -256.875171c -6.10  -4.46c
iter:  27 05:38:20  -256.875171c -6.19  -4.43c
iter:  28 05:38:47  -256.875171c -6.39  -4.52c
iter:  29 05:39:13  -256.875172c -6.53  -4.69c
Writing to output.gpw (mode='')

iter:  30 05:39:41  -256.875171c -6.52  -4.79c
iter:  31 05:40:07  -256.875171c -6.87  -4.80c
iter:  32 05:40:34  -256.875171c -6.98  -4.89c
iter:  33 05:41:00  -256.875171c -6.87  -4.96c
iter:  34 05:41:27  -256.875171c -7.30  -5.07c
Writing to output.gpw (mode='')

iter:  35 05:41:55  -256.875171c -7.10  -5.11c
iter:  36 05:42:22  -256.875171c -7.19  -5.24c
iter:  37 05:42:48  -256.875171c -7.42c -5.34c

Converged after 37 iterations.

Dipole moment: (-15.295444, -5.550869, -0.180424) |e|*Ang

Energy contributions relative to reference atoms: (reference = -12434.674571)

Kinetic:       +116.695032
Potential:     -106.846582
External:        +0.000000
XC:            -267.195086
Entropy (-ST):   -0.150629
Local:           +0.546779
--------------------------
Free energy:   -256.950486
Extrapolated:  -256.875171

Dipole-layer corrected work functions: 3.381359, 3.728197 eV

Showing only first 2 kpts
 Kpt  Band  Eigenvalues  Occupancy
  0    25     -3.59490    1.38098
  0    26     -3.54072    0.86039
  0    27     -3.51468    0.61924
  0    28     -3.50022    0.50280

  1    25     -3.80965    1.98785
  1    26     -3.71884    1.92756
  1    27     -3.39222    0.07457
  1    28     -3.30392    0.01316


Fermi level: -3.55478

No gap
Writing to output.gpw (mode='')


Forces in eV/Ang:
  0 Li    0.00581   -0.00318   -0.27744
  1 Li    0.00000    0.00445   -0.27040
  2 Li   -0.00581   -0.00318   -0.27744
  3 Li    0.00206    0.00267   -0.26941
  4 Li    0.00000   -0.00547   -0.27239
  5 Li   -0.00206    0.00267   -0.26941
  6 Li   -0.00433   -0.00030   -0.27451
  7 Li    0.00000    0.00190   -0.27226
  8 Li    0.00433   -0.00030   -0.27451
  9 Li    0.00000    0.00071    0.26864
 10 Li    0.00399   -0.00281    0.26215
 11 Li   -0.00399   -0.00281    0.26215
 12 Li    0.00000   -0.00933    0.28528
 13 Li    0.01121    0.00492    0.25337
 14 Li   -0.01121    0.00492    0.25337
 15 Li    0.00000    0.01138    0.25940
 16 Li   -0.00642   -0.00166    0.26520
 17 Li    0.00642   -0.00166    0.26520
 18 Li    0.01741    0.00307   -0.01777
 19 Li    0.00000    0.00075    0.04642
 20 Li   -0.01741    0.00307   -0.01777
 21 Li   -0.00922   -0.00994    0.03747
 22 Li    0.00000    0.00472    0.03753
 23 Li    0.00922   -0.00994    0.03747
 24 Li    0.01010    0.00132    0.03518
 25 Li    0.00000   -0.00667    0.02237
 26 Li   -0.01010    0.00132    0.03518
 27 Li    0.00000   -0.52338   -1.09313
 28 Li    0.00203   -0.02226   -0.03097
 29 Li   -0.00203   -0.02226   -0.03097
 30 Li    0.00000   -0.04821    0.18345
 31 Li    0.03486    0.01238   -0.03369
 32 Li   -0.03486    0.01238   -0.03369
 33 Li    0.00000    0.03890    0.00584
 34 Li   -0.00810    0.00593   -0.01284
 35 Li    0.00810    0.00593   -0.01284
 36 O     0.00000   -0.26912    0.19121
 37 O     0.00000    0.03101    0.34326
 38 C     0.00000    0.50877   -0.09086
 39 H     0.00000   -0.08233   -0.01991
 40 H     0.00000    0.35822    0.53529

System changes: positions 

Initializing position-dependent things.

Density initialized from wave functions
       .-----------------------.  
      /|                       |  
     / |                       |  
    /  |                       |  
   /   |                       |  
  /    |                       |  
 *     |                       |  
 |     |                       |  
 |     |                       |  
 |     |                       |  
 |     |                       |  
 |O    |                       |  
 |     Li      Li      Li      |  
 HC    |                       |  
 |O  Li|     Li      Li        |  
 H     |  Li      Li      Li   |  
 | Li  |   Li      Li          |  
 |     |Li      Li      Li     |  
 |     |                       |  
 |   LLi     LLi     LLi       |  
 |     |  Li      Li      Li   |  
 | Li  |   Li      Li          |  
 |     |Li      Li      Li     |  
 Li    | Li      Li            |  
 |    Li      Li      Li       |  
 |     |                       |  
 |     |                       |  
 |     |                       |  
 |     |                       |  
 |     |                       |  
 |     |                       |  
 |     .-----------------------.  
 |    /                       /   
 |   /                       /    
 |  /                       /     
 | /                       /      
 |/                       /       
 *-----------------------*        

Positions:
   0 Li     1.617037    1.617037   10.000000    ( 0.0000,  0.0000,  0.0000)
   1 Li     4.851111    1.617037   10.000000    ( 0.0000,  0.0000,  0.0000)
   2 Li     8.085185    1.617037   10.000000    ( 0.0000,  0.0000,  0.0000)
   3 Li     1.617037    4.851111   10.000000    ( 0.0000,  0.0000,  0.0000)
   4 Li     4.851111    4.851111   10.000000    ( 0.0000,  0.0000,  0.0000)
   5 Li     8.085185    4.851111   10.000000    ( 0.0000,  0.0000,  0.0000)
   6 Li     1.617037    8.085185   10.000000    ( 0.0000,  0.0000,  0.0000)
   7 Li     4.851111    8.085185   10.000000    ( 0.0000,  0.0000,  0.0000)
   8 Li     8.085185    8.085185   10.000000    ( 0.0000,  0.0000,  0.0000)
   9 Li     0.000000    0.000000   11.617037    ( 0.0000,  0.0000,  0.0000)
  10 Li     3.234074    0.000000   11.617037    ( 0.0000,  0.0000,  0.0000)
  11 Li     6.468148    0.000000   11.617037    ( 0.0000,  0.0000,  0.0000)
  12 Li     0.000000    3.234074   11.617037    ( 0.0000,  0.0000,  0.0000)
  13 Li     3.234074    3.234074   11.617037    ( 0.0000,  0.0000,  0.0000)
  14 Li     6.468148    3.234074   11.617037    ( 0.0000,  0.0000,  0.0000)
  15 Li     0.000000    6.468148   11.617037    ( 0.0000,  0.0000,  0.0000)
  16 Li     3.234074    6.468148   11.617037    ( 0.0000,  0.0000,  0.0000)
  17 Li     6.468148    6.468148   11.617037    ( 0.0000,  0.0000,  0.0000)
  18 Li     1.618098    1.616938   13.468942    ( 0.0000,  0.0000,  0.0000)
  19 Li     4.851111    1.617119   13.473163    ( 0.0000,  0.0000,  0.0000)
  20 Li     8.084124    1.616938   13.468942    ( 0.0000,  0.0000,  0.0000)
  21 Li     1.616428    4.850426   13.472431    ( 0.0000,  0.0000,  0.0000)
  22 Li     4.851111    4.851439   13.472531    ( 0.0000,  0.0000,  0.0000)
  23 Li     8.085794    4.850426   13.472431    ( 0.0000,  0.0000,  0.0000)
  24 Li     1.617123    8.085952   13.473264    ( 0.0000,  0.0000,  0.0000)
  25 Li     4.851111    8.084716   13.471408    ( 0.0000,  0.0000,  0.0000)
  26 Li     8.085099    8.085952   13.473264    ( 0.0000,  0.0000,  0.0000)
  27 Li    -0.000000   -0.044750   15.354261    ( 0.0000,  0.0000,  0.0000)
  28 Li     3.234328   -0.001594   15.443549    ( 0.0000,  0.0000,  0.0000)
  29 Li     6.467894   -0.001594   15.443549    ( 0.0000,  0.0000,  0.0000)
  30 Li     0.000000    3.231527   15.458122    ( 0.0000,  0.0000,  0.0000)
  31 Li     3.236492    3.234891   15.443432    ( 0.0000,  0.0000,  0.0000)
  32 Li     6.465730    3.234891   15.443432    ( 0.0000,  0.0000,  0.0000)
  33 Li     0.000000    6.471222   15.446312    ( 0.0000,  0.0000,  0.0000)
  34 Li     3.233503    6.468559   15.444991    ( 0.0000,  0.0000,  0.0000)
  35 Li     6.468719    6.468559   15.444991    ( 0.0000,  0.0000,  0.0000)
  36 O      0.000000    1.657053   17.456213    ( 0.0000,  0.0000,  0.0000)
  37 O     -0.000000    2.224561   19.615710    ( 0.0000,  0.0000,  0.0000)
  38 C      0.000000    1.352409   18.803909    ( 0.0000,  0.0000,  0.0000)
  39 H     -0.000000    0.270691   19.009985    ( 0.0000,  0.0000,  0.0000)
  40 H     -0.000000    0.779939   16.996021    ( 0.0000,  0.0000,  0.0000)

Unit cell:
           periodic     x           y           z      points  spacing
  1. axis:    yes    9.702222    0.000000    0.000000    60     0.1617
  2. axis:    yes    0.000000    9.702222    0.000000    60     0.1617
  3. axis:    no     0.000000    0.000000   24.851111   156     0.1593

  Lengths:   9.702222   9.702222  24.851111
  Angles:   90.000000  90.000000  90.000000

Effective grid spacing dv^(1/3) = 0.1609

     iter     time        total  log10-change:
                         energy  eigst   dens
iter:   1 05:43:23  -256.941619  -1.37
iter:   2 05:43:49  -256.936973  -2.00  -2.07
iter:   3 05:44:15  -256.934947c -2.71  -2.18
iter:   4 05:44:42  -256.930786c -1.90  -2.31
Writing to output.gpw (mode='')

iter:   5 05:45:09  -256.930954c -3.08  -2.53
iter:   6 05:45:36  -256.930324c -3.08  -2.66
iter:   7 05:46:02  -256.930623c -2.23  -2.78
iter:   8 05:46:28  -256.930146c -3.42  -2.67
iter:   9 05:46:55  -256.930142c -3.40  -2.87
Writing to output.gpw (mode='')

iter:  10 05:47:24  -256.929969c -3.31  -2.94
iter:  11 05:47:51  -256.929980c -3.83  -3.16
iter:  12 05:48:17  -256.929958c -3.57  -3.13
iter:  13 05:48:43  -256.929958c -4.31  -3.21
iter:  14 05:49:10  -256.929979c -4.09  -3.23
Writing to output.gpw (mode='')

iter:  15 05:49:37  -256.929954c -4.97  -3.16
iter:  16 05:50:04  -256.929951c -4.65  -3.29
iter:  17 05:50:30  -256.929952c -4.33  -3.31
iter:  18 05:50:56  -256.929949c -4.99  -3.34
iter:  19 05:51:23  -256.929941c -4.62  -3.43
Writing to output.gpw (mode='')

iter:  20 05:51:51  -256.929945c -4.67  -3.58
iter:  21 05:52:17  -256.929945c -5.24  -3.86
iter:  22 05:52:43  -256.929939c -5.41  -3.87
iter:  23 05:53:10  -256.929940c -5.57  -4.22c
iter:  24 05:53:36  -256.929941c -5.64  -4.26c
Writing to output.gpw (mode='')

iter:  25 05:54:04  -256.929939c -5.98  -4.21c
iter:  26 05:54:30  -256.929940c -6.17  -4.46c
iter:  27 05:54:57  -256.929940c -6.42  -4.56c
iter:  28 05:55:23  -256.929940c -6.38  -4.59c
iter:  29 05:55:49  -256.929940c -6.73  -4.59c
Writing to output.gpw (mode='')

iter:  30 05:56:17  -256.929940c -6.79  -4.64c
iter:  31 05:56:43  -256.929940c -6.85  -4.70c
iter:  32 05:57:10  -256.929940c -7.11  -4.87c
iter:  33 05:57:37  -256.929940c -7.07  -4.93c
iter:  34 05:58:03  -256.929941c -7.30  -5.09c
Writing to output.gpw (mode='')

iter:  35 05:58:33  -256.929941c -7.24  -5.33c
iter:  36 05:59:00  -256.929941c -7.39  -5.41c
iter:  37 05:59:27  -256.929941c -7.41c -5.45c

Converged after 37 iterations.

Dipole moment: (-15.295992, -5.288596, -0.179303) |e|*Ang

Energy contributions relative to reference atoms: (reference = -12434.674571)

Kinetic:       +116.746723
Potential:     -106.951293
External:        +0.000000
XC:            -267.196510
Entropy (-ST):   -0.150507
Local:           +0.546393
--------------------------
Free energy:   -257.005194
Extrapolated:  -256.929941

Dipole-layer corrected work functions: 3.381234, 3.725917 eV

Showing only first 2 kpts
 Kpt  Band  Eigenvalues  Occupancy
  0    25     -3.59356    1.37986
  0    26     -3.53924    0.85765
  0    27     -3.51361    0.62035
  0    28     -3.49905    0.50302

  1    25     -3.80906    1.98800
  1    26     -3.71778    1.92775
  1    27     -3.39030    0.07355
  1    28     -3.30336    0.01333


Fermi level: -3.55358

No gap
Writing to output.gpw (mode='')


Forces in eV/Ang:
  0 Li    0.00580   -0.00345   -0.27827
  1 Li    0.00000    0.00442   -0.27036
  2 Li   -0.00580   -0.00345   -0.27827
  3 Li    0.00183    0.00279   -0.26920
  4 Li    0.00000   -0.00540   -0.27268
  5 Li   -0.00183    0.00279   -0.26920
  6 Li   -0.00458   -0.00020   -0.27544
  7 Li    0.00000    0.00233   -0.27185
  8 Li    0.00458   -0.00020   -0.27544
  9 Li    0.00000   -0.00030    0.27164
 10 Li    0.00361   -0.00304    0.26365
 11 Li   -0.00361   -0.00304    0.26365
 12 Li    0.00000   -0.00901    0.28576
 13 Li    0.01177    0.00550    0.25408
 14 Li   -0.01177    0.00550    0.25408
 15 Li    0.00000    0.01301    0.26129
 16 Li   -0.00595   -0.00222    0.26588
 17 Li    0.00595   -0.00222    0.26588
 18 Li    0.01905    0.00699   -0.02149
 19 Li    0.00000    0.00039    0.04388
 20 Li   -0.01905    0.00699   -0.02149
 21 Li   -0.00977   -0.01014    0.03693
 22 Li    0.00000    0.00483    0.03536
 23 Li    0.00977   -0.01014    0.03693
 24 Li    0.01901   -0.00800    0.02140
 25 Li    0.00000   -0.00685    0.02093
 26 Li   -0.01901   -0.00800    0.02140
 27 Li    0.00000   -0.44369   -0.93555
 28 Li    0.00049   -0.02168   -0.02918
 29 Li   -0.00049   -0.02168   -0.02918
 30 Li    0.00000   -0.05735    0.18796
 31 Li    0.03501    0.01281   -0.03234
 32 Li   -0.03501    0.01281   -0.03234
 33 Li    0.00000    0.03388    0.00594
 34 Li   -0.00825    0.00603   -0.01227
 35 Li    0.00825    0.00603   -0.01227
 36 O     0.00000   -0.52884    0.22105
 37 O     0.00000    0.19198    0.57550
 38 C     0.00000    0.33770   -0.33007
 39 H     0.00000    0.03862   -0.01561
 40 H     0.00000    0.42039    0.35861

System changes: positions 

Initializing position-dependent things.

Density initialized from wave functions
       .-----------------------.  
      /|                       |  
     / |                       |  
    /  |                       |  
   /   |                       |  
  /    |                       |  
 *     |                       |  
 |     |                       |  
 |     |                       |  
 |     |                       |  
 |     |                       |  
 |O    |                       |  
 |     Li      Li      Li      |  
 HC    |                       |  
 |O  Li|     Li      Li        |  
 H     |  Li      Li      Li   |  
 | Li  |   Li      Li          |  
 |     |Li      Li      Li     |  
 |     |                       |  
 |   LLi     LLi     LLi       |  
 |     |  Li      Li      Li   |  
 | Li  |   Li      Li          |  
 |     |Li      Li      Li     |  
 Li    | Li      Li            |  
 |    Li      Li      Li       |  
 |     |                       |  
 |     |                       |  
 |     |                       |  
 |     |                       |  
 |     |                       |  
 |     |                       |  
 |     .-----------------------.  
 |    /                       /   
 |   /                       /    
 |  /                       /     
 | /                       /      
 |/                       /       
 *-----------------------*        

Positions:
   0 Li     1.617037    1.617037   10.000000    ( 0.0000,  0.0000,  0.0000)
   1 Li     4.851111    1.617037   10.000000    ( 0.0000,  0.0000,  0.0000)
   2 Li     8.085185    1.617037   10.000000    ( 0.0000,  0.0000,  0.0000)
   3 Li     1.617037    4.851111   10.000000    ( 0.0000,  0.0000,  0.0000)
   4 Li     4.851111    4.851111   10.000000    ( 0.0000,  0.0000,  0.0000)
   5 Li     8.085185    4.851111   10.000000    ( 0.0000,  0.0000,  0.0000)
   6 Li     1.617037    8.085185   10.000000    ( 0.0000,  0.0000,  0.0000)
   7 Li     4.851111    8.085185   10.000000    ( 0.0000,  0.0000,  0.0000)
   8 Li     8.085185    8.085185   10.000000    ( 0.0000,  0.0000,  0.0000)
   9 Li     0.000000    0.000000   11.617037    ( 0.0000,  0.0000,  0.0000)
  10 Li     3.234074    0.000000   11.617037    ( 0.0000,  0.0000,  0.0000)
  11 Li     6.468148    0.000000   11.617037    ( 0.0000,  0.0000,  0.0000)
  12 Li     0.000000    3.234074   11.617037    ( 0.0000,  0.0000,  0.0000)
  13 Li     3.234074    3.234074   11.617037    ( 0.0000,  0.0000,  0.0000)
  14 Li     6.468148    3.234074   11.617037    ( 0.0000,  0.0000,  0.0000)
  15 Li     0.000000    6.468148   11.617037    ( 0.0000,  0.0000,  0.0000)
  16 Li     3.234074    6.468148   11.617037    ( 0.0000,  0.0000,  0.0000)
  17 Li     6.468148    6.468148   11.617037    ( 0.0000,  0.0000,  0.0000)
  18 Li     1.618607    1.616992   13.468487    ( 0.0000,  0.0000,  0.0000)
  19 Li     4.851111    1.617146   13.474608    ( 0.0000,  0.0000,  0.0000)
  20 Li     8.083615    1.616992   13.468487    ( 0.0000,  0.0000,  0.0000)
  21 Li     1.616147    4.850121   13.473600    ( 0.0000,  0.0000,  0.0000)
  22 Li     4.851111    4.851585   13.473707    ( 0.0000,  0.0000,  0.0000)
  23 Li     8.086075    4.850121   13.473600    ( 0.0000,  0.0000,  0.0000)
  24 Li     1.617371    8.086065   13.474478    ( 0.0000,  0.0000,  0.0000)
  25 Li     4.851111    8.084508   13.472109    ( 0.0000,  0.0000,  0.0000)
  26 Li     8.084851    8.086065   13.474478    ( 0.0000,  0.0000,  0.0000)
  27 Li    -0.000000   -0.062195   15.318266    ( 0.0000,  0.0000,  0.0000)
  28 Li     3.234402   -0.002281   15.442553    ( 0.0000,  0.0000,  0.0000)
  29 Li     6.467820   -0.002281   15.442553    ( 0.0000,  0.0000,  0.0000)
  30 Li     0.000000    3.230174   15.463611    ( 0.0000,  0.0000,  0.0000)
  31 Li     3.237558    3.235261   15.442370    ( 0.0000,  0.0000,  0.0000)
  32 Li     6.464664    3.235261   15.442370    ( 0.0000,  0.0000,  0.0000)
  33 Li     0.000000    6.472452   15.446483    ( 0.0000,  0.0000,  0.0000)
  34 Li     3.233249    6.468743   15.444590    ( 0.0000,  0.0000,  0.0000)
  35 Li     6.468973    6.468743   15.444590    ( 0.0000,  0.0000,  0.0000)
  36 O      0.000000    1.664110   17.461857    ( 0.0000,  0.0000,  0.0000)
  37 O     -0.000000    2.228630   19.623676    ( 0.0000,  0.0000,  0.0000)
  38 C      0.000000    1.355551   18.807980    ( 0.0000,  0.0000,  0.0000)
  39 H      0.000000    0.271736   19.008565    ( 0.0000,  0.0000,  0.0000)
  40 H     -0.000000    0.781949   17.011505    ( 0.0000,  0.0000,  0.0000)

Unit cell:
           periodic     x           y           z      points  spacing
  1. axis:    yes    9.702222    0.000000    0.000000    60     0.1617
  2. axis:    yes    0.000000    9.702222    0.000000    60     0.1617
  3. axis:    no     0.000000    0.000000   24.851111   156     0.1593

  Lengths:   9.702222   9.702222  24.851111
  Angles:   90.000000  90.000000  90.000000

Effective grid spacing dv^(1/3) = 0.1609

     iter     time        total  log10-change:
                         energy  eigst   dens
iter:   1 06:00:01  -256.994083  -1.32
iter:   2 06:00:28  -256.985999  -1.89  -1.98
iter:   3 06:00:54  -256.983290c -2.68  -2.13
iter:   4 06:01:21  -256.977902c -1.91  -2.27
Writing to output.gpw (mode='')

iter:   5 06:01:49  -256.978369c -3.21  -2.57
iter:   6 06:02:15  -256.977432c -2.83  -2.62
iter:   7 06:02:42  -256.977674c -2.13  -2.77
iter:   8 06:03:08  -256.977192c -3.41  -2.68
iter:   9 06:03:35  -256.977118c -3.12  -2.98
Writing to output.gpw (mode='')

iter:  10 06:04:02  -256.977205c -3.29  -3.13
iter:  11 06:04:29  -256.977124c -3.93  -3.08
iter:  12 06:04:55  -256.977111c -3.84  -3.19
iter:  13 06:05:22  -256.977097c -4.26  -3.19
iter:  14 06:05:48  -256.977094c -4.33  -3.50
Writing to output.gpw (mode='')

iter:  15 06:06:19  -256.977095c -4.93  -3.57
iter:  16 06:06:46  -256.977094c -5.03  -3.67
iter:  17 06:07:12  -256.977100c -5.06  -3.69
iter:  18 06:07:39  -256.977099c -5.30  -3.79
iter:  19 06:08:05  -256.977097c -5.54  -3.80
Writing to output.gpw (mode='')

iter:  20 06:08:37  -256.977092c -5.35  -3.88
iter:  21 06:09:03  -256.977093c -5.72  -4.05c
iter:  22 06:09:29  -256.977092c -5.91  -4.11c
iter:  23 06:09:56  -256.977092c -5.94  -4.24c
iter:  24 06:10:22  -256.977091c -6.06  -4.35c
Writing to output.gpw (mode='')

iter:  25 06:10:50  -256.977092c -6.22  -4.48c
iter:  26 06:11:16  -256.977092c -6.31  -4.59c
iter:  27 06:11:42  -256.977092c -6.60  -4.67c
iter:  28 06:12:09  -256.977092c -6.72  -4.92c
iter:  29 06:12:35  -256.977092c -6.74  -5.04c
Writing to output.gpw (mode='')

iter:  30 06:13:02  -256.977092c -7.06  -5.09c
iter:  31 06:13:29  -256.977092c -7.14  -5.09c
iter:  32 06:13:55  -256.977092c -6.99  -5.22c
iter:  33 06:14:21  -256.977092c -7.13  -5.38c
iter:  34 06:14:47  -256.977092c -7.29  -5.42c
Writing to output.gpw (mode='')

iter:  35 06:15:15  -256.977092c -7.52c -5.58c

Converged after 35 iterations.

Dipole moment: (-15.297458, -5.012026, -0.186875) |e|*Ang

Energy contributions relative to reference atoms: (reference = -12434.674571)

Kinetic:       +116.362314
Potential:     -106.681421
External:        +0.000000
XC:            -267.129614
Entropy (-ST):   -0.150387
Local:           +0.546823
--------------------------
Free energy:   -257.052286
Extrapolated:  -256.977092

Dipole-layer corrected work functions: 3.381306, 3.740544 eV

Showing only first 2 kpts
 Kpt  Band  Eigenvalues  Occupancy
  0    25     -3.60065    1.37760
  0    26     -3.54619    0.85370
  0    27     -3.52116    0.62205
  0    28     -3.50651    0.50388

  1    25     -3.81702    1.98814
  1    26     -3.72526    1.92794
  1    27     -3.39685    0.07242
  1    28     -3.31136    0.01350


Fermi level: -3.56093

No gap

Forces in eV/Ang:
  0 Li    0.00572   -0.00373   -0.27904
  1 Li    0.00000    0.00440   -0.27034
  2 Li   -0.00572   -0.00373   -0.27904
  3 Li    0.00161    0.00288   -0.26895
  4 Li    0.00000   -0.00528   -0.27301
  5 Li   -0.00161    0.00288   -0.26895
  6 Li   -0.00481   -0.00005   -0.27639
  7 Li    0.00000    0.00276   -0.27146
  8 Li    0.00481   -0.00005   -0.27639
  9 Li    0.00000   -0.00134    0.27423
 10 Li    0.00322   -0.00325    0.26510
 11 Li   -0.00322   -0.00325    0.26510
 12 Li    0.00000   -0.00864    0.28595
 13 Li    0.01233    0.00613    0.25478
 14 Li   -0.01233    0.00613    0.25478
 15 Li    0.00000    0.01470    0.26335
 16 Li   -0.00541   -0.00291    0.26648
 17 Li    0.00541   -0.00291    0.26648
 18 Li    0.02039    0.01092   -0.02399
 19 Li    0.00000    0.00003    0.04096
 20 Li   -0.02039    0.01092   -0.02399
 21 Li   -0.01031   -0.01031    0.03640
 22 Li    0.00000    0.00495    0.03303
 23 Li    0.01031   -0.01031    0.03640
 24 Li    0.02867   -0.01799    0.00707
 25 Li    0.00000   -0.00705    0.01949
 26 Li   -0.02867   -0.01799    0.00707
 27 Li    0.00000   -0.37675   -0.79945
 28 Li   -0.00147   -0.02088   -0.02742
 29 Li    0.00147   -0.02088   -0.02742
 30 Li    0.00000   -0.06436    0.18921
 31 Li    0.03478    0.01306   -0.03075
 32 Li   -0.03478    0.01306   -0.03075
 33 Li    0.00000    0.02860    0.00622
 34 Li   -0.00833    0.00610   -0.01159
 35 Li    0.00833    0.00610   -0.01159
 36 O     0.00000   -0.63510    0.25576
 37 O     0.00000   -0.02879    0.40183
 38 C     0.00000    0.57977   -0.15610
 39 H     0.00000    0.07989    0.00641
 40 H     0.00000    0.41830    0.19024

System changes: positions 

Initializing position-dependent things.

Density initialized from wave functions
       .-----------------------.  
      /|                       |  
     / |                       |  
    /  |                       |  
   /   |                       |  
  /    |                       |  
 *     |                       |  
 |     |                       |  
 |     |                       |  
 |     |                       |  
 |     |                       |  
 |O    |                       |  
 |     Li      Li      Li      |  
 HC    |                       |  
 |O  Li|     Li      Li        |  
 H     |  Li      Li      Li   |  
 | Li  |   Li      Li          |  
 |     |Li      Li      Li     |  
 |     |                       |  
 |   LLi     LLi     LLi       |  
 |     |  Li      Li      Li   |  
 | Li  |   Li      Li          |  
 |     |Li      Li      Li     |  
 Li    | Li      Li            |  
 |    Li      Li      Li       |  
 |     |                       |  
 |     |                       |  
 |     |                       |  
 |     |                       |  
 |     |                       |  
 |     |                       |  
 |     .-----------------------.  
 |    /                       /   
 |   /                       /    
 |  /                       /     
 | /                       /      
 |/                       /       
 *-----------------------*        

Positions:
   0 Li     1.617037    1.617037   10.000000    ( 0.0000,  0.0000,  0.0000)
   1 Li     4.851111    1.617037   10.000000    ( 0.0000,  0.0000,  0.0000)
   2 Li     8.085185    1.617037   10.000000    ( 0.0000,  0.0000,  0.0000)
   3 Li     1.617037    4.851111   10.000000    ( 0.0000,  0.0000,  0.0000)
   4 Li     4.851111    4.851111   10.000000    ( 0.0000,  0.0000,  0.0000)
   5 Li     8.085185    4.851111   10.000000    ( 0.0000,  0.0000,  0.0000)
   6 Li     1.617037    8.085185   10.000000    ( 0.0000,  0.0000,  0.0000)
   7 Li     4.851111    8.085185   10.000000    ( 0.0000,  0.0000,  0.0000)
   8 Li     8.085185    8.085185   10.000000    ( 0.0000,  0.0000,  0.0000)
   9 Li     0.000000    0.000000   11.617037    ( 0.0000,  0.0000,  0.0000)
  10 Li     3.234074    0.000000   11.617037    ( 0.0000,  0.0000,  0.0000)
  11 Li     6.468148    0.000000   11.617037    ( 0.0000,  0.0000,  0.0000)
  12 Li     0.000000    3.234074   11.617037    ( 0.0000,  0.0000,  0.0000)
  13 Li     3.234074    3.234074   11.617037    ( 0.0000,  0.0000,  0.0000)
  14 Li     6.468148    3.234074   11.617037    ( 0.0000,  0.0000,  0.0000)
  15 Li     0.000000    6.468148   11.617037    ( 0.0000,  0.0000,  0.0000)
  16 Li     3.234074    6.468148   11.617037    ( 0.0000,  0.0000,  0.0000)
  17 Li     6.468148    6.468148   11.617037    ( 0.0000,  0.0000,  0.0000)
  18 Li     1.619172    1.617114   13.467958    ( 0.0000,  0.0000,  0.0000)
  19 Li     4.851111    1.617168   13.476100    ( 0.0000,  0.0000,  0.0000)
  20 Li     8.083050    1.617114   13.467958    ( 0.0000,  0.0000,  0.0000)
  21 Li     1.615839    4.849794   13.474835    ( 0.0000,  0.0000,  0.0000)
  22 Li     4.851111    4.851742   13.474920    ( 0.0000,  0.0000,  0.0000)
  23 Li     8.086383    4.849794   13.474835    ( 0.0000,  0.0000,  0.0000)
  24 Li     1.617790    8.086025   13.475537    ( 0.0000,  0.0000,  0.0000)
  25 Li     4.851111    8.084283   13.472831    ( 0.0000,  0.0000,  0.0000)
  26 Li     8.084432    8.086025   13.475537    ( 0.0000,  0.0000,  0.0000)
  27 Li    -0.000000   -0.079619   15.282260    ( 0.0000,  0.0000,  0.0000)
  28 Li     3.234450   -0.002999   15.441523    ( 0.0000,  0.0000,  0.0000)
  29 Li     6.467772   -0.002999   15.441523    ( 0.0000,  0.0000,  0.0000)
  30 Li     0.000000    3.228613   15.469482    ( 0.0000,  0.0000,  0.0000)
  31 Li     3.238689    3.235660   15.441266    ( 0.0000,  0.0000,  0.0000)
  32 Li     6.463533    3.235660   15.441266    ( 0.0000,  0.0000,  0.0000)
  33 Li     0.000000    6.473676   15.446668    ( 0.0000,  0.0000,  0.0000)
  34 Li     3.232977    6.468939   15.444175    ( 0.0000,  0.0000,  0.0000)
  35 Li     6.469245    6.468939   15.444175    ( 0.0000,  0.0000,  0.0000)
  36 O      0.000000    1.669081   17.468352    ( 0.0000,  0.0000,  0.0000)
  37 O     -0.000000    2.230450   19.630602    ( 0.0000,  0.0000,  0.0000)
  38 C      0.000000    1.361936   18.813712    ( 0.0000,  0.0000,  0.0000)
  39 H      0.000000    0.273584   19.007394    ( 0.0000,  0.0000,  0.0000)
  40 H     -0.000000    0.784547   17.025366    ( 0.0000,  0.0000,  0.0000)

Unit cell:
           periodic     x           y           z      points  spacing
  1. axis:    yes    9.702222    0.000000    0.000000    60     0.1617
  2. axis:    yes    0.000000    9.702222    0.000000    60     0.1617
  3. axis:    no     0.000000    0.000000   24.851111   156     0.1593

  Lengths:   9.702222   9.702222  24.851111
  Angles:   90.000000  90.000000  90.000000

Effective grid spacing dv^(1/3) = 0.1609

     iter     time        total  log10-change:
                         energy  eigst   dens
iter:   1 06:15:48  -257.024498  -1.46
iter:   2 06:16:14  -257.022339  -2.22  -2.20
iter:   3 06:16:40  -257.021090c -2.82  -2.28
iter:   4 06:17:07  -257.018477c -2.27  -2.38
Writing to output.gpw (mode='')

iter:   5 06:17:34  -257.018490c -3.51  -2.65
iter:   6 06:18:01  -257.018132c -2.88  -2.76
iter:   7 06:18:27  -257.018379c -2.44  -2.87
iter:   8 06:18:53  -257.018083c -3.59  -2.82
iter:   9 06:19:20  -257.018128c -3.53  -3.25
Writing to output.gpw (mode='')

iter:  10 06:19:47  -257.018097c -4.09  -3.19
iter:  11 06:20:13  -257.018071c -4.11  -3.32
iter:  12 06:20:40  -257.018073c -4.28  -3.43
iter:  13 06:21:06  -257.018076c -4.67  -3.54
iter:  14 06:21:32  -257.018071c -4.85  -3.64
Writing to output.gpw (mode='')

iter:  15 06:22:00  -257.018073c -5.10  -3.90
iter:  16 06:22:27  -257.018072c -5.17  -3.94
iter:  17 06:22:53  -257.018072c -5.28  -4.10c
iter:  18 06:23:19  -257.018071c -5.72  -4.22c
iter:  19 06:23:46  -257.018071c -5.93  -4.24c
Writing to output.gpw (mode='')

iter:  20 06:24:13  -257.018070c -5.78  -4.28c
iter:  21 06:24:39  -257.018071c -5.91  -4.56c
iter:  22 06:25:06  -257.018071c -6.26  -4.65c
iter:  23 06:25:32  -257.018071c -5.98  -4.70c
iter:  24 06:25:58  -257.018071c -6.24  -4.77c
Writing to output.gpw (mode='')

iter:  25 06:26:26  -257.018072c -6.37  -4.92c
iter:  26 06:26:52  -257.018072c -6.57  -5.00c
iter:  27 06:27:18  -257.018072c -6.56  -5.12c
iter:  28 06:27:44  -257.018072c -6.48  -5.23c
iter:  29 06:28:11  -257.018072c -6.82  -5.27c
Writing to output.gpw (mode='')

iter:  30 06:28:38  -257.018072c -6.96  -5.36c
iter:  31 06:29:04  -257.018072c -7.22  -5.54c
iter:  32 06:29:31  -257.018072c -7.21  -5.56c
iter:  33 06:29:57  -257.018072c -7.21  -5.59c
iter:  34 06:30:23  -257.018072c -7.30  -5.75c
Writing to output.gpw (mode='')

iter:  35 06:30:52  -257.018072c -7.18  -5.83c
iter:  36 06:31:19  -257.018072c -6.95  -5.96c
iter:  37 06:31:45  -257.018072c -7.34  -5.97c
iter:  38 06:32:11  -257.018072c -7.51c -6.05c

Converged after 38 iterations.

Dipole moment: (-15.296005, -4.733936, -0.189083) |e|*Ang

Energy contributions relative to reference atoms: (reference = -12434.674571)

Kinetic:       +116.628076
Potential:     -106.914932
External:        +0.000000
XC:            -267.202683
Entropy (-ST):   -0.150284
Local:           +0.546609
--------------------------
Free energy:   -257.093214
Extrapolated:  -257.018072

Dipole-layer corrected work functions: 3.381464, 3.744947 eV

Showing only first 2 kpts
 Kpt  Band  Eigenvalues  Occupancy
  0    25     -3.60243    1.37325
  0    26     -3.54827    0.85176
  0    27     -3.52358    0.62324
  0    28     -3.50890    0.50473

  1    25     -3.81994    1.98829
  1    26     -3.72771    1.92818
  1    27     -3.39825    0.07120
  1    28     -3.31433    0.01369


Fermi level: -3.56321

No gap
Writing to output.gpw (mode='')


Forces in eV/Ang:
  0 Li    0.00566   -0.00400   -0.27978
  1 Li    0.00000    0.00435   -0.27036
  2 Li   -0.00566   -0.00400   -0.27978
  3 Li    0.00135    0.00299   -0.26873
  4 Li    0.00000   -0.00514   -0.27339
  5 Li   -0.00135    0.00299   -0.26873
  6 Li   -0.00503    0.00006   -0.27733
  7 Li    0.00000    0.00324   -0.27108
  8 Li    0.00503    0.00006   -0.27733
  9 Li    0.00000   -0.00243    0.27663
 10 Li    0.00286   -0.00344    0.26649
 11 Li   -0.00286   -0.00344    0.26649
 12 Li    0.00000   -0.00818    0.28597
 13 Li    0.01290    0.00680    0.25551
 14 Li   -0.01290    0.00680    0.25551
 15 Li    0.00000    0.01641    0.26538
 16 Li   -0.00482   -0.00370    0.26703
 17 Li    0.00482   -0.00370    0.26703
 18 Li    0.02151    0.01475   -0.02596
 19 Li    0.00000   -0.00034    0.03792
 20 Li   -0.02151    0.01475   -0.02596
 21 Li   -0.01087   -0.01050    0.03593
 22 Li    0.00000    0.00509    0.03056
 23 Li    0.01087   -0.01050    0.03593
 24 Li    0.03901   -0.02848   -0.00767
 25 Li    0.00000   -0.00728    0.01797
 26 Li   -0.03901   -0.02848   -0.00767
 27 Li    0.00000   -0.31621   -0.67760
 28 Li   -0.00333   -0.02003   -0.02592
 29 Li    0.00333   -0.02003   -0.02592
 30 Li    0.00000   -0.07175    0.19040
 31 Li    0.03451    0.01328   -0.02929
 32 Li   -0.03451    0.01328   -0.02929
 33 Li    0.00000    0.02296    0.00625
 34 Li   -0.00840    0.00612   -0.01090
 35 Li    0.00840    0.00612   -0.01090
 36 O     0.00000   -0.60761    0.26087
 37 O     0.00000    0.12379    0.53193
 38 C     0.00000    0.32140   -0.25334
 39 H     0.00000    0.16634    0.02987
 40 H     0.00000    0.37577    0.05263

System changes: positions 

Initializing position-dependent things.

Density initialized from wave functions
       .-----------------------.  
      /|                       |  
     / |                       |  
    /  |                       |  
   /   |                       |  
  /    |                       |  
 *     |                       |  
 |     |                       |  
 |     |                       |  
 |     |                       |  
 |     |                       |  
 |O    |                       |  
 |     Li      Li      Li      |  
 HC    |                       |  
 |O  Li|     Li      Li        |  
 H     |  Li      Li      Li   |  
 | Li  |   Li      Li          |  
 |     |Li      Li      Li     |  
 |     |                       |  
 |   LLi     LLi     LLi       |  
 |     |  Li      Li      Li   |  
 | Li  |   Li      Li          |  
 |     |Li      Li      Li     |  
 Li    | Li      Li            |  
 |    Li      Li      Li       |  
 |     |                       |  
 |     |                       |  
 |     |                       |  
 |     |                       |  
 |     |                       |  
 |     |                       |  
 |     .-----------------------.  
 |    /                       /   
 |   /                       /    
 |  /                       /     
 | /                       /      
 |/                       /       
 *-----------------------*        

Positions:
   0 Li     1.617037    1.617037   10.000000    ( 0.0000,  0.0000,  0.0000)
   1 Li     4.851111    1.617037   10.000000    ( 0.0000,  0.0000,  0.0000)
   2 Li     8.085185    1.617037   10.000000    ( 0.0000,  0.0000,  0.0000)
   3 Li     1.617037    4.851111   10.000000    ( 0.0000,  0.0000,  0.0000)
   4 Li     4.851111    4.851111   10.000000    ( 0.0000,  0.0000,  0.0000)
   5 Li     8.085185    4.851111   10.000000    ( 0.0000,  0.0000,  0.0000)
   6 Li     1.617037    8.085185   10.000000    ( 0.0000,  0.0000,  0.0000)
   7 Li     4.851111    8.085185   10.000000    ( 0.0000,  0.0000,  0.0000)
   8 Li     8.085185    8.085185   10.000000    ( 0.0000,  0.0000,  0.0000)
   9 Li     0.000000    0.000000   11.617037    ( 0.0000,  0.0000,  0.0000)
  10 Li     3.234074    0.000000   11.617037    ( 0.0000,  0.0000,  0.0000)
  11 Li     6.468148    0.000000   11.617037    ( 0.0000,  0.0000,  0.0000)
  12 Li     0.000000    3.234074   11.617037    ( 0.0000,  0.0000,  0.0000)
  13 Li     3.234074    3.234074   11.617037    ( 0.0000,  0.0000,  0.0000)
  14 Li     6.468148    3.234074   11.617037    ( 0.0000,  0.0000,  0.0000)
  15 Li     0.000000    6.468148   11.617037    ( 0.0000,  0.0000,  0.0000)
  16 Li     3.234074    6.468148   11.617037    ( 0.0000,  0.0000,  0.0000)
  17 Li     6.468148    6.468148   11.617037    ( 0.0000,  0.0000,  0.0000)
  18 Li     1.619799    1.617316   13.467348    ( 0.0000,  0.0000,  0.0000)
  19 Li     4.851111    1.617185   13.477638    ( 0.0000,  0.0000,  0.0000)
  20 Li     8.082423    1.617316   13.467348    ( 0.0000,  0.0000,  0.0000)
  21 Li     1.615501    4.849441   13.476143    ( 0.0000,  0.0000,  0.0000)
  22 Li     4.851111    4.851913   13.476171    ( 0.0000,  0.0000,  0.0000)
  23 Li     8.086721    4.849441   13.476143    ( 0.0000,  0.0000,  0.0000)
  24 Li     1.618425    8.085790   13.476395    ( 0.0000,  0.0000,  0.0000)
  25 Li     4.851111    8.084039   13.473575    ( 0.0000,  0.0000,  0.0000)
  26 Li     8.083797    8.085790   13.476395    ( 0.0000,  0.0000,  0.0000)
  27 Li    -0.000000   -0.097010   15.246239    ( 0.0000,  0.0000,  0.0000)
  28 Li     3.234467   -0.003751   15.440454    ( 0.0000,  0.0000,  0.0000)
  29 Li     6.467755   -0.003751   15.440454    ( 0.0000,  0.0000,  0.0000)
  30 Li     0.000000    3.226804   15.475789    ( 0.0000,  0.0000,  0.0000)
  31 Li     3.239893    3.236090   15.440115    ( 0.0000,  0.0000,  0.0000)
  32 Li     6.462329    3.236090   15.440115    ( 0.0000,  0.0000,  0.0000)
  33 Li     0.000000    6.474881   15.446868    ( 0.0000,  0.0000,  0.0000)
  34 Li     3.232687    6.469150   15.443744    ( 0.0000,  0.0000,  0.0000)
  35 Li     6.469535    6.469150   15.443744    ( 0.0000,  0.0000,  0.0000)
  36 O      0.000000    1.673312   17.475545    ( 0.0000,  0.0000,  0.0000)
  37 O     -0.000000    2.233730   19.639582    ( 0.0000,  0.0000,  0.0000)
  38 C      0.000000    1.366556   18.818455    ( 0.0000,  0.0000,  0.0000)
  39 H      0.000000    0.276794   19.006598    ( 0.0000,  0.0000,  0.0000)
  40 H     -0.000000    0.787274   17.037570    ( 0.0000,  0.0000,  0.0000)

Unit cell:
           periodic     x           y           z      points  spacing
  1. axis:    yes    9.702222    0.000000    0.000000    60     0.1617
  2. axis:    yes    0.000000    9.702222    0.000000    60     0.1617
  3. axis:    no     0.000000    0.000000   24.851111   156     0.1593

  Lengths:   9.702222   9.702222  24.851111
  Angles:   90.000000  90.000000  90.000000

Effective grid spacing dv^(1/3) = 0.1609

     iter     time        total  log10-change:
                         energy  eigst   dens
iter:   1 06:32:48  -257.064291  -1.38
iter:   2 06:33:14  -257.059744  -2.03  -2.08
iter:   3 06:33:41  -257.058111c -2.70  -2.21
iter:   4 06:34:07  -257.054095c -2.25  -2.32
Writing to output.gpw (mode='')

iter:   5 06:34:35  -257.054136c -3.24  -2.64
iter:   6 06:35:01  -257.053517c -2.59  -2.71
iter:   7 06:35:28  -257.053649c -2.55  -2.87
iter:   8 06:35:54  -257.053522c -3.54  -2.89
iter:   9 06:36:20  -257.053509c -3.37  -3.15
Writing to output.gpw (mode='')

iter:  10 06:36:48  -257.053548c -3.17  -3.22
iter:  11 06:37:14  -257.053505c -4.09  -3.23
iter:  12 06:37:41  -257.053490c -4.28  -3.33
iter:  13 06:38:07  -257.053505c -4.30  -3.51
iter:  14 06:38:33  -257.053503c -4.55  -3.67
Writing to output.gpw (mode='')

iter:  15 06:39:04  -257.053499c -4.90  -3.69
iter:  16 06:39:30  -257.053496c -5.04  -3.79
iter:  17 06:39:56  -257.053499c -5.18  -3.85
iter:  18 06:40:23  -257.053496c -5.38  -4.01c
iter:  19 06:40:49  -257.053494c -5.33  -4.08c
Writing to output.gpw (mode='')

iter:  20 06:41:17  -257.053494c -5.87  -4.04c
iter:  21 06:41:43  -257.053494c -5.69  -4.21c
iter:  22 06:42:10  -257.053493c -6.05  -4.45c
iter:  23 06:42:37  -257.053494c -6.05  -4.52c
iter:  24 06:43:03  -257.053494c -5.81  -4.60c
Writing to output.gpw (mode='')

iter:  25 06:43:32  -257.053495c -5.94  -4.72c
iter:  26 06:43:58  -257.053495c -6.33  -4.81c
iter:  27 06:44:25  -257.053495c -6.48  -4.91c
iter:  28 06:44:52  -257.053495c -6.56  -4.99c
iter:  29 06:45:18  -257.053495c -6.90  -5.15c
Writing to output.gpw (mode='')

iter:  30 06:45:46  -257.053495c -6.83  -5.17c
iter:  31 06:46:12  -257.053495c -6.82  -5.18c
iter:  32 06:46:39  -257.053495c -6.83  -5.35c
iter:  33 06:47:05  -257.053495c -7.19  -5.62c
iter:  34 06:47:32  -257.053495c -7.04  -5.52c
Writing to output.gpw (mode='')

iter:  35 06:48:00  -257.053495c -7.25  -5.44c
iter:  36 06:48:26  -257.053495c -7.38  -5.74c
iter:  37 06:48:53  -257.053495c -7.31  -5.90c
iter:  38 06:49:19  -257.053495c -7.28  -6.00c
iter:  39 06:49:46  -257.053495c -7.58c -5.88c

Converged after 39 iterations.

Dipole moment: (-15.295626, -4.449257, -0.196448) |e|*Ang

Energy contributions relative to reference atoms: (reference = -12434.674571)

Kinetic:       +116.554645
Potential:     -106.866577
External:        +0.000000
XC:            -267.212704
Entropy (-ST):   -0.150183
Local:           +0.546233
--------------------------
Free energy:   -257.128587
Extrapolated:  -257.053495

Dipole-layer corrected work functions: 3.381697, 3.759337 eV

Showing only first 2 kpts
 Kpt  Band  Eigenvalues  Occupancy
  0    25     -3.60929    1.36943
  0    26     -3.55532    0.84915
  0    27     -3.53105    0.62464
  0    28     -3.51629    0.50527

  1    25     -3.82790    1.98844
  1    26     -3.73513    1.92833
  1    27     -3.40473    0.07007
  1    28     -3.32236    0.01389


Fermi level: -3.57052

No gap
Writing to output.gpw (mode='')


Forces in eV/Ang:
  0 Li    0.00556   -0.00429   -0.28052
  1 Li    0.00000    0.00432   -0.27038
  2 Li   -0.00556   -0.00429   -0.28052
  3 Li    0.00112    0.00309   -0.26848
  4 Li    0.00000   -0.00496   -0.27382
  5 Li   -0.00112    0.00309   -0.26848
  6 Li   -0.00523    0.00020   -0.27830
  7 Li    0.00000    0.00370   -0.27069
  8 Li    0.00523    0.00020   -0.27830
  9 Li    0.00000   -0.00358    0.27873
 10 Li    0.00248   -0.00360    0.26789
 11 Li   -0.00248   -0.00360    0.26789
 12 Li    0.00000   -0.00769    0.28583
 13 Li    0.01350    0.00755    0.25623
 14 Li   -0.01350    0.00755    0.25623
 15 Li    0.00000    0.01820    0.26757
 16 Li   -0.00409   -0.00465    0.26745
 17 Li    0.00409   -0.00465    0.26745
 18 Li    0.02240    0.01854   -0.02723
 19 Li    0.00000   -0.00075    0.03468
 20 Li   -0.02240    0.01854   -0.02723
 21 Li   -0.01147   -0.01068    0.03547
 22 Li    0.00000    0.00526    0.02796
 23 Li    0.01147   -0.01068    0.03547
 24 Li    0.05005   -0.03955   -0.02290
 25 Li    0.00000   -0.00749    0.01646
 26 Li   -0.05005   -0.03955   -0.02290
 27 Li    0.00000   -0.26182   -0.56888
 28 Li   -0.00554   -0.01904   -0.02436
 29 Li    0.00554   -0.01904   -0.02436
 30 Li    0.00000   -0.07776    0.19009
 31 Li    0.03401    0.01343   -0.02761
 32 Li   -0.03401    0.01343   -0.02761
 33 Li    0.00000    0.01727    0.00646
 34 Li   -0.00834    0.00608   -0.01014
 35 Li    0.00834    0.00608   -0.01014
 36 O     0.00000   -0.59150    0.24877
 37 O     0.00000    0.01316    0.41468
 38 C     0.00000    0.40373   -0.10928
 39 H     0.00000    0.18242    0.06616
 40 H     0.00000    0.34835   -0.06843

System changes: positions 

Initializing position-dependent things.

Density initialized from wave functions
       .-----------------------.  
      /|                       |  
     / |                       |  
    /  |                       |  
   /   |                       |  
  /    |                       |  
 *     |                       |  
 |     |                       |  
 |     |                       |  
 |     |                       |  
 |     |                       |  
 |O    |                       |  
 |     Li      Li      Li      |  
 HC    |                       |  
 |O  Li|     Li      Li        |  
 H     |  Li      Li      Li   |  
 | Li  |   Li      Li          |  
 |     |Li      Li      Li     |  
 |     |                       |  
 |   LLi     LLi     LLi       |  
 |     |  Li      Li      Li   |  
 | Li  |   Li      Li          |  
 |     |Li      Li      Li     |  
 Li    | Li      Li            |  
 |    Li      Li      Li       |  
 |     |                       |  
 |     |                       |  
 |     |                       |  
 |     |                       |  
 |     |                       |  
 |     |                       |  
 |     .-----------------------.  
 |    /                       /   
 |   /                       /    
 |  /                       /     
 | /                       /      
 |/                       /       
 *-----------------------*        

Positions:
   0 Li     1.617037    1.617037   10.000000    ( 0.0000,  0.0000,  0.0000)
   1 Li     4.851111    1.617037   10.000000    ( 0.0000,  0.0000,  0.0000)
   2 Li     8.085185    1.617037   10.000000    ( 0.0000,  0.0000,  0.0000)
   3 Li     1.617037    4.851111   10.000000    ( 0.0000,  0.0000,  0.0000)
   4 Li     4.851111    4.851111   10.000000    ( 0.0000,  0.0000,  0.0000)
   5 Li     8.085185    4.851111   10.000000    ( 0.0000,  0.0000,  0.0000)
[...]

iter:   5 03:46:10  -257.446250c -4.37  -2.97
iter:   6 03:46:37  -257.446094c -3.77  -2.90
iter:   7 03:47:03  -257.446091c -3.16  -3.12
iter:   8 03:47:30  -257.446063c -4.24  -3.32
iter:   9 03:47:56  -257.446049c -3.93  -3.33
Writing to output.gpw (mode='')

iter:  10 03:48:24  -257.446052c -4.40  -3.69
iter:  11 03:48:51  -257.446049c -5.14  -3.76
iter:  12 03:49:17  -257.446058c -4.91  -3.80
iter:  13 03:49:44  -257.446058c -5.09  -3.96
iter:  14 03:50:10  -257.446056c -5.37  -4.06c
Writing to output.gpw (mode='')

iter:  15 03:50:38  -257.446054c -5.65  -4.12c
iter:  16 03:51:05  -257.446053c -5.71  -4.24c
iter:  17 03:51:31  -257.446053c -5.90  -4.33c
iter:  18 03:51:58  -257.446053c -6.03  -4.47c
iter:  19 03:52:24  -257.446053c -6.21  -4.56c
Writing to output.gpw (mode='')

iter:  20 03:52:52  -257.446053c -6.44  -4.64c
iter:  21 03:53:19  -257.446053c -6.41  -4.69c
iter:  22 03:53:45  -257.446053c -6.72  -4.85c
iter:  23 03:54:11  -257.446053c -6.82  -4.93c
iter:  24 03:54:38  -257.446053c -6.94  -5.02c
Writing to output.gpw (mode='')

iter:  25 03:55:10  -257.446054c -6.98  -5.09c
iter:  26 03:55:36  -257.446054c -7.16  -5.36c
iter:  27 03:56:03  -257.446054c -7.20  -5.54c
iter:  28 03:56:30  -257.446053c -7.23  -5.58c
iter:  29 03:56:56  -257.446054c -7.44c -5.72c

Converged after 29 iterations.

Dipole moment: (-15.291376, 0.039362, -0.023854) |e|*Ang

Energy contributions relative to reference atoms: (reference = -12434.674571)

Kinetic:       +115.143818
Potential:     -106.039741
External:        +0.000000
XC:            -267.021547
Entropy (-ST):   -0.153134
Local:           +0.547983
--------------------------
Free energy:   -257.522620
Extrapolated:  -257.446054

Dipole-layer corrected work functions: 3.378962, 3.424817 eV

Showing only first 2 kpts
 Kpt  Band  Eigenvalues  Occupancy
  0    25     -3.44543    1.40984
  0    26     -3.39298    0.91113
  0    27     -3.36415    0.63953
  0    28     -3.34615    0.49395

  1    25     -3.64603    1.98496
  1    26     -3.56118    1.92059
  1    27     -3.24217    0.07875
  1    28     -3.13997    0.01056


Fermi level: -3.40189

No gap
Writing to output.gpw (mode='')


Forces in eV/Ang:
  0 Li    0.00142   -0.00113   -0.27943
  1 Li    0.00000    0.00731   -0.27826
  2 Li   -0.00142   -0.00113   -0.27943
  3 Li    0.00269    0.00519   -0.26103
  4 Li    0.00000   -0.00134   -0.28778
  5 Li   -0.00269    0.00519   -0.26103
  6 Li   -0.00254    0.00100   -0.28846
  7 Li    0.00000    0.00283   -0.25311
  8 Li    0.00254    0.00100   -0.28846
  9 Li    0.00000   -0.01968    0.33111
 10 Li   -0.00962    0.01013    0.29931
 11 Li    0.00962    0.01013    0.29931
 12 Li    0.00000    0.00583    0.24580
 13 Li    0.01367    0.01745    0.28772
 14 Li   -0.01367    0.01745    0.28772
 15 Li    0.00000   -0.02577    0.27906
 16 Li    0.02559   -0.07546    0.24427
 17 Li   -0.02559   -0.07546    0.24427
 18 Li   -0.00024   -0.00466    0.00043
 19 Li    0.00000    0.00566   -0.00442
 20 Li    0.00024   -0.00466    0.00043
 21 Li   -0.00714    0.00915   -0.00151
 22 Li    0.00000    0.00213   -0.01424
 23 Li    0.00714    0.00915   -0.00151
 24 Li    0.00846    0.00377    0.00211
 25 Li    0.00000    0.00717   -0.00822
 26 Li   -0.00846    0.00377    0.00211
 27 Li    0.00000   -0.00158    0.00017
 28 Li   -0.00513    0.00798   -0.01228
 29 Li    0.00513    0.00798   -0.01228
 30 Li    0.00000    0.01309    0.02883
 31 Li    0.00666    0.00052    0.00141
 32 Li   -0.00666    0.00052    0.00141
 33 Li    0.00000   -0.00822    0.00297
 34 Li   -0.00922   -0.00219   -0.01304
 35 Li    0.00922   -0.00219   -0.01304
 36 O     0.00000    0.00566    0.00001
 37 O     0.00000   -0.04844   -0.04932
 38 C     0.00000    0.08014   -0.00324
 39 H     0.00000   -0.02218    0.00386
 40 H     0.00000    0.00182    0.02350

System changes: positions 

Initializing position-dependent things.

Density initialized from wave functions
       .-----------------------.  
      /|                       |  
     / |                       |  
    /  |                       |  
   /   |                       |  
  /    |                       |  
 *     |                       |  
 |     |                       |  
 |     |                       |  
 |     |                       |  
 |     |                       |  
 | O   |                       |  
 |H    Li      Li      Li      |  
 |     |                       |  
 |O  Li|     Li      Li        |  
 |HLi  |  Li      Li      Li   |  
 |     |   Li      Li          |  
 |     |Li      Li      Li     |  
 |     |                       |  
 |   LLi     LLi     LLi       |  
 |     |  Li      Li      Li   |  
 | Li  |   Li      Li          |  
 |     |Li      Li      Li     |  
 Li    | Li      Li            |  
 |    Li      Li      Li       |  
 |     |                       |  
 |     |                       |  
 |     |                       |  
 |     |                       |  
 |     |                       |  
 |     |                       |  
 |     .-----------------------.  
 |    /                       /   
 |   /                       /    
 |  /                       /     
 | /                       /      
 |/                       /       
 *-----------------------*        

Positions:
   0 Li     1.617037    1.617037   10.000000    ( 0.0000,  0.0000,  0.0000)
   1 Li     4.851111    1.617037   10.000000    ( 0.0000,  0.0000,  0.0000)
   2 Li     8.085185    1.617037   10.000000    ( 0.0000,  0.0000,  0.0000)
   3 Li     1.617037    4.851111   10.000000    ( 0.0000,  0.0000,  0.0000)
   4 Li     4.851111    4.851111   10.000000    ( 0.0000,  0.0000,  0.0000)
   5 Li     8.085185    4.851111   10.000000    ( 0.0000,  0.0000,  0.0000)
   6 Li     1.617037    8.085185   10.000000    ( 0.0000,  0.0000,  0.0000)
   7 Li     4.851111    8.085185   10.000000    ( 0.0000,  0.0000,  0.0000)
   8 Li     8.085185    8.085185   10.000000    ( 0.0000,  0.0000,  0.0000)
   9 Li     0.000000    0.000000   11.617037    ( 0.0000,  0.0000,  0.0000)
  10 Li     3.234074    0.000000   11.617037    ( 0.0000,  0.0000,  0.0000)
  11 Li     6.468148    0.000000   11.617037    ( 0.0000,  0.0000,  0.0000)
  12 Li     0.000000    3.234074   11.617037    ( 0.0000,  0.0000,  0.0000)
  13 Li     3.234074    3.234074   11.617037    ( 0.0000,  0.0000,  0.0000)
  14 Li     6.468148    3.234074   11.617037    ( 0.0000,  0.0000,  0.0000)
  15 Li     0.000000    6.468148   11.617037    ( 0.0000,  0.0000,  0.0000)
  16 Li     3.234074    6.468148   11.617037    ( 0.0000,  0.0000,  0.0000)
  17 Li     6.468148    6.468148   11.617037    ( 0.0000,  0.0000,  0.0000)
  18 Li     1.611176    1.665821   13.501474    ( 0.0000,  0.0000,  0.0000)
  19 Li     4.851111    1.590815   13.498892    ( 0.0000,  0.0000,  0.0000)
  20 Li     8.091046    1.665821   13.501474    ( 0.0000,  0.0000,  0.0000)
  21 Li     1.587273    4.806085   13.551142    ( 0.0000,  0.0000,  0.0000)
  22 Li     4.851111    4.856041   13.501789    ( 0.0000,  0.0000,  0.0000)
  23 Li     8.114949    4.806085   13.551142    ( 0.0000,  0.0000,  0.0000)
  24 Li     1.683743    7.995110   13.420275    ( 0.0000,  0.0000,  0.0000)
  25 Li     4.851111    8.053052   13.501545    ( 0.0000,  0.0000,  0.0000)
  26 Li     8.018479    7.995110   13.420275    ( 0.0000,  0.0000,  0.0000)
  27 Li    -0.000000   -0.202708   15.070070    ( 0.0000,  0.0000,  0.0000)
  28 Li     3.199140   -0.048826   15.429717    ( 0.0000,  0.0000,  0.0000)
  29 Li     6.503082   -0.048826   15.429717    ( 0.0000,  0.0000,  0.0000)
  30 Li     0.000000    3.238882   15.812977    ( 0.0000,  0.0000,  0.0000)
  31 Li     3.288969    3.224707   15.437161    ( 0.0000,  0.0000,  0.0000)
  32 Li     6.413253    3.224707   15.437161    ( 0.0000,  0.0000,  0.0000)
  33 Li     0.000000    6.499858   15.454720    ( 0.0000,  0.0000,  0.0000)
  34 Li     3.238706    6.437733   15.481460    ( 0.0000,  0.0000,  0.0000)
  35 Li     6.463516    6.437733   15.481460    ( 0.0000,  0.0000,  0.0000)
  36 O     -0.000000    2.227018   17.571968    ( 0.0000,  0.0000,  0.0000)
  37 O     -0.000000    3.377022   19.504460    ( 0.0000,  0.0000,  0.0000)
  38 C      0.000000    2.321016   18.943379    ( 0.0000,  0.0000,  0.0000)
  39 H     -0.000000    1.336931   19.432547    ( 0.0000,  0.0000,  0.0000)
  40 H     -0.000000    1.284477   17.282602    ( 0.0000,  0.0000,  0.0000)

Unit cell:
           periodic     x           y           z      points  spacing
  1. axis:    yes    9.702222    0.000000    0.000000    60     0.1617
  2. axis:    yes    0.000000    9.702222    0.000000    60     0.1617
  3. axis:    no     0.000000    0.000000   24.851111   156     0.1593

  Lengths:   9.702222   9.702222  24.851111
  Angles:   90.000000  90.000000  90.000000

Effective grid spacing dv^(1/3) = 0.1609

     iter     time        total  log10-change:
                         energy  eigst   dens
iter:   1 03:57:31  -257.447424  -2.76
iter:   2 03:57:57  -257.446534  -3.28  -2.44
iter:   3 03:58:24  -257.446327c -4.22  -2.80
iter:   4 03:58:51  -257.446288c -3.66  -3.02
Writing to output.gpw (mode='')

iter:   5 03:59:20  -257.446270c -5.06  -3.40
iter:   6 03:59:47  -257.446262c -4.62  -3.43
iter:   7 04:00:13  -257.446280c -4.01  -3.63
iter:   8 04:00:39  -257.446253c -5.16  -3.64
iter:   9 04:01:06  -257.446252c -5.46  -4.03c
Writing to output.gpw (mode='')

iter:  10 04:01:34  -257.446255c -5.69  -4.09c
iter:  11 04:02:00  -257.446255c -5.96  -4.20c
iter:  12 04:02:26  -257.446256c -5.90  -4.35c
iter:  13 04:02:52  -257.446256c -6.45  -4.45c
iter:  14 04:03:19  -257.446255c -6.27  -4.56c
Writing to output.gpw (mode='')

iter:  15 04:03:47  -257.446256c -6.49  -4.70c
iter:  16 04:04:14  -257.446256c -6.76  -4.75c
iter:  17 04:04:40  -257.446256c -6.75  -4.81c
iter:  18 04:05:06  -257.446256c -6.84  -4.83c
iter:  19 04:05:33  -257.446256c -6.99  -4.89c
Writing to output.gpw (mode='')

iter:  20 04:06:01  -257.446255c -7.23  -4.98c
iter:  21 04:06:27  -257.446255c -7.43c -5.05c

Converged after 21 iterations.

Dipole moment: (-15.290977, 0.036460, -0.022374) |e|*Ang

Energy contributions relative to reference atoms: (reference = -12434.674571)

Kinetic:       +115.315159
Potential:     -106.171828
External:        +0.000000
XC:            -267.061286
Entropy (-ST):   -0.153107
Local:           +0.548253
--------------------------
Free energy:   -257.522809
Extrapolated:  -257.446255

Dipole-layer corrected work functions: 3.378956, 3.421967 eV

Showing only first 2 kpts
 Kpt  Band  Eigenvalues  Occupancy
  0    25     -3.44376    1.40783
  0    26     -3.39159    0.91156
  0    27     -3.36275    0.63976
  0    28     -3.34447    0.49210

  1    25     -3.64494    1.98506
  1    26     -3.55981    1.92068
  1    27     -3.24064    0.07860
  1    28     -3.13895    0.01065


Fermi level: -3.40046

No gap
Writing to output.gpw (mode='')


Forces in eV/Ang:
  0 Li    0.00145   -0.00107   -0.27949
  1 Li    0.00000    0.00738   -0.27830
  2 Li   -0.00145   -0.00107   -0.27949
  3 Li    0.00271    0.00528   -0.26090
  4 Li    0.00000   -0.00143   -0.28812
  5 Li   -0.00271    0.00528   -0.26090
  6 Li   -0.00249    0.00092   -0.28861
  7 Li    0.00000    0.00286   -0.25276
  8 Li    0.00249    0.00092   -0.28861
  9 Li    0.00000   -0.02012    0.33179
 10 Li   -0.00974    0.01053    0.29907
 11 Li    0.00974    0.01053    0.29907
 12 Li    0.00000    0.00617    0.24486
 13 Li    0.01388    0.01778    0.28750
 14 Li   -0.01388    0.01778    0.28750
 15 Li    0.00000   -0.02618    0.27884
 16 Li    0.02671   -0.07658    0.24311
 17 Li   -0.02671   -0.07658    0.24311
 18 Li   -0.00002   -0.00520    0.00078
 19 Li    0.00000    0.00590   -0.00453
 20 Li    0.00002   -0.00520    0.00078
 21 Li   -0.00699    0.00901   -0.00176
 22 Li    0.00000    0.00221   -0.01412
 23 Li    0.00699    0.00901   -0.00176
 24 Li    0.00651    0.00527    0.00376
 25 Li    0.00000    0.00653   -0.00876
 26 Li   -0.00651    0.00527    0.00376
 27 Li    0.00000    0.00089    0.00402
 28 Li   -0.00489    0.00742   -0.01257
 29 Li    0.00489    0.00742   -0.01257
 30 Li    0.00000    0.01405    0.02455
 31 Li    0.00614    0.00097    0.00165
 32 Li   -0.00614    0.00097    0.00165
 33 Li    0.00000   -0.00759    0.00253
 34 Li   -0.00903   -0.00245   -0.01230
 35 Li    0.00903   -0.00245   -0.01230
 36 O     0.00000    0.00706   -0.00767
 37 O     0.00000    0.02247   -0.00879
 38 C     0.00000    0.01254   -0.02702
 39 H     0.00000   -0.01937    0.01016
 40 H     0.00000   -0.00742    0.00951

Timing:                                      incl.     excl.
-------------------------------------------------------------------
Density initialized from wave functions:    36.469    26.309   0.0% |
 Symmetrize density:                        10.159    10.159   0.0% |
Forces:                                    186.881   186.881   0.2% |
Hamiltonian:                              1501.103     0.019   0.0% |
 Atomic:                                     8.267     0.076   0.0% |
  XC Correction:                             8.191     8.191   0.0% |
 Calculate atomic Hamiltonians:              3.603     3.603   0.0% |
 Communicate:                               11.399    11.399   0.0% |
 Hartree integrate/restrict:                 3.978     3.978   0.0% |
 Initialize Hamiltonian:                     0.000     0.000   0.0% |
 Poisson:                                  103.456    44.237   0.1% |
  Communicate from 1D:                      10.425    10.425   0.0% |
  Communicate from 2D:                       9.778     9.778   0.0% |
  Communicate to 1D:                         7.171     7.171   0.0% |
  Communicate to 2D:                        10.920    10.920   0.0% |
  FFT 1D:                                    9.550     9.550   0.0% |
  FFT 2D:                                   11.375    11.375   0.0% |
 XC 3D grid:                              1369.474   251.480   0.3% |
  VdW-DF integral:                        1117.994    14.861   0.0% |
   Convolution:                            234.059   234.059   0.3% |
   FFT:                                     78.248    78.248   0.1% |
   gather:                                 275.555   275.555   0.3% |
   hmm1:                                    32.777    32.777   0.0% |
   hmm2:                                    74.059    74.059   0.1% |
   iFFT:                                    71.928    71.928   0.1% |
   potential:                              327.881     4.459   0.0% |
    collect:                                24.184    24.184   0.0% |
    p1:                                    135.711   135.711   0.2% |
    p2:                                    110.262   110.262   0.1% |
    sum:                                    53.266    53.266   0.1% |
   splines:                                  8.625     8.625   0.0% |
 vbar:                                       0.907     0.907   0.0% |
LCAO initialization:                         3.589     0.316   0.0% |
 LCAO eigensolver:                           1.118     0.000   0.0% |
  Calculate projections:                     0.000     0.000   0.0% |
  DenseAtomicCorrection:                     0.000     0.000   0.0% |
  Distribute overlap matrix:                 1.047     1.047   0.0% |
  Orbital Layouts:                           0.046     0.046   0.0% |
  Potential matrix:                          0.022     0.022   0.0% |
  Sum over cells:                            0.002     0.002   0.0% |
 LCAO to grid:                               1.575     1.575   0.0% |
 Set positions (LCAO WFS):                   0.580     0.414   0.0% |
  Basic WFS set positions:                   0.007     0.007   0.0% |
  Basis functions set positions:             0.001     0.001   0.0% |
  P tci:                                     0.001     0.001   0.0% |
  ST tci:                                    0.082     0.082   0.0% |
  mktci:                                     0.076     0.076   0.0% |
Redistribute:                                0.069     0.069   0.0% |
SCF-cycle:                               80301.626  1472.329   1.8% ||
 Davidson:                               27262.869  9761.535  11.8% |----|
  Apply hamiltonian:                      1724.818  1724.818   2.1% ||
  Subspace diag:                          4472.457     0.615   0.0% |
   calc_h_matrix:                         2614.447   763.600   0.9% |
    Apply hamiltonian:                    1850.848  1850.848   2.2% ||
   diagonalize:                             60.040    60.040   0.1% |
   rotate_psi:                            1797.354  1797.354   2.2% ||
  calc. matrices:                         8260.991  5142.089   6.2% |-|
   Apply hamiltonian:                     3118.902  3118.902   3.8% |-|
  diagonalize:                              29.325    29.325   0.0% |
  rotate_psi:                             3013.743  3013.743   3.7% ||
 Density:                                  780.643     0.128   0.0% |
  Atomic density matrices:                  21.370    21.370   0.0% |
  Mix:                                     242.511   242.511   0.3% |
  Multipole moments:                         2.753     2.753   0.0% |
  Pseudo density:                          513.880   177.439   0.2% |
   Symmetrize density:                     336.441   336.441   0.4% |
 Hamiltonian:                            50731.224     0.643   0.0% |
  Atomic:                                  280.064     2.644   0.0% |
   XC Correction:                          277.420   277.420   0.3% |
  Calculate atomic Hamiltonians:           121.757   121.757   0.1% |
  Communicate:                             360.605   360.605   0.4% |
  Hartree integrate/restrict:              134.259   134.259   0.2% |
  Poisson:                                3527.549  1503.723   1.8% ||
   Communicate from 1D:                    355.270   355.270   0.4% |
   Communicate from 2D:                    331.701   331.701   0.4% |
   Communicate to 1D:                      240.643   240.643   0.3% |
   Communicate to 2D:                      371.885   371.885   0.5% |
   FFT 1D:                                 329.349   329.349   0.4% |
   FFT 2D:                                 394.977   394.977   0.5% |
  XC 3D grid:                            46275.886  8558.900  10.4% |---|
   VdW-DF integral:                      37716.985   504.862   0.6% |
    Convolution:                          7902.980  7902.980   9.6% |---|
    FFT:                                  2648.451  2648.451   3.2% ||
    gather:                               9440.214  9440.214  11.4% |----|
    hmm1:                                 1115.974  1115.974   1.4% ||
    hmm2:                                 2509.887  2509.887   3.0% ||
    iFFT:                                 2439.088  2439.088   3.0% ||
    potential:                           11155.500   158.771   0.2% |
     collect:                              832.800   832.800   1.0% |
     p1:                                  4619.127  4619.127   5.6% |-|
     p2:                                  3721.112  3721.112   4.5% |-|
     sum:                                 1823.689  1823.689   2.2% ||
    splines:                                 0.029     0.029   0.0% |
  vbar:                                     30.462    30.462   0.0% |
 Orthonormalize:                            54.562     0.032   0.0% |
  calc_s_matrix:                            11.099    11.099   0.0% |
  inverse-cholesky:                          0.888     0.888   0.0% |
  projections:                              13.478    13.478   0.0% |
  rotate_psi_s:                             29.065    29.065   0.0% |
Set symmetry:                                0.005     0.005   0.0% |
Other:                                     451.109   451.109   0.5% |
-------------------------------------------------------------------
Total:                                             82480.851 100.0%

Memory usage: 1.19 GiB
Date: Sun Mar 12 04:06:33 2023
