
  ___ ___ ___ _ _ _  
 |   |   |_  | | | | 
 | | | | | . | | | | 
 |__ |  _|___|_____|  22.8.0
 |___|_|             

User:   vazumah@d006
Date:   Sat Mar  4 10:23:30 2023
Arch:   x86_64
Pid:    12004
CWD:    /home/vazumah/Research_Projects/LiMEAS/LiNRR_proton_donors/N2_with_proton_donor/Li_BCC_100/adsorbates/CH3CH2OH_z/bridge/8.085_1.617/N2_y/barrier/8.26_0.05_15.54
Python: 3.10.6
gpaw:   /home/vazumah/anaconda3/envs/NAME/lib/python3.10/site-packages/gpaw
_gpaw:  /home/vazumah/anaconda3/envs/NAME/lib/python3.10/site-packages/
        _gpaw.cpython-310-x86_64-linux-gnu.so
ase:    /home/vazumah/anaconda3/envs/NAME/lib/python3.10/site-packages/ase (version 3.22.1)
numpy:  /home/vazumah/anaconda3/envs/NAME/lib/python3.10/site-packages/numpy (version 1.23.3)
scipy:  /home/vazumah/anaconda3/envs/NAME/lib/python3.10/site-packages/scipy (version 1.9.1)
libxc:  5.2.3
units:  Angstrom and eV
cores: 32
OpenMP: True
OMP_NUM_THREADS: 1

Input parameters:
  h: 0.16
  kpts: {size: [4, 4, 1]}
  occupations: {name: fermi-dirac,
                width: 0.05}
  poissonsolver: {dipolelayer: xy}
  xc: BEEF-vdW

System changes: positions, numbers, cell, pbc, initial_charges, initial_magmoms 

Initialize ...

species:
  Li:
    name: Lithium
    id: 830b4218f175192f93f959cfc0aad614
    Z: 3.0
    valence: 1
    core: 2
    charge: 0.0
    file: /home/vazumah/anaconda3/envs/NAME/share/gpaw/Li.PBE.gz
    compensation charges: {type: gauss,
                           rc: 0.33,
                           lmax: 2}
    cutoffs: {filter: 1.91,
              core: 2.55}
    valence states:
      #              energy  rcut
      - 2s(1.00)    -2.874   1.058
      - 2p(0.00)    -1.090   1.058
      -  s          24.337   1.058
  
    # Using partial waves for Li as LCAO basis

  O:
    name: Oxygen
    id: 32ecd46bf208036f09c70b0ec9a88b78
    Z: 8.0
    valence: 6
    core: 2
    charge: 0.0
    file: /home/vazumah/anaconda3/envs/NAME/share/gpaw/O.PBE.gz
    compensation charges: {type: gauss,
                           rc: 0.21,
                           lmax: 2}
    cutoffs: {filter: 1.17,
              core: 0.83}
    valence states:
      #              energy  rcut
      - 2s(2.00)   -23.961   0.688
      - 2p(4.00)    -9.029   0.598
      -  s           3.251   0.688
      -  p          18.182   0.598
      -  d           0.000   0.619
  
    # Using partial waves for O as LCAO basis

  C:
    name: Carbon
    id: 4aa54d4b901d75f77cc0ea3eec22967b
    Z: 6.0
    valence: 4
    core: 2
    charge: 0.0
    file: /home/vazumah/anaconda3/envs/NAME/share/gpaw/C.PBE.gz
    compensation charges: {type: gauss,
                           rc: 0.20,
                           lmax: 2}
    cutoffs: {filter: 1.14,
              core: 1.14}
    valence states:
      #              energy  rcut
      - 2s(2.00)   -13.751   0.635
      - 2p(2.00)    -5.284   0.635
      -  s          13.461   0.635
      -  p          21.927   0.635
      -  d           0.000   0.635
  
    # Using partial waves for C as LCAO basis

  H:
    name: Hydrogen
    id: d65de229564ff8ea4db303e23b6d1ecf
    Z: 1.0
    valence: 1
    core: 0
    charge: 0.0
    file: /home/vazumah/anaconda3/envs/NAME/share/gpaw/H.PBE.gz
    compensation charges: {type: gauss,
                           rc: 0.15,
                           lmax: 2}
    cutoffs: {filter: 0.85,
              core: 0.53}
    valence states:
      #              energy  rcut
      - 1s(1.00)    -6.494   0.476
      -  s          20.717   0.476
      -  p           0.000   0.476
  
    # Using partial waves for H as LCAO basis

  N:
    name: Nitrogen
    id: f7500608b86eaa90eef8b1d9a670dc53
    Z: 7.0
    valence: 5
    core: 2
    charge: 0.0
    file: /home/vazumah/anaconda3/envs/NAME/share/gpaw/N.PBE.gz
    compensation charges: {type: gauss,
                           rc: 0.18,
                           lmax: 2}
    cutoffs: {filter: 1.11,
              core: 0.96}
    valence states:
      #              energy  rcut
      - 2s(2.00)   -18.583   0.603
      - 2p(3.00)    -7.089   0.529
      -  s           8.629   0.603
      -  p          20.123   0.529
      -  d           0.000   0.577
  
    # Using partial waves for N as LCAO basis

Reference energy: -14434.854043  # eV

Spin-paired calculation

Convergence criteria:
 Maximum [total energy] change in last 3 cyles: 0.0005 eV / electron
 Maximum integral of absolute [dens]ity change: 0.0001 electrons / valence electron
 Maximum integral of absolute [eigenst]ate change: 4e-08 eV^2 / valence electron
 Maximum number of scf [iter]ations: 333
 (Square brackets indicate name in SCF output, whereas a 'c' in
 the SCF output indicates the quantity has converged.)

Symmetries present (total): 1

  ( 1  0  0)
  ( 0  1  0)
  ( 0  0  1)

16 k-points: 4 x 4 x 1 Monkhorst-Pack grid
8 k-points in the irreducible part of the Brillouin zone
       k-points in crystal coordinates                weights
   0:     0.12500000   -0.37500000    0.00000000          2/16
   1:     0.12500000   -0.12500000    0.00000000          2/16
   2:     0.12500000    0.12500000    0.00000000          2/16
   3:     0.12500000    0.37500000    0.00000000          2/16
   4:     0.37500000   -0.37500000    0.00000000          2/16
   5:     0.37500000   -0.12500000    0.00000000          2/16
   6:     0.37500000    0.12500000    0.00000000          2/16
   7:     0.37500000    0.37500000    0.00000000          2/16

Wave functions: Uniform real-space grid
  Kinetic energy operator: 6*3+1=19 point O(h^6) finite-difference Laplacian
  ScaLapack parameters: grid=1x1, blocksize=None
  Wavefunction extrapolation:
    Improved wavefunction reuse through dual PAW basis 

Occupation numbers: Fermi-Dirac:
  width: 0.0500  # eV
 

Eigensolver
   Davidson(niter=2) 

Densities:
  Coarse grid: 60*60*156 grid
  Fine grid: 120*120*312 grid
  Total Charge: 0.000000 

Density mixing:
  Method: separate
  Backend: pulay
  Linear mixing parameter: 0.05
  old densities: 5
  Damping of long wavelength oscillations: 50 

Hamiltonian:
  XC and Coulomb potentials evaluated on a 120*120*312 grid
  Using the BEEF-vdW Exchange-Correlation functional
  Interpolation: tri-quintic (5. degree polynomial)
  Poisson solver: FastPoissonSolver using
    Stencil: 6*3+1=19 point O(h^6) finite-difference Laplacian
    FFT axes: [0, 1]
    FST axes: [2]

Dipole correction along z-axis 

XC parameters: BEEF-vdW with 2 nearest neighbor stencil

Memory estimate:
  Process memory now: 212.44 MiB
  Calculator: 307.36 MiB
    Density: 88.33 MiB
      Arrays: 27.47 MiB
      Localized functions: 50.43 MiB
      Mixer: 10.44 MiB
    Hamiltonian: 21.95 MiB
      Arrays: 17.96 MiB
      XC: 0.00 MiB
      Poisson: 0.00 MiB
      vbar: 3.99 MiB
    Wavefunctions: 197.08 MiB
      Arrays psit_nG: 91.85 MiB
      Eigensolver: 102.58 MiB
      Projections: 0.05 MiB
      Projectors: 2.60 MiB

Total number of cores used: 32
Parallelization over k-points: 8
Domain decomposition: 1 x 1 x 4

Number of atoms: 47
Number of atomic orbitals: 170
Number of bands in calculation: 44
Number of valence electrons: 66
Bands to converge: occupied

... initialized

Initializing position-dependent things.

Density initialized from atomic densities
Creating initial wave functions:
  44 bands from LCAO basis set

       .-----------------------.  
      /|                       |  
     / |                       |  
    /  |                       |  
   /   |                       |  
  /    |                       |  
 *     |                       |  
 |     |                       |  
 |     |                       |  
 |     |            H    H     |  
 |     |              H        |  
 |     |            H O        |  
 |     Li      Li  H  C H      |  
 |     |                       |  
 |   Li|     Li      Li        |  
 |     |  Li      Li      Li   |  
 |     |   Li     NLi     Li   |  
 |     |Li      LiLi    Li     |  
 |     |             N         |  
 |   LLi     LLi     LLi       |  
 |     |  Li      Li      Li   |  
 | Li  |   Li      Li          |  
 |     |Li      Li      Li     |  
 Li    | Li      Li            |  
 |    Li      Li      Li       |  
 |     |                       |  
 |     |                       |  
 |     |                       |  
 |     |                       |  
 |     |                       |  
 |     |                       |  
 |     .-----------------------.  
 |    /                       /   
 |   /                       /    
 |  /                       /     
 | /                       /      
 |/                       /       
 *-----------------------*        

Positions:
   0 Li     1.617037    1.617037   10.000000    ( 0.0000,  0.0000,  0.0000)
   1 Li     4.851111    1.617037   10.000000    ( 0.0000,  0.0000,  0.0000)
   2 Li     8.085185    1.617037   10.000000    ( 0.0000,  0.0000,  0.0000)
   3 Li     1.617037    4.851111   10.000000    ( 0.0000,  0.0000,  0.0000)
   4 Li     4.851111    4.851111   10.000000    ( 0.0000,  0.0000,  0.0000)
   5 Li     8.085185    4.851111   10.000000    ( 0.0000,  0.0000,  0.0000)
   6 Li     1.617037    8.085185   10.000000    ( 0.0000,  0.0000,  0.0000)
   7 Li     4.851111    8.085185   10.000000    ( 0.0000,  0.0000,  0.0000)
   8 Li     8.085185    8.085185   10.000000    ( 0.0000,  0.0000,  0.0000)
   9 Li     0.000000    0.000000   11.617037    ( 0.0000,  0.0000,  0.0000)
  10 Li     3.234074    0.000000   11.617037    ( 0.0000,  0.0000,  0.0000)
  11 Li     6.468148    0.000000   11.617037    ( 0.0000,  0.0000,  0.0000)
  12 Li     0.000000    3.234074   11.617037    ( 0.0000,  0.0000,  0.0000)
  13 Li     3.234074    3.234074   11.617037    ( 0.0000,  0.0000,  0.0000)
  14 Li     6.468148    3.234074   11.617037    ( 0.0000,  0.0000,  0.0000)
  15 Li     0.000000    6.468148   11.617037    ( 0.0000,  0.0000,  0.0000)
  16 Li     3.234074    6.468148   11.617037    ( 0.0000,  0.0000,  0.0000)
  17 Li     6.468148    6.468148   11.617037    ( 0.0000,  0.0000,  0.0000)
  18 Li     1.595509    1.594341   13.521113    ( 0.0000,  0.0000,  0.0000)
  19 Li     4.875757    1.669805   13.523007    ( 0.0000,  0.0000,  0.0000)
  20 Li     8.084601    1.619304   13.573205    ( 0.0000,  0.0000,  0.0000)
  21 Li     1.537970    4.787371   13.515473    ( 0.0000,  0.0000,  0.0000)
  22 Li     4.813147    4.877897   13.504320    ( 0.0000,  0.0000,  0.0000)
  23 Li     8.033336    4.828877   13.530236    ( 0.0000,  0.0000,  0.0000)
  24 Li     1.653345    8.047130   13.481953    ( 0.0000,  0.0000,  0.0000)
  25 Li     4.911990    8.143315   13.494306    ( 0.0000,  0.0000,  0.0000)
  26 Li     8.125773    8.099628   13.516332    ( 0.0000,  0.0000,  0.0000)
  27 Li     0.122820   -0.114585   15.486523    ( 0.0000,  0.0000,  0.0000)
  28 Li     3.369991   -0.045509   15.433870    ( 0.0000,  0.0000,  0.0000)
  29 Li     6.701148    0.204638   15.590293    ( 0.0000,  0.0000,  0.0000)
  30 Li    -0.305390    2.980364   15.691723    ( 0.0000,  0.0000,  0.0000)
  31 Li     3.083623    3.281383   15.463522    ( 0.0000,  0.0000,  0.0000)
  32 Li     6.319692    3.337664   15.554884    ( 0.0000,  0.0000,  0.0000)
  33 Li     0.047264    6.350009   15.456463    ( 0.0000,  0.0000,  0.0000)
  34 Li     3.243262    6.476191   15.445465    ( 0.0000,  0.0000,  0.0000)
  35 Li     6.419510    6.599247   15.450516    ( 0.0000,  0.0000,  0.0000)
  36 O      7.889996    2.545694   19.227444    ( 0.0000,  0.0000,  0.0000)
  37 C      8.020026    1.225021   19.777759    ( 0.0000,  0.0000,  0.0000)
  38 C      8.194501    1.224440   21.291760    ( 0.0000,  0.0000,  0.0000)
  39 H      7.159011    0.607327   19.488645    ( 0.0000,  0.0000,  0.0000)
  40 H      8.900117    0.803689   19.287345    ( 0.0000,  0.0000,  0.0000)
  41 H      8.352089    0.206024   21.656245    ( 0.0000,  0.0000,  0.0000)
  42 H      9.054614    1.831527   21.579376    ( 0.0000,  0.0000,  0.0000)
  43 H      7.307568    1.625626   21.791403    ( 0.0000,  0.0000,  0.0000)
  44 H      7.058133    2.920631   19.540742    ( 0.0000,  0.0000,  0.0000)
  45 N      8.263095    0.045027   15.538408    ( 0.0000,  0.0000,  0.0000)
  46 N      6.510420    1.771151   15.572589    ( 0.0000,  0.0000,  0.0000)

Unit cell:
           periodic     x           y           z      points  spacing
  1. axis:    yes    9.702222    0.000000    0.000000    60     0.1617
  2. axis:    yes    0.000000    9.702222    0.000000    60     0.1617
  3. axis:    no     0.000000    0.000000   24.851111   156     0.1593

  Lengths:   9.702222   9.702222  24.851111
  Angles:   90.000000  90.000000  90.000000

Effective grid spacing dv^(1/3) = 0.1609

     iter     time        total  log10-change:
                         energy  eigst   dens
iter:   1 10:25:35  -489.330925
iter:   2 10:26:55  -149.242626  +2.34  -0.05
iter:   3 10:30:08  -103.510580  +2.92  -0.24
iter:   4 10:32:58  -138.557361  +2.74  -0.34
Writing to output.gpw (mode='')

iter:   5 10:37:10  -192.453486  +2.74  -0.41
iter:   6 10:41:18  -246.414175  +2.57  -0.58
iter:   7 10:44:02  -290.939501  +2.43  -0.63
iter:   8 10:46:04  -320.536202  +2.26  -0.63
iter:   9 10:48:56  -346.369131  +2.14  -0.60
Writing to output.gpw (mode='')

iter:  10 10:53:22  -355.371325  +1.83  -0.58
iter:  11 10:59:26  -353.037655  +1.54  -0.55
iter:  12 11:04:44  -337.623955  +1.30  -0.58
iter:  13 11:08:59  -325.775816  +0.85  -0.64
iter:  14 11:14:52  -309.614095  +1.11  -0.62
Writing to output.gpw (mode='')

iter:  15 11:20:42  -308.824167  +0.71  -0.80
iter:  16 11:25:56  -305.622062  +0.57  -0.84
iter:  17 11:30:31  -304.435152  +0.73  -1.00
iter:  18 11:34:27  -305.148320  +0.52  -1.01
iter:  19 11:39:31  -303.960103  +0.15  -1.00
Writing to output.gpw (mode='')

iter:  20 11:44:39  -304.408804  +0.28  -1.21
iter:  21 11:50:00  -304.390532  -0.34  -1.17
iter:  22 11:54:23  -304.018163  -0.18  -1.23
iter:  23 11:58:35  -303.624975  -0.35  -1.36
iter:  24 12:02:57  -303.508809  -0.45  -1.45
Writing to output.gpw (mode='')

iter:  25 12:06:44  -303.468489  -0.62  -1.52
iter:  26 12:11:15  -303.436448  -1.14  -1.58
iter:  27 12:14:56  -303.426074  -0.96  -1.72
iter:  28 12:18:53  -303.413776c -1.49  -1.94
iter:  29 12:22:40  -303.410025c -1.21  -1.97
Writing to output.gpw (mode='')

iter:  30 12:27:41  -303.412802c -1.47  -1.97
iter:  31 12:31:08  -303.410239c -1.87  -2.15
iter:  32 12:34:33  -303.404539c -1.88  -2.27
iter:  33 12:38:26  -303.404004c -2.05  -2.32
iter:  34 12:40:51  -303.404889c -2.26  -2.39
Writing to output.gpw (mode='')

iter:  35 12:43:30  -303.405222c -2.57  -2.52
iter:  36 12:46:12  -303.405114c -2.60  -2.55
iter:  37 12:50:10  -303.405186c -2.71  -2.65
iter:  38 12:53:49  -303.405286c -2.81  -2.74
iter:  39 12:58:09  -303.405436c -2.89  -3.00
Writing to output.gpw (mode='')

iter:  40 13:02:27  -303.405639c -3.01  -3.17
iter:  41 13:07:44  -303.405759c -3.29  -3.17
iter:  42 13:11:12  -303.405868c -3.16  -3.20
iter:  43 13:14:46  -303.405946c -3.26  -3.25
iter:  44 13:17:06  -303.406011c -3.36  -3.30
Writing to output.gpw (mode='')

iter:  45 13:19:33  -303.406058c -3.55  -3.35
iter:  46 13:22:04  -303.406099c -3.71  -3.38
iter:  47 13:25:37  -303.406141c -3.91  -3.42
iter:  48 13:28:55  -303.406167c -4.04  -3.53
iter:  49 13:33:29  -303.406186c -4.28  -3.72
Writing to output.gpw (mode='')

iter:  50 13:37:54  -303.406209c -4.06  -3.79
iter:  51 13:43:46  -303.406219c -4.55  -3.98
iter:  52 13:48:12  -303.406229c -4.42  -4.00
iter:  53 13:52:50  -303.406244c -4.49  -4.02c
iter:  54 13:56:22  -303.406247c -4.61  -4.15c
Writing to output.gpw (mode='')

iter:  55 14:01:11  -303.406255c -4.47  -4.27c
iter:  56 14:05:57  -303.406259c -4.73  -4.37c
iter:  57 14:10:11  -303.406262c -4.89  -4.40c
iter:  58 14:13:51  -303.406265c -5.06  -4.42c
iter:  59 14:17:23  -303.406268c -5.11  -4.62c
Writing to output.gpw (mode='')

iter:  60 14:20:56  -303.406270c -4.95  -4.72c
iter:  61 14:23:09  -303.406272c -5.07  -4.76c
iter:  62 14:25:39  -303.406273c -5.20  -4.79c
iter:  63 14:29:12  -303.406275c -5.38  -4.80c
iter:  64 14:34:54  -303.406276c -5.40  -4.80c
Writing to output.gpw (mode='')

iter:  65 14:42:09  -303.406277c -5.55  -4.89c
iter:  66 14:47:13  -303.406278c -5.64  -5.12c
iter:  67 14:53:38  -303.406279c -5.42  -5.19c
iter:  68 15:00:05  -303.406279c -5.75  -5.24c
iter:  69 15:06:40  -303.406279c -5.76  -5.27c
Writing to output.gpw (mode='')

iter:  70 15:13:23  -303.406280c -5.84  -5.22c
iter:  71 15:19:50  -303.406280c -5.97  -5.08c
iter:  72 15:26:14  -303.406280c -5.97  -5.11c
iter:  73 15:34:59  -303.406281c -5.85  -5.01c
iter:  74 15:43:51  -303.406281c -6.01  -4.96c
Writing to output.gpw (mode='')

iter:  75 15:50:56  -303.406281c -5.88  -4.95c
iter:  76 15:56:49  -303.406281c -6.15  -4.85c
iter:  77 16:02:26  -303.406281c -6.13  -4.87c
iter:  78 16:09:09  -303.406282c -6.34  -4.86c
iter:  79 16:15:10  -303.406282c -6.29  -4.80c
Writing to output.gpw (mode='')

iter:  80 16:22:07  -303.406282c -6.48  -4.88c
iter:  81 16:33:05  -303.406282c -6.57  -5.11c
iter:  82 16:44:40  -303.406282c -6.61  -5.23c
iter:  83 16:53:14  -303.406282c -6.69  -5.42c
iter:  84 17:00:53  -303.406282c -6.56  -5.48c
Writing to output.gpw (mode='')

iter:  85 17:09:31  -303.406282c -6.74  -5.54c
iter:  86 17:17:32  -303.406282c -6.93  -5.69c
iter:  87 17:25:46  -303.406282c -6.90  -5.74c
iter:  88 17:30:34  -303.406282c -6.94  -5.82c
iter:  89 17:35:54  -303.406282c -6.94  -5.89c
Writing to output.gpw (mode='')

iter:  90 17:44:04  -303.406282c -7.08  -5.96c
iter:  91 17:49:25  -303.406282c -7.29  -6.00c
iter:  92 17:57:16  -303.406282c -7.35  -6.22c
iter:  93 18:04:06  -303.406282c -7.35  -6.25c
iter:  94 18:10:53  -303.406282c -7.45c -6.33c

Converged after 94 iterations.

Dipole moment: (-1.637457, -13.685635, 0.074086) |e|*Ang

Energy contributions relative to reference atoms: (reference = -14434.854043)

Kinetic:       +160.601549
Potential:     -146.582917
External:        +0.000000
XC:            -318.133847
Entropy (-ST):   -0.184599
Local:           +0.801233
--------------------------
Free energy:   -303.498582
Extrapolated:  -303.406282

Dipole-layer corrected work functions: 3.450789, 3.308372 eV

Showing only first 2 kpts
 Kpt  Band  Eigenvalues  Occupancy
  0    31     -3.55130    1.93752
  0    32     -3.48105    1.76770
  0    33     -3.33718    0.59969
  0    34     -3.22709    0.09045

  1    31     -3.58883    1.97001
  1    32     -3.41656    1.35383
  1    33     -3.34635    0.67939
  1    34     -3.26931    0.19854


Fermi level: -3.37958

No gap
Writing to output.gpw (mode='')


Forces in eV/Ang:
  0 Li   -0.00026    0.00446   -0.29212
  1 Li   -0.00314    0.00155   -0.27623
  2 Li    0.00741    0.00856   -0.24445
  3 Li   -0.00048   -0.00168   -0.29618
  4 Li   -0.00915    0.01043   -0.28151
  5 Li    0.00275   -0.00069   -0.29302
  6 Li    0.01208   -0.01143   -0.28009
  7 Li   -0.00905   -0.00968   -0.27061
  8 Li    0.00013   -0.00389   -0.27606
  9 Li   -0.00900    0.03053    0.25436
 10 Li    0.01923    0.04531    0.32397
 11 Li   -0.00917   -0.00441    0.15324
 12 Li   -0.06136   -0.04890    0.23651
 13 Li   -0.00163    0.00385    0.30448
 14 Li    0.02870   -0.00650    0.24071
 15 Li   -0.00870   -0.00565    0.30453
 16 Li   -0.02367   -0.03657    0.25728
 17 Li    0.03420    0.01442    0.31833
 18 Li    0.03317    0.03861   -0.03114
 19 Li    0.44454    0.02711    0.55753
 20 Li   -0.44848   -0.47056    1.03531
 21 Li   -0.02288   -0.02787    0.03347
 22 Li   -0.01207    0.09190   -0.00710
 23 Li    0.04958    0.03290   -0.03107
 24 Li    0.08970   -0.00942    0.00465
 25 Li   -0.11792   -0.12388   -0.11952
 26 Li    0.04500    0.45897    0.55408
 27 Li    4.07719   -0.44385    0.05725
 28 Li    0.05261    0.08864    0.05298
 29 Li   -4.12846   -3.99132    0.42399
 30 Li   -0.31236   -0.31573    0.11550
 31 Li    0.01822   -0.01986    0.02963
 32 Li   -0.48957    3.89634    0.15150
 33 Li   -0.02713    0.02696    0.03555
 34 Li   -0.00554   -0.00501   -0.03446
 35 Li    0.08051    0.03985    0.04744
 36 O     0.05335    0.06424    0.05399
 37 C    -0.02934   -0.03202   -0.05889
 38 C    -0.01832    0.03639   -0.02949
 39 H     0.02827    0.02137   -0.03178
 40 H    -0.01774   -0.00600   -0.01243
 41 H    -0.01667   -0.01052   -0.00363
 42 H     0.00304    0.00877    0.00983
 43 H     0.00743   -0.00110   -0.00155
 44 H    -0.02839   -0.01625   -0.04225
 45 N     0.29943    0.39525   -1.29968
 46 N     0.36617    0.25350   -1.36343

System changes: positions 

Initializing position-dependent things.

Density initialized from wave functions
       .-----------------------.  
      /|                       |  
     / |                       |  
    /  |                       |  
   /   |                       |  
  /    |                       |  
 *     |                       |  
 |     |                       |  
 |     |                       |  
 |     |            H    H     |  
 |     |              H        |  
 |     |            H O        |  
 |     Li      Li  H  C H      |  
 |     |                       |  
 |   Li|     Li      Li        |  
 |     |  Li      Li      Li   |  
 |     |   Li     NLi     Li   |  
 |     |Li      LiLi    Li     |  
 |     |             N         |  
 |   LLi     LLi     LLi       |  
 |     |  Li      Li      Li   |  
 | Li  |   Li      Li          |  
 |     |Li      Li      Li     |  
 Li    | Li      Li            |  
 |    Li      Li      Li       |  
 |     |                       |  
 |     |                       |  
 |     |                       |  
 |     |                       |  
 |     |                       |  
 |     |                       |  
 |     .-----------------------.  
 |    /                       /   
 |   /                       /    
 |  /                       /     
 | /                       /      
 |/                       /       
 *-----------------------*        

Positions:
   0 Li     1.617037    1.617037   10.000000    ( 0.0000,  0.0000,  0.0000)
   1 Li     4.851111    1.617037   10.000000    ( 0.0000,  0.0000,  0.0000)
   2 Li     8.085185    1.617037   10.000000    ( 0.0000,  0.0000,  0.0000)
   3 Li     1.617037    4.851111   10.000000    ( 0.0000,  0.0000,  0.0000)
   4 Li     4.851111    4.851111   10.000000    ( 0.0000,  0.0000,  0.0000)
   5 Li     8.085185    4.851111   10.000000    ( 0.0000,  0.0000,  0.0000)
   6 Li     1.617037    8.085185   10.000000    ( 0.0000,  0.0000,  0.0000)
   7 Li     4.851111    8.085185   10.000000    ( 0.0000,  0.0000,  0.0000)
   8 Li     8.085185    8.085185   10.000000    ( 0.0000,  0.0000,  0.0000)
   9 Li     0.000000    0.000000   11.617037    ( 0.0000,  0.0000,  0.0000)
  10 Li     3.234074    0.000000   11.617037    ( 0.0000,  0.0000,  0.0000)
  11 Li     6.468148    0.000000   11.617037    ( 0.0000,  0.0000,  0.0000)
  12 Li     0.000000    3.234074   11.617037    ( 0.0000,  0.0000,  0.0000)
  13 Li     3.234074    3.234074   11.617037    ( 0.0000,  0.0000,  0.0000)
  14 Li     6.468148    3.234074   11.617037    ( 0.0000,  0.0000,  0.0000)
  15 Li     0.000000    6.468148   11.617037    ( 0.0000,  0.0000,  0.0000)
  16 Li     3.234074    6.468148   11.617037    ( 0.0000,  0.0000,  0.0000)
  17 Li     6.468148    6.468148   11.617037    ( 0.0000,  0.0000,  0.0000)
  18 Li     1.595739    1.594609   13.520897    ( 0.0000,  0.0000,  0.0000)
  19 Li     4.878845    1.669993   13.526880    ( 0.0000,  0.0000,  0.0000)
  20 Li     8.081485    1.616035   13.580397    ( 0.0000,  0.0000,  0.0000)
  21 Li     1.537811    4.787177   13.515706    ( 0.0000,  0.0000,  0.0000)
  22 Li     4.813063    4.878535   13.504270    ( 0.0000,  0.0000,  0.0000)
  23 Li     8.033680    4.829106   13.530020    ( 0.0000,  0.0000,  0.0000)
  24 Li     1.653968    8.047065   13.481985    ( 0.0000,  0.0000,  0.0000)
  25 Li     4.911171    8.142454   13.493476    ( 0.0000,  0.0000,  0.0000)
  26 Li     8.126085    8.102817   13.520181    ( 0.0000,  0.0000,  0.0000)
  27 Li     0.151144   -0.117668   15.486921    ( 0.0000,  0.0000,  0.0000)
  28 Li     3.370356   -0.044893   15.434238    ( 0.0000,  0.0000,  0.0000)
  29 Li     6.672468    0.176911   15.593238    ( 0.0000,  0.0000,  0.0000)
  30 Li    -0.307560    2.978170   15.692525    ( 0.0000,  0.0000,  0.0000)
  31 Li     3.083750    3.281245   15.463727    ( 0.0000,  0.0000,  0.0000)
  32 Li     6.316291    3.364731   15.555937    ( 0.0000,  0.0000,  0.0000)
  33 Li     0.047075    6.350196   15.456710    ( 0.0000,  0.0000,  0.0000)
  34 Li     3.243223    6.476156   15.445226    ( 0.0000,  0.0000,  0.0000)
  35 Li     6.420070    6.599524   15.450845    ( 0.0000,  0.0000,  0.0000)
  36 O      7.890367    2.546141   19.227819    ( 0.0000,  0.0000,  0.0000)
  37 C      8.019822    1.224799   19.777350    ( 0.0000,  0.0000,  0.0000)
  38 C      8.194374    1.224692   21.291555    ( 0.0000,  0.0000,  0.0000)
  39 H      7.159208    0.607475   19.488425    ( 0.0000,  0.0000,  0.0000)
  40 H      8.899993    0.803647   19.287259    ( 0.0000,  0.0000,  0.0000)
  41 H      8.351973    0.205951   21.656220    ( 0.0000,  0.0000,  0.0000)
  42 H      9.054635    1.831588   21.579444    ( 0.0000,  0.0000,  0.0000)
  43 H      7.307620    1.625618   21.791392    ( 0.0000,  0.0000,  0.0000)
  44 H      7.057935    2.920518   19.540449    ( 0.0000,  0.0000,  0.0000)
  45 N      8.265175    0.047772   15.529379    ( 0.0000,  0.0000,  0.0000)
  46 N      6.512963    1.772912   15.563117    ( 0.0000,  0.0000,  0.0000)

Unit cell:
           periodic     x           y           z      points  spacing
  1. axis:    yes    9.702222    0.000000    0.000000    60     0.1617
  2. axis:    yes    0.000000    9.702222    0.000000    60     0.1617
  3. axis:    no     0.000000    0.000000   24.851111   156     0.1593

  Lengths:   9.702222   9.702222  24.851111
  Angles:   90.000000  90.000000  90.000000

Effective grid spacing dv^(1/3) = 0.1609

     iter     time        total  log10-change:
                         energy  eigst   dens
iter:   1 18:14:51  -303.935020  -0.78
iter:   2 18:18:15  -303.910580  -1.14  -1.67
iter:   3 18:22:19  -303.881651  -1.96  -1.81
iter:   4 18:27:15  -303.880431c -2.29  -2.28
Writing to output.gpw (mode='')

iter:   5 18:32:14  -303.877317c -1.85  -2.35
iter:   6 18:35:44  -303.876950c -2.41  -2.45
iter:   7 18:40:00  -303.876078c -2.54  -2.55
iter:   8 18:43:57  -303.876176c -2.96  -2.75
iter:   9 18:48:52  -303.876176c -3.19  -2.77
Writing to output.gpw (mode='')

iter:  10 18:52:54  -303.876200c -3.15  -2.92
iter:  11 18:56:29  -303.876180c -3.73  -2.98
iter:  12 19:00:00  -303.876220c -3.70  -3.10
iter:  13 19:03:06  -303.876212c -3.93  -3.16
iter:  14 19:06:41  -303.876248c -4.03  -3.33
Writing to output.gpw (mode='')

iter:  15 19:14:15  -303.876265c -4.17  -3.41
iter:  16 19:19:11  -303.876263c -4.45  -3.45
iter:  17 19:24:07  -303.876246c -4.59  -3.52
iter:  18 19:27:14  -303.876249c -4.91  -3.70
iter:  19 19:33:28  -303.876247c -4.96  -3.76
Writing to output.gpw (mode='')

iter:  20 19:39:35  -303.876247c -5.03  -3.90
iter:  21 19:44:02  -303.876246c -5.26  -4.14c
iter:  22 19:47:31  -303.876247c -5.61  -4.19c
iter:  23 19:53:12  -303.876248c -5.76  -4.21c
iter:  24 20:00:34  -303.876249c -5.87  -4.29c
Writing to output.gpw (mode='')

iter:  25 20:06:07  -303.876247c -6.03  -4.49c
iter:  26 20:13:24  -303.876248c -6.22  -4.58c
iter:  27 20:18:44  -303.876248c -6.33  -4.56c
iter:  28 20:21:11  -303.876248c -6.44  -4.56c
iter:  29 20:24:13  -303.876248c -6.38  -4.63c
Writing to output.gpw (mode='')

iter:  30 20:26:42  -303.876248c -6.61  -4.81c
iter:  31 20:31:56  -303.876248c -6.72  -4.81c
iter:  32 20:36:59  -303.876248c -6.84  -4.82c
iter:  33 20:41:03  -303.876248c -7.05  -4.81c
iter:  34 20:49:13  -303.876248c -7.18  -4.80c
Writing to output.gpw (mode='')

iter:  35 20:59:56  -303.876248c -7.09  -4.80c
iter:  36 21:05:46  -303.876248c -7.24  -4.78c
iter:  37 21:11:58  -303.876248c -7.29  -4.79c
iter:  38 21:19:30  -303.876248c -7.22  -4.80c
iter:  39 21:25:05  -303.876249c -7.13  -4.92c
Writing to output.gpw (mode='')

iter:  40 21:32:57  -303.876249c -7.70c -5.05c

Converged after 40 iterations.

Dipole moment: (-1.891147, -13.700993, 0.077604) |e|*Ang

Energy contributions relative to reference atoms: (reference = -14434.854043)

Kinetic:       +157.013279
Potential:     -144.107943
External:        +0.000000
XC:            -317.480746
Entropy (-ST):   -0.183285
Local:           +0.790804
--------------------------
Free energy:   -303.967891
Extrapolated:  -303.876249

Dipole-layer corrected work functions: 3.450049, 3.300868 eV

Showing only first 2 kpts
 Kpt  Band  Eigenvalues  Occupancy
  0    31     -3.54708    1.93740
  0    32     -3.47550    1.76176
  0    33     -3.33406    0.60813
  0    34     -3.22280    0.09016

  1    31     -3.58820    1.97200
  1    32     -3.41288    1.35770
  1    33     -3.34004    0.65996
  1    34     -3.26567    0.20025


Fermi level: -3.37546

No gap

Forces in eV/Ang:
  0 Li   -0.00038    0.00443   -0.29248
  1 Li   -0.00339    0.00159   -0.27612
  2 Li    0.00799    0.00915   -0.24445
  3 Li   -0.00075   -0.00194   -0.29639
  4 Li   -0.00856    0.01114   -0.28082
  5 Li    0.00274   -0.00085   -0.29335
  6 Li    0.01281   -0.01080   -0.27941
  7 Li   -0.00941   -0.00997   -0.27085
  8 Li    0.00017   -0.00410   -0.27598
  9 Li   -0.00948    0.03077    0.25603
 10 Li    0.02026    0.04666    0.32458
 11 Li   -0.00960   -0.00484    0.15568
 12 Li   -0.06258   -0.05007    0.23801
 13 Li   -0.00062    0.00320    0.30600
 14 Li    0.02904   -0.00701    0.24223
 15 Li   -0.00932   -0.00462    0.30611
 16 Li   -0.02510   -0.03798    0.25540
 17 Li    0.03559    0.01559    0.31904
 18 Li    0.03388    0.04059   -0.03310
 19 Li    0.44667    0.02852    0.55644
 20 Li   -0.45073   -0.47308    1.03892
 21 Li   -0.02218   -0.02696    0.03346
 22 Li   -0.01610    0.09384   -0.01033
 23 Li    0.05098    0.03331   -0.03227
 24 Li    0.09217   -0.01401    0.00072
 25 Li   -0.12173   -0.12763   -0.12135
 26 Li    0.04649    0.46098    0.55278
 27 Li    3.42103   -0.36655    0.09711
 28 Li    0.05039    0.08325    0.04895
 29 Li   -3.56330   -3.49083    0.43447
 30 Li   -0.31785   -0.32143    0.11439
 31 Li    0.01373   -0.01842    0.02866
 32 Li   -0.40416    3.27633    0.17541
 33 Li   -0.02554    0.02246    0.03458
 34 Li   -0.00071   -0.00021   -0.03197
 35 Li    0.07504    0.03671    0.04334
 36 O     0.04862    0.05678    0.05178
 37 C    -0.01341   -0.00831   -0.04116
 38 C    -0.01283    0.01848   -0.02831
 39 H     0.01389    0.01397   -0.03689
 40 H    -0.01436   -0.00757   -0.01528
 41 H    -0.01784   -0.00081   -0.00662
 42 H     0.00043    0.00772    0.00606
 43 H     0.00335    0.00154   -0.00137
 44 H    -0.02575   -0.01625   -0.04312
 45 N     0.24608    0.50493   -1.33876
 46 N     0.48442    0.22582   -1.39926

System changes: positions 

Initializing position-dependent things.

Density initialized from wave functions
       .-----------------------.  
      /|                       |  
     / |                       |  
    /  |                       |  
   /   |                       |  
  /    |                       |  
 *     |                       |  
 |     |                       |  
 |     |                       |  
 |     |            H    H     |  
 |     |              H        |  
 |     |            H O        |  
 |     Li      Li  H  C H      |  
 |     |                       |  
 |   Li|     Li      Li        |  
 |     |  Li      LLi     Li   |  
 |     |   Li             Li   |  
 |     |Li      LiLi    Li     |  
 |     |             N         |  
 |   LLi     LLi     LLi       |  
 |     |  Li      Li      Li   |  
 | Li  |   Li      Li          |  
 |     |Li      Li      Li     |  
 Li    | Li      Li            |  
 |    Li      Li      Li       |  
 |     |                       |  
 |     |                       |  
 |     |                       |  
 |     |                       |  
 |     |                       |  
 |     |                       |  
 |     .-----------------------.  
 |    /                       /   
 |   /                       /    
 |  /                       /     
 | /                       /      
 |/                       /       
 *-----------------------*        

Positions:
   0 Li     1.617037    1.617037   10.000000    ( 0.0000,  0.0000,  0.0000)
   1 Li     4.851111    1.617037   10.000000    ( 0.0000,  0.0000,  0.0000)
   2 Li     8.085185    1.617037   10.000000    ( 0.0000,  0.0000,  0.0000)
   3 Li     1.617037    4.851111   10.000000    ( 0.0000,  0.0000,  0.0000)
   4 Li     4.851111    4.851111   10.000000    ( 0.0000,  0.0000,  0.0000)
   5 Li     8.085185    4.851111   10.000000    ( 0.0000,  0.0000,  0.0000)
   6 Li     1.617037    8.085185   10.000000    ( 0.0000,  0.0000,  0.0000)
   7 Li     4.851111    8.085185   10.000000    ( 0.0000,  0.0000,  0.0000)
   8 Li     8.085185    8.085185   10.000000    ( 0.0000,  0.0000,  0.0000)
   9 Li     0.000000    0.000000   11.617037    ( 0.0000,  0.0000,  0.0000)
  10 Li     3.234074    0.000000   11.617037    ( 0.0000,  0.0000,  0.0000)
  11 Li     6.468148    0.000000   11.617037    ( 0.0000,  0.0000,  0.0000)
  12 Li     0.000000    3.234074   11.617037    ( 0.0000,  0.0000,  0.0000)
  13 Li     3.234074    3.234074   11.617037    ( 0.0000,  0.0000,  0.0000)
  14 Li     6.468148    3.234074   11.617037    ( 0.0000,  0.0000,  0.0000)
  15 Li     0.000000    6.468148   11.617037    ( 0.0000,  0.0000,  0.0000)
  16 Li     3.234074    6.468148   11.617037    ( 0.0000,  0.0000,  0.0000)
  17 Li     6.468148    6.468148   11.617037    ( 0.0000,  0.0000,  0.0000)
  18 Li     1.596048    1.594987   13.520587    ( 0.0000,  0.0000,  0.0000)
  19 Li     4.882866    1.670258   13.531864    ( 0.0000,  0.0000,  0.0000)
  20 Li     8.077427    1.611775   13.589740    ( 0.0000,  0.0000,  0.0000)
  21 Li     1.537616    4.786941   13.516006    ( 0.0000,  0.0000,  0.0000)
  22 Li     4.812892    4.879390   13.504157    ( 0.0000,  0.0000,  0.0000)
  23 Li     8.034147    4.829407   13.529723    ( 0.0000,  0.0000,  0.0000)
  24 Li     1.654811    8.046909   13.481966    ( 0.0000,  0.0000,  0.0000)
  25 Li     4.910054    8.141284   13.492375    ( 0.0000,  0.0000,  0.0000)
  26 Li     8.126512    8.106965   13.525131    ( 0.0000,  0.0000,  0.0000)
  27 Li     0.177528   -0.120449   15.488054    ( 0.0000,  0.0000,  0.0000)
  28 Li     3.370794   -0.044181   15.434651    ( 0.0000,  0.0000,  0.0000)
  29 Li     6.644210    0.148879   15.597205    ( 0.0000,  0.0000,  0.0000)
  30 Li    -0.310447    2.975250   15.693544    ( 0.0000,  0.0000,  0.0000)
  31 Li     3.083844    3.281089   15.463978    ( 0.0000,  0.0000,  0.0000)
  32 Li     6.313226    3.390054   15.557667    ( 0.0000,  0.0000,  0.0000)
  33 Li     0.046857    6.350368   15.457014    ( 0.0000,  0.0000,  0.0000)
  34 Li     3.243249    6.476186   15.444956    ( 0.0000,  0.0000,  0.0000)
  35 Li     6.420707    6.599833   15.451207    ( 0.0000,  0.0000,  0.0000)
  36 O      7.890772    2.546601   19.228269    ( 0.0000,  0.0000,  0.0000)
  37 C      8.019806    1.224880   19.777097    ( 0.0000,  0.0000,  0.0000)
  38 C      8.194295    1.224741   21.291308    ( 0.0000,  0.0000,  0.0000)
  39 H      7.159238    0.607552   19.488060    ( 0.0000,  0.0000,  0.0000)
  40 H      8.899887    0.803569   19.287103    ( 0.0000,  0.0000,  0.0000)
  41 H      8.351805    0.206008   21.656141    ( 0.0000,  0.0000,  0.0000)
  42 H      9.054622    1.831650   21.579474    ( 0.0000,  0.0000,  0.0000)
  43 H      7.307623    1.625649   21.791381    ( 0.0000,  0.0000,  0.0000)
  44 H      7.057722    2.920373   19.540056    ( 0.0000,  0.0000,  0.0000)
  45 N      8.267033    0.053021   15.517113    ( 0.0000,  0.0000,  0.0000)
  46 N      6.518085    1.774756   15.550330    ( 0.0000,  0.0000,  0.0000)

Unit cell:
           periodic     x           y           z      points  spacing
  1. axis:    yes    9.702222    0.000000    0.000000    60     0.1617
  2. axis:    yes    0.000000    9.702222    0.000000    60     0.1617
  3. axis:    no     0.000000    0.000000   24.851111   156     0.1593

  Lengths:   9.702222   9.702222  24.851111
  Angles:   90.000000  90.000000  90.000000

Effective grid spacing dv^(1/3) = 0.1609

     iter     time        total  log10-change:
                         energy  eigst   dens
iter:   1 21:39:51  -304.347291  -0.82
iter:   2 21:45:38  -304.320028  -1.20  -1.69
iter:   3 21:53:31  -304.296890  -2.01  -1.85
iter:   4 22:01:10  -304.295621c -2.34  -2.28
Writing to output.gpw (mode='')

iter:   5 22:07:52  -304.292312c -1.83  -2.35
iter:   6 22:12:57  -304.292061c -2.37  -2.44
iter:   7 22:17:59  -304.291041c -2.56  -2.53
iter:   8 22:25:10  -304.291136c -2.90  -2.77
iter:   9 22:31:58  -304.291082c -3.21  -2.80
Writing to output.gpw (mode='')

iter:  10 22:38:06  -304.291092c -3.15  -3.00
iter:  11 22:44:22  -304.291069c -3.81  -3.08
iter:  12 22:50:12  -304.291110c -3.96  -3.17
iter:  13 22:54:28  -304.291125c -4.00  -3.22
iter:  14 22:58:52  -304.291166c -4.20  -3.38
Writing to output.gpw (mode='')

iter:  15 23:04:50  -304.291162c -4.34  -3.44
iter:  16 23:09:53  -304.291152c -4.43  -3.51
iter:  17 23:15:23  -304.291153c -4.66  -3.68
iter:  18 23:21:35  -304.291156c -4.83  -3.94
iter:  19 23:26:45  -304.291158c -5.03  -3.98
Writing to output.gpw (mode='')

iter:  20 23:31:57  -304.291157c -5.17  -4.07c
iter:  21 23:37:21  -304.291154c -5.49  -4.20c
iter:  22 23:44:40  -304.291154c -5.70  -4.40c
iter:  23 23:50:00  -304.291155c -5.84  -4.44c
iter:  24 23:54:28  -304.291155c -5.92  -4.46c
Writing to output.gpw (mode='')

iter:  25 23:57:41  -304.291156c -5.97  -4.62c
iter:  26 00:00:59  -304.291156c -6.26  -4.79c
iter:  27 00:04:18  -304.291156c -6.43  -4.80c
iter:  28 00:07:03  -304.291156c -6.23  -4.78c
iter:  29 00:10:28  -304.291156c -6.55  -4.77c
Writing to output.gpw (mode='')

iter:  30 00:13:58  -304.291156c -6.80  -4.75c
iter:  31 00:16:58  -304.291156c -6.59  -4.73c
iter:  32 00:19:45  -304.291156c -6.85  -4.71c
iter:  33 00:22:49  -304.291156c -6.98  -4.70c
iter:  34 00:28:14  -304.291156c -7.28  -4.70c
Writing to output.gpw (mode='')

iter:  35 00:32:44  -304.291156c -7.27  -4.69c
iter:  36 00:37:05  -304.291156c -6.97  -4.71c
iter:  37 00:41:40  -304.291156c -7.15  -4.61c
iter:  38 00:46:42  -304.291156c -7.58c -4.68c

Converged after 38 iterations.

Dipole moment: (-2.083917, -13.856955, 0.082741) |e|*Ang

Energy contributions relative to reference atoms: (reference = -14434.854043)

Kinetic:       +153.721859
Potential:     -141.825767
External:        +0.000000
XC:            -316.878764
Entropy (-ST):   -0.181883
Local:           +0.782457
--------------------------
Free energy:   -304.382098
Extrapolated:  -304.291156

Dipole-layer corrected work functions: 3.449241, 3.290184 eV

Showing only first 2 kpts
 Kpt  Band  Eigenvalues  Occupancy
  0    31     -3.54130    1.93736
  0    32     -3.46834    1.75576
  0    33     -3.32883    0.61249
  0    34     -3.21689    0.08988

  1    31     -3.58615    1.97398
  1    32     -3.40891    1.37307
  1    33     -3.33219    0.64143
  1    34     -3.25994    0.20031


Fermi level: -3.36971

No gap
Writing to output.gpw (mode='')


Forces in eV/Ang:
  0 Li   -0.00040    0.00438   -0.29302
  1 Li   -0.00362    0.00152   -0.27616
  2 Li    0.00842    0.00955   -0.24463
  3 Li   -0.00089   -0.00206   -0.29659
  4 Li   -0.00803    0.01192   -0.28020
  5 Li    0.00272   -0.00089   -0.29386
  6 Li    0.01357   -0.01022   -0.27883
  7 Li   -0.00985   -0.01033   -0.27129
  8 Li    0.00014   -0.00428   -0.27606
  9 Li   -0.01025    0.03117    0.25802
 10 Li    0.02153    0.04836    0.32528
 11 Li   -0.00991   -0.00514    0.15831
 12 Li   -0.06414   -0.05162    0.23995
 13 Li    0.00074    0.00202    0.30785
 14 Li    0.02954   -0.00787    0.24420
 15 Li   -0.01044   -0.00319    0.30801
 16 Li   -0.02642   -0.03930    0.25332
 17 Li    0.03736    0.01699    0.31987
 18 Li    0.03426    0.04184   -0.03417
 19 Li    0.45007    0.02920    0.55479
 20 Li   -0.45347   -0.47583    1.04252
 21 Li   -0.02116   -0.02570    0.03349
 22 Li   -0.02001    0.09516   -0.01324
 23 Li    0.05170    0.03338   -0.03261
 24 Li    0.09406   -0.01842   -0.00286
 25 Li   -0.12489   -0.13077   -0.12193
 26 Li    0.04715    0.46396    0.55077
 27 Li    2.86153   -0.30304    0.13346
 28 Li    0.04701    0.07646    0.04424
 29 Li   -3.04237   -3.00090    0.44355
 30 Li   -0.32427   -0.32788    0.11248
 31 Li    0.00822   -0.01631    0.02734
 32 Li   -0.33341    2.74564    0.19732
 33 Li   -0.02328    0.01681    0.03322
 34 Li    0.00456    0.00505   -0.02913
 35 Li    0.06820    0.03232    0.03855
 36 O     0.04566    0.05317    0.04852
 37 C    -0.01115   -0.00415   -0.03569
 38 C    -0.01102    0.01722   -0.02306
 39 H     0.01166    0.01531   -0.03720
 40 H    -0.01188   -0.00672   -0.01630
 41 H    -0.01740   -0.00039   -0.00736
 42 H    -0.00255    0.00525    0.00318
 43 H     0.00345    0.00161   -0.00345
 44 H    -0.02426   -0.01541   -0.04318
 45 N     0.11327    0.59063   -1.33572
 46 N     0.55753    0.14766   -1.42706

System changes: positions 

Initializing position-dependent things.

Density initialized from wave functions
       .-----------------------.  
      /|                       |  
     / |                       |  
    /  |                       |  
   /   |                       |  
  /    |                       |  
 *     |                       |  
 |     |                       |  
 |     |                       |  
 |     |            H    H     |  
 |     |              H        |  
 |     |            H O        |  
 |     Li      Li  H  C H      |  
 |     |                       |  
 |   Li|     Li      Li        |  
 |     |  Li      LLi     Li   |  
 |     |   Li             Li   |  
 |     |Li      LLi     Li     |  
 |     |             N         |  
 |   LLi     LLi     LLi       |  
 |     |  Li      Li      Li   |  
 | Li  |   Li      Li          |  
 |     |Li      Li      Li     |  
 Li    | Li      Li            |  
 |    Li      Li      Li       |  
 |     |                       |  
 |     |                       |  
 |     |                       |  
 |     |                       |  
 |     |                       |  
 |     |                       |  
 |     .-----------------------.  
 |    /                       /   
 |   /                       /    
 |  /                       /     
 | /                       /      
 |/                       /       
 *-----------------------*        

Positions:
   0 Li     1.617037    1.617037   10.000000    ( 0.0000,  0.0000,  0.0000)
   1 Li     4.851111    1.617037   10.000000    ( 0.0000,  0.0000,  0.0000)
   2 Li     8.085185    1.617037   10.000000    ( 0.0000,  0.0000,  0.0000)
   3 Li     1.617037    4.851111   10.000000    ( 0.0000,  0.0000,  0.0000)
   4 Li     4.851111    4.851111   10.000000    ( 0.0000,  0.0000,  0.0000)
   5 Li     8.085185    4.851111   10.000000    ( 0.0000,  0.0000,  0.0000)
   6 Li     1.617037    8.085185   10.000000    ( 0.0000,  0.0000,  0.0000)
   7 Li     4.851111    8.085185   10.000000    ( 0.0000,  0.0000,  0.0000)
   8 Li     8.085185    8.085185   10.000000    ( 0.0000,  0.0000,  0.0000)
   9 Li     0.000000    0.000000   11.617037    ( 0.0000,  0.0000,  0.0000)
  10 Li     3.234074    0.000000   11.617037    ( 0.0000,  0.0000,  0.0000)
  11 Li     6.468148    0.000000   11.617037    ( 0.0000,  0.0000,  0.0000)
  12 Li     0.000000    3.234074   11.617037    ( 0.0000,  0.0000,  0.0000)
  13 Li     3.234074    3.234074   11.617037    ( 0.0000,  0.0000,  0.0000)
  14 Li     6.468148    3.234074   11.617037    ( 0.0000,  0.0000,  0.0000)
  15 Li     0.000000    6.468148   11.617037    ( 0.0000,  0.0000,  0.0000)
  16 Li     3.234074    6.468148   11.617037    ( 0.0000,  0.0000,  0.0000)
  17 Li     6.468148    6.468148   11.617037    ( 0.0000,  0.0000,  0.0000)
  18 Li     1.596434    1.595469   13.520191    ( 0.0000,  0.0000,  0.0000)
  19 Li     4.887896    1.670594   13.538015    ( 0.0000,  0.0000,  0.0000)
  20 Li     8.072362    1.606460   13.601363    ( 0.0000,  0.0000,  0.0000)
  21 Li     1.537390    4.786667   13.516378    ( 0.0000,  0.0000,  0.0000)
  22 Li     4.812628    4.880465   13.503977    ( 0.0000,  0.0000,  0.0000)
  23 Li     8.034733    4.829781   13.529352    ( 0.0000,  0.0000,  0.0000)
  24 Li     1.655880    8.046656   13.481894    ( 0.0000,  0.0000,  0.0000)
  25 Li     4.908629    8.139794   13.491007    ( 0.0000,  0.0000,  0.0000)
  26 Li     8.127048    8.112147   13.531235    ( 0.0000,  0.0000,  0.0000)
  27 Li     0.202824   -0.123062   15.489943    ( 0.0000,  0.0000,  0.0000)
  28 Li     3.371287   -0.043395   15.435097    ( 0.0000,  0.0000,  0.0000)
  29 Li     6.616185    0.120786   15.602238    ( 0.0000,  0.0000,  0.0000)
  30 Li    -0.314113    2.971542   15.694779    ( 0.0000,  0.0000,  0.0000)
  31 Li     3.083883    3.280926   15.464270    ( 0.0000,  0.0000,  0.0000)
  32 Li     6.310357    3.414411   15.560104    ( 0.0000,  0.0000,  0.0000)
  33 Li     0.046618    6.350502   15.457371    ( 0.0000,  0.0000,  0.0000)
  34 Li     3.243353    6.476295   15.444660    ( 0.0000,  0.0000,  0.0000)
  35 Li     6.421401    6.600153   15.451589    ( 0.0000,  0.0000,  0.0000)
  36 O      7.891237    2.547131   19.228780    ( 0.0000,  0.0000,  0.0000)
  37 C      8.019787    1.224994   19.776831    ( 0.0000,  0.0000,  0.0000)
  38 C      8.194213    1.224820   21.291084    ( 0.0000,  0.0000,  0.0000)
  39 H      7.159272    0.607685   19.487615    ( 0.0000,  0.0000,  0.0000)
  40 H      8.899787    0.803489   19.286900    ( 0.0000,  0.0000,  0.0000)
  41 H      8.351607    0.206063   21.656038    ( 0.0000,  0.0000,  0.0000)
  42 H      9.054565    1.831691   21.579473    ( 0.0000,  0.0000,  0.0000)
  43 H      7.307638    1.625683   21.791334    ( 0.0000,  0.0000,  0.0000)
  44 H      7.057475    2.920205   19.539571    ( 0.0000,  0.0000,  0.0000)
  45 N      8.267356    0.060635   15.502052    ( 0.0000,  0.0000,  0.0000)
  46 N      6.525323    1.775868   15.534129    ( 0.0000,  0.0000,  0.0000)

Unit cell:
           periodic     x           y           z      points  spacing
  1. axis:    yes    9.702222    0.000000    0.000000    60     0.1617
  2. axis:    yes    0.000000    9.702222    0.000000    60     0.1617
  3. axis:    no     0.000000    0.000000   24.851111   156     0.1593

  Lengths:   9.702222   9.702222  24.851111
  Angles:   90.000000  90.000000  90.000000

Effective grid spacing dv^(1/3) = 0.1609

     iter     time        total  log10-change:
                         energy  eigst   dens
iter:   1 00:52:51  -304.722477  -0.83
iter:   2 00:58:39  -304.690900  -1.24  -1.70
iter:   3 01:04:59  -304.671276  -2.02  -1.87
iter:   4 01:11:40  -304.669905c -2.34  -2.27
Writing to output.gpw (mode='')

iter:   5 01:16:02  -304.666024c -1.82  -2.34
iter:   6 01:23:45  -304.665877c -2.27  -2.44
iter:   7 01:28:18  -304.664826c -2.60  -2.53
iter:   8 01:32:26  -304.664887c -2.87  -2.79
iter:   9 01:37:12  -304.664733c -3.20  -2.82
Writing to output.gpw (mode='')

iter:  10 01:42:44  -304.664777c -3.14  -3.01
iter:  11 01:46:48  -304.664787c -3.83  -3.08
iter:  12 01:50:17  -304.664814c -4.00  -3.17
iter:  13 01:53:13  -304.664871c -3.96  -3.25
iter:  14 01:56:22  -304.664866c -4.40  -3.32
Writing to output.gpw (mode='')

iter:  15 01:59:19  -304.664869c -4.44  -3.37
iter:  16 02:02:05  -304.664853c -4.44  -3.44
iter:  17 02:04:55  -304.664860c -4.69  -3.56
iter:  18 02:07:44  -304.664854c -4.56  -3.58
iter:  19 02:10:44  -304.664855c -5.17  -3.66
Writing to output.gpw (mode='')

iter:  20 02:13:27  -304.664855c -4.99  -3.77
iter:  21 02:15:47  -304.664857c -5.50  -3.92
iter:  22 02:18:05  -304.664857c -5.45  -3.98
iter:  23 02:21:18  -304.664862c -5.33  -4.08c
iter:  24 02:23:59  -304.664861c -5.82  -4.32c
Writing to output.gpw (mode='')

iter:  25 02:27:48  -304.664862c -5.82  -4.46c
iter:  26 02:30:36  -304.664862c -6.00  -4.48c
iter:  27 02:33:53  -304.664861c -6.19  -4.57c
iter:  28 02:37:17  -304.664861c -6.36  -4.70c
iter:  29 02:39:32  -304.664861c -6.42  -4.83c
Writing to output.gpw (mode='')

iter:  30 02:41:47  -304.664861c -6.65  -4.93c
iter:  31 02:43:59  -304.664861c -6.81  -5.07c
iter:  32 02:46:26  -304.664861c -7.04  -5.09c
iter:  33 02:48:36  -304.664861c -7.10  -5.19c
iter:  34 02:51:30  -304.664861c -7.25  -5.37c
Writing to output.gpw (mode='')

iter:  35 02:54:32  -304.664861c -7.33  -5.42c
iter:  36 02:57:33  -304.664861c -7.46c -5.42c

Converged after 36 iterations.

Dipole moment: (-2.227875, -14.119051, 0.089338) |e|*Ang

Energy contributions relative to reference atoms: (reference = -14434.854043)

Kinetic:       +150.672999
Potential:     -139.702599
External:        +0.000000
XC:            -316.319290
Entropy (-ST):   -0.180318
Local:           +0.774188
--------------------------
Free energy:   -304.755020
Extrapolated:  -304.664861

Dipole-layer corrected work functions: 3.447921, 3.276182 eV

Showing only first 2 kpts
 Kpt  Band  Eigenvalues  Occupancy
  0    31     -3.53374    1.93749
  0    32     -3.45921    1.74939
  0    33     -3.32122    0.61298
  0    34     -3.20884    0.08922

  1    31     -3.58248    1.97595
  1    32     -3.40429    1.39890
  1    33     -3.32254    0.62427
  1    34     -3.25171    0.19829


Fermi level: -3.36205

No gap
Writing to output.gpw (mode='')


Forces in eV/Ang:
  0 Li   -0.00058    0.00431   -0.29346
  1 Li   -0.00387    0.00142   -0.27603
  2 Li    0.00894    0.01004   -0.24476
  3 Li   -0.00117   -0.00234   -0.29638
  4 Li   -0.00731    0.01268   -0.27928
  5 Li    0.00270   -0.00107   -0.29421
  6 Li    0.01431   -0.00946   -0.27795
  7 Li   -0.01035   -0.01074   -0.27140
  8 Li    0.00006   -0.00446   -0.27599
  9 Li   -0.01120    0.03188    0.26029
 10 Li    0.02297    0.05049    0.32615
 11 Li   -0.00999   -0.00521    0.16126
 12 Li   -0.06609   -0.05361    0.24218
 13 Li    0.00242    0.00029    0.31023
 14 Li    0.03036   -0.00900    0.24658
 15 Li   -0.01211   -0.00142    0.31047
 16 Li   -0.02760   -0.04051    0.25124
 17 Li    0.03956    0.01852    0.32086
 18 Li    0.03445    0.04255   -0.03466
 19 Li    0.45452    0.02900    0.55239
 20 Li   -0.45630   -0.47796    1.04362
 21 Li   -0.01998   -0.02425    0.03339
 22 Li   -0.02388    0.09606   -0.01605
 23 Li    0.05190    0.03323   -0.03235
 24 Li    0.09563   -0.02276   -0.00634
 25 Li   -0.12721   -0.13312   -0.12141
 26 Li    0.04665    0.46739    0.54756
 27 Li    2.34431   -0.24473    0.16481
 28 Li    0.04293    0.06868    0.03922
 29 Li   -2.58077   -2.54394    0.44872
 30 Li   -0.33100   -0.33454    0.10970
 31 Li    0.00174   -0.01372    0.02598
 32 Li   -0.26919    2.26213    0.21615
 33 Li   -0.02047    0.00988    0.03176
 34 Li    0.00992    0.01044   -0.02567
 35 Li    0.06040    0.02731    0.03347
 36 O     0.04263    0.04904    0.04458
 37 C    -0.00761   -0.00062   -0.02995
 38 C    -0.01011    0.01334   -0.02002
 39 H     0.00934    0.01684   -0.03714
 40 H    -0.01011   -0.00518   -0.01640
 41 H    -0.01694    0.00058   -0.00809
 42 H    -0.00390    0.00396    0.00094
 43 H     0.00260    0.00223   -0.00493
 44 H    -0.02252   -0.01433   -0.04308
 45 N     0.01382    0.67151   -1.34980
 46 N     0.63481    0.07049   -1.45560

System changes: positions 

Initializing position-dependent things.

Density initialized from wave functions
       .-----------------------.  
      /|                       |  
     / |                       |  
    /  |                       |  
   /   |                       |  
  /    |                       |  
 *     |                       |  
 |     |                       |  
 |     |                       |  
 |     |            H    H     |  
 |     |              H        |  
 |     |            H O        |  
 |     Li      Li  H  C H      |  
 |     |                       |  
 |   Li|     Li      Li        |  
 |     |  Li      LLi     Li   |  
 |     |   Li             Li   |  
 |     |Li      LLi     Li     |  
 |     |             N         |  
 |   LLi     LLi     LLi       |  
 |     |  Li      Li      Li   |  
 | Li  |   Li      Li          |  
 |     |Li      Li      Li     |  
 Li    | Li      Li            |  
 |    Li      Li      Li       |  
 |     |                       |  
 |     |                       |  
 |     |                       |  
 |     |                       |  
 |     |                       |  
 |     |                       |  
 |     .-----------------------.  
 |    /                       /   
 |   /                       /    
 |  /                       /     
 | /                       /      
 |/                       /       
 *-----------------------*        

Positions:
   0 Li     1.617037    1.617037   10.000000    ( 0.0000,  0.0000,  0.0000)
   1 Li     4.851111    1.617037   10.000000    ( 0.0000,  0.0000,  0.0000)
   2 Li     8.085185    1.617037   10.000000    ( 0.0000,  0.0000,  0.0000)
   3 Li     1.617037    4.851111   10.000000    ( 0.0000,  0.0000,  0.0000)
   4 Li     4.851111    4.851111   10.000000    ( 0.0000,  0.0000,  0.0000)
   5 Li     8.085185    4.851111   10.000000    ( 0.0000,  0.0000,  0.0000)
   6 Li     1.617037    8.085185   10.000000    ( 0.0000,  0.0000,  0.0000)
   7 Li     4.851111    8.085185   10.000000    ( 0.0000,  0.0000,  0.0000)
   8 Li     8.085185    8.085185   10.000000    ( 0.0000,  0.0000,  0.0000)
   9 Li     0.000000    0.000000   11.617037    ( 0.0000,  0.0000,  0.0000)
  10 Li     3.234074    0.000000   11.617037    ( 0.0000,  0.0000,  0.0000)
  11 Li     6.468148    0.000000   11.617037    ( 0.0000,  0.0000,  0.0000)
  12 Li     0.000000    3.234074   11.617037    ( 0.0000,  0.0000,  0.0000)
  13 Li     3.234074    3.234074   11.617037    ( 0.0000,  0.0000,  0.0000)
  14 Li     6.468148    3.234074   11.617037    ( 0.0000,  0.0000,  0.0000)
  15 Li     0.000000    6.468148   11.617037    ( 0.0000,  0.0000,  0.0000)
  16 Li     3.234074    6.468148   11.617037    ( 0.0000,  0.0000,  0.0000)
  17 Li     6.468148    6.468148   11.617037    ( 0.0000,  0.0000,  0.0000)
  18 Li     1.596896    1.596049   13.519716    ( 0.0000,  0.0000,  0.0000)
  19 Li     4.893945    1.670987   13.545305    ( 0.0000,  0.0000,  0.0000)
  20 Li     8.066295    1.600106   13.615207    ( 0.0000,  0.0000,  0.0000)
  21 Li     1.537136    4.786359   13.516820    ( 0.0000,  0.0000,  0.0000)
  22 Li     4.812265    4.881754   13.503729    ( 0.0000,  0.0000,  0.0000)
  23 Li     8.035430    4.830223   13.528917    ( 0.0000,  0.0000,  0.0000)
  24 Li     1.657169    8.046303   13.481767    ( 0.0000,  0.0000,  0.0000)
  25 Li     4.906907    8.137995   13.489390    ( 0.0000,  0.0000,  0.0000)
  26 Li     8.127674    8.118361   13.538457    ( 0.0000,  0.0000,  0.0000)
  27 Li     0.226891   -0.125497   15.492555    ( 0.0000,  0.0000,  0.0000)
  28 Li     3.371820   -0.042561   15.435563    ( 0.0000,  0.0000,  0.0000)
  29 Li     6.588220    0.092831   15.608279    ( 0.0000,  0.0000,  0.0000)
  30 Li    -0.318563    2.967044   15.696210    ( 0.0000,  0.0000,  0.0000)
  31 Li     3.083844    3.280767   15.464600    ( 0.0000,  0.0000,  0.0000)
  32 Li     6.307685    3.437778   15.563223    ( 0.0000,  0.0000,  0.0000)
  33 Li     0.046371    6.350569   15.457777    ( 0.0000,  0.0000,  0.0000)
  34 Li     3.243543    6.476492   15.444353    ( 0.0000,  0.0000,  0.0000)
  35 Li     6.422125    6.600468   15.451979    ( 0.0000,  0.0000,  0.0000)
  36 O      7.891757    2.547716   19.229336    ( 0.0000,  0.0000,  0.0000)
  37 C      8.019788    1.225136   19.776564    ( 0.0000,  0.0000,  0.0000)
  38 C      8.194118    1.224887   21.290853    ( 0.0000,  0.0000,  0.0000)
  39 H      7.159305    0.607877   19.487096    ( 0.0000,  0.0000,  0.0000)
  40 H      8.899685    0.803419   19.286664    ( 0.0000,  0.0000,  0.0000)
  41 H      8.351380    0.206126   21.655911    ( 0.0000,  0.0000,  0.0000)
  42 H      9.054484    1.831725   21.579449    ( 0.0000,  0.0000,  0.0000)
  43 H      7.307649    1.625729   21.791258    ( 0.0000,  0.0000,  0.0000)
  44 H      7.057201    2.920022   19.538996    ( 0.0000,  0.0000,  0.0000)
  45 N      8.266487    0.070637   15.483965    ( 0.0000,  0.0000,  0.0000)
  46 N      6.534826    1.776157   15.514501    ( 0.0000,  0.0000,  0.0000)

Unit cell:
           periodic     x           y           z      points  spacing
  1. axis:    yes    9.702222    0.000000    0.000000    60     0.1617
  2. axis:    yes    0.000000    9.702222    0.000000    60     0.1617
  3. axis:    no     0.000000    0.000000   24.851111   156     0.1593

  Lengths:   9.702222   9.702222  24.851111
  Angles:   90.000000  90.000000  90.000000

Effective grid spacing dv^(1/3) = 0.1609

     iter     time        total  log10-change:
                         energy  eigst   dens
iter:   1 03:01:02  -305.062650  -0.84
iter:   2 03:03:32  -305.028892  -1.28  -1.71
iter:   3 03:07:20  -305.013378  -2.02  -1.90
iter:   4 03:10:34  -305.011408c -2.32  -2.25
Writing to output.gpw (mode='')

iter:   5 03:14:41  -305.007072c -1.82  -2.34
iter:   6 03:18:49  -305.006994c -2.16  -2.44
iter:   7 03:21:41  -305.006002c -2.64  -2.53
iter:   8 03:24:40  -305.005991c -2.87  -2.78
iter:   9 03:27:52  -305.005823c -3.24  -2.83
Writing to output.gpw (mode='')

iter:  10 03:31:27  -305.005963c -3.10  -2.98
iter:  11 03:34:12  -305.005877c -3.80  -3.03
iter:  12 03:38:23  -305.005900c -4.01  -3.16
iter:  13 03:45:08  -305.005981c -3.81  -3.25
iter:  14 03:49:34  -305.005962c -4.11  -3.21
Writing to output.gpw (mode='')

iter:  15 03:54:26  -305.005959c -4.20  -3.41
iter:  16 03:59:28  -305.005972c -4.61  -3.49
iter:  17 04:03:18  -305.005961c -4.63  -3.56
iter:  18 04:06:43  -305.005959c -4.48  -3.66
iter:  19 04:12:34  -305.005946c -5.06  -3.75
Writing to output.gpw (mode='')

iter:  20 04:17:28  -305.005943c -5.09  -4.02c
iter:  21 04:22:51  -305.005944c -5.49  -4.11c
iter:  22 04:28:51  -305.005948c -5.57  -4.20c
iter:  23 04:32:48  -305.005947c -5.64  -4.27c
iter:  24 04:36:02  -305.005947c -5.94  -4.35c
Writing to output.gpw (mode='')

iter:  25 04:39:08  -305.005949c -5.92  -4.40c
iter:  26 04:43:19  -305.005949c -6.07  -4.55c
iter:  27 04:47:05  -305.005949c -6.14  -4.63c
iter:  28 04:52:07  -305.005949c -6.51  -4.80c
iter:  29 04:56:44  -305.005949c -6.49  -4.84c
Writing to output.gpw (mode='')

iter:  30 05:01:44  -305.005950c -6.82  -4.93c
iter:  31 05:05:39  -305.005950c -6.73  -4.99c
iter:  32 05:10:04  -305.005950c -6.92  -5.11c
iter:  33 05:13:35  -305.005950c -7.07  -5.26c
iter:  34 05:19:35  -305.005950c -7.11  -5.35c
Writing to output.gpw (mode='')

iter:  35 05:25:27  -305.005950c -7.22  -5.36c
iter:  36 05:31:54  -305.005950c -7.29  -5.35c
iter:  37 05:36:16  -305.005950c -7.40  -5.37c
iter:  38 05:39:54  -305.005950c -7.57c -5.64c

Converged after 38 iterations.

Dipole moment: (-2.326742, -14.456496, 0.097266) |e|*Ang

Energy contributions relative to reference atoms: (reference = -14434.854043)

Kinetic:       +147.835685
Potential:     -137.719174
External:        +0.000000
XC:            -315.801629
Entropy (-ST):   -0.178550
Local:           +0.768443
--------------------------
Free energy:   -305.095225
Extrapolated:  -305.005950

Dipole-layer corrected work functions: 3.446409, 3.259430 eV

Showing only first 2 kpts
 Kpt  Band  Eigenvalues  Occupancy
  0    31     -3.52492    1.93786
  0    32     -3.44852    1.74248
  0    33     -3.31161    0.60890
  0    34     -3.19907    0.08814

  1    31     -3.57762    1.97790
  1    32     -3.39950    1.43482
  1    33     -3.31169    0.60960
  1    34     -3.24117    0.19331


Fermi level: -3.35292

No gap
Writing to output.gpw (mode='')


Forces in eV/Ang:
  0 Li   -0.00073    0.00422   -0.29406
  1 Li   -0.00411    0.00128   -0.27604
  2 Li    0.00938    0.01042   -0.24512
  3 Li   -0.00136   -0.00252   -0.29607
  4 Li   -0.00657    0.01346   -0.27840
  5 Li    0.00269   -0.00120   -0.29472
  6 Li    0.01506   -0.00868   -0.27714
  7 Li   -0.01091   -0.01120   -0.27157
  8 Li   -0.00004   -0.00462   -0.27605
  9 Li   -0.01241    0.03275    0.26296
 10 Li    0.02465    0.05293    0.32704
 11 Li   -0.00985   -0.00507    0.16433
 12 Li   -0.06831   -0.05589    0.24474
 13 Li    0.00449   -0.00193    0.31292
 14 Li    0.03132   -0.01043    0.24946
 15 Li   -0.01427    0.00075    0.31323
 16 Li   -0.02866   -0.04161    0.24902
 17 Li    0.04206    0.02027    0.32189
 18 Li    0.03448    0.04255   -0.03438
 19 Li    0.46001    0.02795    0.54893
 20 Li   -0.45851   -0.47876    1.04031
 21 Li   -0.01857   -0.02254    0.03326
 22 Li   -0.02775    0.09648   -0.01859
 23 Li    0.05144    0.03293   -0.03138
 24 Li    0.09671   -0.02702   -0.00951
 25 Li   -0.12881   -0.13476   -0.11962
 26 Li    0.04507    0.47149    0.54305
 27 Li    1.87444   -0.19095    0.18889
 28 Li    0.03768    0.05970    0.03368
 29 Li   -2.15437   -2.11750    0.44527
 30 Li   -0.33834   -0.34174    0.10595
 31 Li   -0.00591   -0.01051    0.02437
 32 Li   -0.20991    1.81976    0.23073
 33 Li   -0.01700    0.00163    0.03003
 34 Li    0.01559    0.01612   -0.02183
 35 Li    0.05146    0.02133    0.02790
 36 O     0.03929    0.04478    0.03961
 37 C    -0.00467    0.00247   -0.02474
 38 C    -0.00915    0.01001   -0.01766
 39 H     0.00717    0.01844   -0.03679
 40 H    -0.00808   -0.00352   -0.01621
 41 H    -0.01632    0.00080   -0.00852
 42 H    -0.00495    0.00274   -0.00112
 43 H     0.00143    0.00290   -0.00629
 44 H    -0.02067   -0.01291   -0.04273
 45 N     0.00032    0.73735   -1.42462
 46 N     0.68781   -0.02413   -1.46176

System changes: positions 

Initializing position-dependent things.

Density initialized from wave functions
       .-----------------------.  
      /|                       |  
     / |                       |  
    /  |                       |  
   /   |                       |  
  /    |                       |  
 *     |                       |  
 |     |                       |  
 |     |                       |  
 |     |            H    H     |  
 |     |              H        |  
 |     |            H O        |  
 |     |Li     Li  H  C H      |  
 |     |                       |  
 |   Li|     Li      Li        |  
 |     |  Li      LLi     Li   |  
 |     |   Li             Li   |  
 |     |Li      LLi     Li     |  
 |     |             N         |  
 |   LLi     LLi     LLi       |  
 |     |  Li      Li      Li   |  
 | Li  |   Li      Li          |  
 |     |Li      Li      Li     |  
 Li    | Li      Li            |  
 |    Li      Li      Li       |  
 |     |                       |  
 |     |                       |  
 |     |                       |  
 |     |                       |  
 |     |                       |  
 |     |                       |  
 |     .-----------------------.  
 |    /                       /   
 |   /                       /    
 |  /                       /     
 | /                       /      
 |/                       /       
 *-----------------------*        

Positions:
   0 Li     1.617037    1.617037   10.000000    ( 0.0000,  0.0000,  0.0000)
   1 Li     4.851111    1.617037   10.000000    ( 0.0000,  0.0000,  0.0000)
   2 Li     8.085185    1.617037   10.000000    ( 0.0000,  0.0000,  0.0000)
   3 Li     1.617037    4.851111   10.000000    ( 0.0000,  0.0000,  0.0000)
   4 Li     4.851111    4.851111   10.000000    ( 0.0000,  0.0000,  0.0000)
   5 Li     8.085185    4.851111   10.000000    ( 0.0000,  0.0000,  0.0000)
   6 Li     1.617037    8.085185   10.000000    ( 0.0000,  0.0000,  0.0000)
   7 Li     4.851111    8.085185   10.000000    ( 0.0000,  0.0000,  0.0000)
   8 Li     8.085185    8.085185   10.000000    ( 0.0000,  0.0000,  0.0000)
   9 Li     0.000000    0.000000   11.617037    ( 0.0000,  0.0000,  0.0000)
  10 Li     3.234074    0.000000   11.617037    ( 0.0000,  0.0000,  0.0000)
  11 Li     6.468148    0.000000   11.617037    ( 0.0000,  0.0000,  0.0000)
  12 Li     0.000000    3.234074   11.617037    ( 0.0000,  0.0000,  0.0000)
  13 Li     3.234074    3.234074   11.617037    ( 0.0000,  0.0000,  0.0000)
  14 Li     6.468148    3.234074   11.617037    ( 0.0000,  0.0000,  0.0000)
  15 Li     0.000000    6.468148   11.617037    ( 0.0000,  0.0000,  0.0000)
  16 Li     3.234074    6.468148   11.617037    ( 0.0000,  0.0000,  0.0000)
  17 Li     6.468148    6.468148   11.617037    ( 0.0000,  0.0000,  0.0000)
  18 Li     1.597431    1.596719   13.519174    ( 0.0000,  0.0000,  0.0000)
  19 Li     4.901054    1.671426   13.553738    ( 0.0000,  0.0000,  0.0000)
  20 Li     8.059214    1.592714   13.631248    ( 0.0000,  0.0000,  0.0000)
  21 Li     1.536859    4.786024   13.517332    ( 0.0000,  0.0000,  0.0000)
  22 Li     4.811799    4.883253   13.503413    ( 0.0000,  0.0000,  0.0000)
  23 Li     8.036231    4.830731   13.528427    ( 0.0000,  0.0000,  0.0000)
  24 Li     1.658678    8.045843   13.481584    ( 0.0000,  0.0000,  0.0000)
  25 Li     4.904892    8.135889   13.487540    ( 0.0000,  0.0000,  0.0000)
  26 Li     8.128376    8.125643   13.546795    ( 0.0000,  0.0000,  0.0000)
  27 Li     0.249861   -0.127756   15.495826    ( 0.0000,  0.0000,  0.0000)
  28 Li     3.372371   -0.041705   15.436038    ( 0.0000,  0.0000,  0.0000)
  29 Li     6.560288    0.065053   15.615219    ( 0.0000,  0.0000,  0.0000)
  30 Li    -0.323830    2.961724   15.697824    ( 0.0000,  0.0000,  0.0000)
  31 Li     3.083702    3.280624   15.464964    ( 0.0000,  0.0000,  0.0000)
  32 Li     6.305207    3.460233   15.566993    ( 0.0000,  0.0000,  0.0000)
  33 Li     0.046130    6.350542   15.458227    ( 0.0000,  0.0000,  0.0000)
  34 Li     3.243833    6.476790   15.444045    ( 0.0000,  0.0000,  0.0000)
  35 Li     6.422854    6.600757   15.452364    ( 0.0000,  0.0000,  0.0000)
  36 O      7.892324    2.548350   19.229917    ( 0.0000,  0.0000,  0.0000)
  37 C      8.019805    1.225306   19.776295    ( 0.0000,  0.0000,  0.0000)
  38 C      8.194011    1.224946   21.290610    ( 0.0000,  0.0000,  0.0000)
  39 H      7.159336    0.608134   19.486505    ( 0.0000,  0.0000,  0.0000)
  40 H      8.899588    0.803364   19.286398    ( 0.0000,  0.0000,  0.0000)
  41 H      8.351125    0.206187   21.655762    ( 0.0000,  0.0000,  0.0000)
  42 H      9.054383    1.831751   21.579400    ( 0.0000,  0.0000,  0.0000)
  43 H      7.307651    1.625787   21.791152    ( 0.0000,  0.0000,  0.0000)
  44 H      7.056903    2.919828   19.538335    ( 0.0000,  0.0000,  0.0000)
  45 N      8.265630    0.082930   15.461832    ( 0.0000,  0.0000,  0.0000)
  46 N      6.546346    1.775250   15.491696    ( 0.0000,  0.0000,  0.0000)

Unit cell:
           periodic     x           y           z      points  spacing
  1. axis:    yes    9.702222    0.000000    0.000000    60     0.1617
  2. axis:    yes    0.000000    9.702222    0.000000    60     0.1617
  3. axis:    no     0.000000    0.000000   24.851111   156     0.1593

  Lengths:   9.702222   9.702222  24.851111
  Angles:   90.000000  90.000000  90.000000

Effective grid spacing dv^(1/3) = 0.1609

     iter     time        total  log10-change:
                         energy  eigst   dens
iter:   1 05:44:09  -305.377325  -0.84
iter:   2 05:47:25  -305.342059  -1.30  -1.73
iter:   3 05:51:28  -305.329836  -2.01  -1.93
iter:   4 05:56:03  -305.326755c -2.25  -2.23
Writing to output.gpw (mode='')

iter:   5 05:59:36  -305.322217c -1.82  -2.35
iter:   6 06:03:23  -305.322262c -2.06  -2.46
iter:   7 06:07:02  -305.321202c -2.67  -2.54
iter:   8 06:11:58  -305.321162c -2.87  -2.78
iter:   9 06:17:32  -305.321048c -3.29  -2.83
Writing to output.gpw (mode='')

iter:  10 06:22:00  -305.321092c -3.61  -3.00
iter:  11 06:26:47  -305.321110c -3.36  -3.03
iter:  12 06:31:31  -305.321100c -3.97  -3.17
iter:  13 06:36:02  -305.321102c -4.28  -3.22
iter:  14 06:41:34  -305.321140c -4.13  -3.29
Writing to output.gpw (mode='')

iter:  15 06:46:36  -305.321145c -4.31  -3.45
iter:  16 06:52:09  -305.321151c -4.71  -3.43
iter:  17 06:56:04  -305.321153c -4.63  -3.65
iter:  18 07:00:40  -305.321131c -4.85  -3.76
iter:  19 07:05:47  -305.321135c -5.16  -4.04c
Writing to output.gpw (mode='')

iter:  20 07:11:27  -305.321133c -5.41  -4.05c
iter:  21 07:17:14  -305.321142c -5.42  -4.11c
iter:  22 07:21:30  -305.321138c -5.55  -4.28c
iter:  23 07:26:31  -305.321140c -5.86  -4.28c
iter:  24 07:30:25  -305.321138c -5.97  -4.33c
Writing to output.gpw (mode='')

iter:  25 07:33:41  -305.321136c -5.96  -4.39c
iter:  26 07:38:37  -305.321136c -6.39  -4.58c
iter:  27 07:43:44  -305.321139c -6.25  -4.64c
iter:  28 07:46:25  -305.321138c -6.54  -4.80c
iter:  29 07:49:25  -305.321138c -6.60  -4.83c
Writing to output.gpw (mode='')

iter:  30 07:52:50  -305.321138c -6.76  -4.88c
iter:  31 07:55:55  -305.321139c -6.79  -4.95c
iter:  32 07:59:40  -305.321138c -7.01  -5.00c
iter:  33 08:05:15  -305.321138c -7.15  -5.05c
iter:  34 08:11:02  -305.321139c -7.09  -5.20c
Writing to output.gpw (mode='')

iter:  35 08:16:32  -305.321139c -7.24  -5.31c
iter:  36 08:20:43  -305.321139c -7.39  -5.31c
iter:  37 08:25:25  -305.321139c -7.34  -5.33c
iter:  38 08:29:45  -305.321139c -7.71c -5.24c

Converged after 38 iterations.

Dipole moment: (-2.387356, -14.818328, 0.106511) |e|*Ang

Energy contributions relative to reference atoms: (reference = -14434.854043)

Kinetic:       +145.204340
Potential:     -135.873671
External:        +0.000000
XC:            -315.327631
Entropy (-ST):   -0.176614
Local:           +0.764130
--------------------------
Free energy:   -305.409446
Extrapolated:  -305.321139

Dipole-layer corrected work functions: 3.444645, 3.239895 eV

Showing only first 2 kpts
 Kpt  Band  Eigenvalues  Occupancy
  0    31     -3.51478    1.93847
  0    32     -3.43623    1.73503
  0    33     -3.29967    0.59803
  0    34     -3.18774    0.08699

  1    31     -3.57147    1.97978
  1    32     -3.39444    1.47897
  1    33     -3.29984    0.59945
  1    34     -3.22806    0.18488


Fermi level: -3.34227

Gap: 0.003 eV
Transition (v -> c):
  (s=0, k=4, n=32, [0.38, -0.38, 0.00]) -> (s=0, k=7, n=33, [0.38, 0.38, 0.00])
Writing to output.gpw (mode='')


Forces in eV/Ang:
  0 Li   -0.00084    0.00420   -0.29474
  1 Li   -0.00440    0.00114   -0.27620
  2 Li    0.00978    0.01078   -0.24578
  3 Li   -0.00157   -0.00272   -0.29562
  4 Li   -0.00572    0.01415   -0.27756
  5 Li    0.00271   -0.00133   -0.29534
  6 Li    0.01575   -0.00780   -0.27635
  7 Li   -0.01143   -0.01166   -0.27175
  8 Li   -0.00017   -0.00484   -0.27622
  9 Li   -0.01392    0.03375    0.26625
 10 Li    0.02648    0.05565    0.32790
 11 Li   -0.00943   -0.00464    0.16764
 12 Li   -0.07066   -0.05826    0.24745
 13 Li    0.00685   -0.00465    0.31591
 14 Li    0.03248   -0.01212    0.25283
 15 Li   -0.01693    0.00324    0.31628
 16 Li   -0.02967   -0.04260    0.24680
 17 Li    0.04488    0.02223    0.32298
 18 Li    0.03408    0.04179   -0.03329
 19 Li    0.46631    0.02614    0.54443
 20 Li   -0.45859   -0.47778    1.02944
 21 Li   -0.01698   -0.02054    0.03307
 22 Li   -0.03161    0.09644   -0.02091
 23 Li    0.05043    0.03249   -0.02983
 24 Li    0.09723   -0.03129   -0.01244
 25 Li   -0.12974   -0.13564   -0.11661
 26 Li    0.04289    0.47683    0.53770
 27 Li    1.46076   -0.14250    0.20637
 28 Li    0.03161    0.04984    0.02781
 29 Li   -1.74640   -1.72771    0.43012
 30 Li   -0.34611   -0.34981    0.10089
 31 Li   -0.01442   -0.00685    0.02268
 32 Li   -0.15370    1.41086    0.23846
 33 Li   -0.01307   -0.00752    0.02810
 34 Li    0.02146    0.02195   -0.01762
 35 Li    0.04155    0.01425    0.02189
 36 O     0.03567    0.04033    0.03377
 37 C    -0.00201    0.00521   -0.02024
 38 C    -0.00828    0.00687   -0.01526
 39 H     0.00498    0.01996   -0.03617
 40 H    -0.00589   -0.00173   -0.01567
 41 H    -0.01563    0.00076   -0.00884
 42 H    -0.00573    0.00160   -0.00302
 43 H     0.00018    0.00352   -0.00767
 44 H    -0.01850   -0.01125   -0.04226
 45 N    -0.11976    0.76427   -1.38589
 46 N     0.77386   -0.05116   -1.46926

System changes: positions 

Initializing position-dependent things.

Density initialized from wave functions
       .-----------------------.  
      /|                       |  
     / |                       |  
    /  |                       |  
   /   |                       |  
  /    |                       |  
 *     |                       |  
 |     |                       |  
 |     |                       |  
 |     |            H    H     |  
 |     |              H        |  
 |     |            H O        |  
 |     |Li     Li  H  C H      |  
 |     |                       |  
 |   Li|     Li      Li        |  
 |     |  Li      LLi     Li   |  
 |     |   Li             Li   |  
 |     |Li      LLi     Li     |  
 |     |              N        |  
 |   LLi     LLi     LLi       |  
 |     |  Li      Li      Li   |  
 | Li  |   Li      Li          |  
 |     |Li      Li      Li     |  
 Li    | Li      Li            |  
 |    Li      Li      Li       |  
 |     |                       |  
 |     |                       |  
 |     |                       |  
 |     |                       |  
 |     |                       |  
 |     |                       |  
 |     .-----------------------.  
 |    /                       /   
 |   /                       /    
 |  /                       /     
 | /                       /      
 |/                       /       
 *-----------------------*        

Positions:
   0 Li     1.617037    1.617037   10.000000    ( 0.0000,  0.0000,  0.0000)
   1 Li     4.851111    1.617037   10.000000    ( 0.0000,  0.0000,  0.0000)
   2 Li     8.085185    1.617037   10.000000    ( 0.0000,  0.0000,  0.0000)
   3 Li     1.617037    4.851111   10.000000    ( 0.0000,  0.0000,  0.0000)
   4 Li     4.851111    4.851111   10.000000    ( 0.0000,  0.0000,  0.0000)
   5 Li     8.085185    4.851111   10.000000    ( 0.0000,  0.0000,  0.0000)
   6 Li     1.617037    8.085185   10.000000    ( 0.0000,  0.0000,  0.0000)
   7 Li     4.851111    8.085185   10.000000    ( 0.0000,  0.0000,  0.0000)
   8 Li     8.085185    8.085185   10.000000    ( 0.0000,  0.0000,  0.0000)
   9 Li     0.000000    0.000000   11.617037    ( 0.0000,  0.0000,  0.0000)
  10 Li     3.234074    0.000000   11.617037    ( 0.0000,  0.0000,  0.0000)
  11 Li     6.468148    0.000000   11.617037    ( 0.0000,  0.0000,  0.0000)
  12 Li     0.000000    3.234074   11.617037    ( 0.0000,  0.0000,  0.0000)
  13 Li     3.234074    3.234074   11.617037    ( 0.0000,  0.0000,  0.0000)
  14 Li     6.468148    3.234074   11.617037    ( 0.0000,  0.0000,  0.0000)
  15 Li     0.000000    6.468148   11.617037    ( 0.0000,  0.0000,  0.0000)
  16 Li     3.234074    6.468148   11.617037    ( 0.0000,  0.0000,  0.0000)
  17 Li     6.468148    6.468148   11.617037    ( 0.0000,  0.0000,  0.0000)
  18 Li     1.598039    1.597472   13.518571    ( 0.0000,  0.0000,  0.0000)
  19 Li     4.909308    1.671900   13.563367    ( 0.0000,  0.0000,  0.0000)
  20 Li     8.051085    1.584242   13.649503    ( 0.0000,  0.0000,  0.0000)
  21 Li     1.536562    4.785664   13.517917    ( 0.0000,  0.0000,  0.0000)
  22 Li     4.811219    4.884971   13.503025    ( 0.0000,  0.0000,  0.0000)
  23 Li     8.037133    4.831309   13.527891    ( 0.0000,  0.0000,  0.0000)
  24 Li     1.660413    8.045265   13.481342    ( 0.0000,  0.0000,  0.0000)
  25 Li     4.902574    8.133467   13.485462    ( 0.0000,  0.0000,  0.0000)
  26 Li     8.129147    8.134083   13.556304    ( 0.0000,  0.0000,  0.0000)
  27 Li     0.272077   -0.129857   15.499719    ( 0.0000,  0.0000,  0.0000)
  28 Li     3.372922   -0.040847   15.436510    ( 0.0000,  0.0000,  0.0000)
  29 Li     6.532528    0.037305   15.622930    ( 0.0000,  0.0000,  0.0000)
  30 Li    -0.329978    2.955510   15.699608    ( 0.0000,  0.0000,  0.0000)
  31 Li     3.083429    3.280508   15.465360    ( 0.0000,  0.0000,  0.0000)
  32 Li     6.302947    3.481799   15.571362    ( 0.0000,  0.0000,  0.0000)
  33 Li     0.045904    6.350391   15.458720    ( 0.0000,  0.0000,  0.0000)
  34 Li     3.244237    6.477203   15.443744    ( 0.0000,  0.0000,  0.0000)
  35 Li     6.423565    6.600997   15.452731    ( 0.0000,  0.0000,  0.0000)
  36 O      7.892934    2.549031   19.230507    ( 0.0000,  0.0000,  0.0000)
  37 C      8.019837    1.225502   19.776018    ( 0.0000,  0.0000,  0.0000)
  38 C      8.193890    1.224996   21.290356    ( 0.0000,  0.0000,  0.0000)
  39 H      7.159363    0.608458   19.485842    ( 0.0000,  0.0000,  0.0000)
  40 H      8.899500    0.803326   19.286105    ( 0.0000,  0.0000,  0.0000)
  41 H      8.350844    0.206242   21.655591    ( 0.0000,  0.0000,  0.0000)
  42 H      9.054264    1.831770   21.579326    ( 0.0000,  0.0000,  0.0000)
  43 H      7.307640    1.625859   21.791014    ( 0.0000,  0.0000,  0.0000)
  44 H      7.056587    2.919628   19.537583    ( 0.0000,  0.0000,  0.0000)
  45 N      8.263075    0.097113   15.437128    ( 0.0000,  0.0000,  0.0000)
  46 N      6.560591    1.774056   15.465480    ( 0.0000,  0.0000,  0.0000)

Unit cell:
           periodic     x           y           z      points  spacing
  1. axis:    yes    9.702222    0.000000    0.000000    60     0.1617
  2. axis:    yes    0.000000    9.702222    0.000000    60     0.1617
  3. axis:    no     0.000000    0.000000   24.851111   156     0.1593

  Lengths:   9.702222   9.702222  24.851111
  Angles:   90.000000  90.000000  90.000000

Effective grid spacing dv^(1/3) = 0.1609

     iter     time        total  log10-change:
                         energy  eigst   dens
iter:   1 08:35:25  -305.670531  -0.83
iter:   2 08:39:48  -305.633568  -1.32  -1.74
iter:   3 08:44:55  -305.623639  -2.00  -1.95
iter:   4 08:50:11  -305.619398c -2.14  -2.21
Writing to output.gpw (mode='')

iter:   5 08:53:17  -305.614619c -1.84  -2.35
iter:   6 08:58:01  -305.614837c -1.97  -2.49
iter:   7 09:02:16  -305.613571c -2.70  -2.53
iter:   8 09:07:05  -305.613581c -2.90  -2.79
iter:   9 09:10:11  -305.613636c -3.29  -2.83
Writing to output.gpw (mode='')

iter:  10 09:12:13  -305.613519c -3.21  -3.00
iter:  11 09:14:35  -305.613520c -3.80  -3.13
iter:  12 09:17:44  -305.613542c -4.09  -3.16
iter:  13 09:20:35  -305.613563c -3.93  -3.35
iter:  14 09:24:12  -305.613555c -4.22  -3.44
Writing to output.gpw (mode='')

iter:  15 09:27:02  -305.613568c -4.49  -3.42
iter:  16 09:28:57  -305.613556c -4.51  -3.37
iter:  17 09:31:01  -305.613558c -4.95  -3.58
iter:  18 09:33:37  -305.613566c -4.82  -3.59
iter:  19 09:36:26  -305.613574c -4.94  -3.77
Writing to output.gpw (mode='')

iter:  20 09:39:03  -305.613583c -4.95  -3.95
iter:  21 09:41:40  -305.613580c -5.48  -3.98
iter:  22 09:43:58  -305.613567c -5.40  -4.03c
iter:  23 09:46:05  -305.613574c -5.93  -4.30c
iter:  24 09:48:07  -305.613571c -5.97  -4.36c
Writing to output.gpw (mode='')

iter:  25 09:50:08  -305.613573c -6.05  -4.41c
iter:  26 09:54:19  -305.613572c -6.11  -4.52c
iter:  27 09:57:52  -305.613575c -6.28  -4.57c
iter:  28 10:00:09  -305.613575c -6.39  -4.77c
iter:  29 10:02:41  -305.613575c -6.57  -5.03c
Writing to output.gpw (mode='')

iter:  30 10:04:59  -305.613575c -6.82  -5.07c
iter:  31 10:09:03  -305.613575c -6.84  -5.06c
iter:  32 10:12:29  -305.613574c -6.83  -5.00c
iter:  33 10:15:52  -305.613574c -7.04  -4.95c
iter:  34 10:19:25  -305.613575c -7.02  -4.95c
Writing to output.gpw (mode='')

iter:  35 10:22:28  -305.613574c -7.10  -4.91c
iter:  36 10:25:25  -305.613574c -7.29  -4.98c
iter:  37 10:28:25  -305.613574c -7.14  -4.93c
iter:  38 10:30:47  -305.613574c -7.39  -4.93c
iter:  39 10:32:57  -305.613574c -7.72c -4.97c

Converged after 39 iterations.

Dipole moment: (-2.415091, -15.133252, 0.116672) |e|*Ang

Energy contributions relative to reference atoms: (reference = -14434.854043)

Kinetic:       +142.771809
Potential:     -134.162443
External:        +0.000000
XC:            -314.896822
Entropy (-ST):   -0.174522
[...]
iter:  32 20:36:29  -306.558889c -6.53  -4.82c
iter:  33 20:39:33  -306.558889c -6.83  -4.88c
iter:  34 20:44:04  -306.558888c -6.84  -4.92c
Writing to output.gpw (mode='')

iter:  35 20:48:35  -306.558889c -7.15  -4.99c
iter:  36 20:52:33  -306.558889c -7.16  -5.14c
iter:  37 20:56:57  -306.558889c -7.18  -5.30c
iter:  38 21:01:00  -306.558889c -7.28  -5.33c
iter:  39 21:07:04  -306.558889c -7.36  -5.40c
Writing to output.gpw (mode='')

iter:  40 21:11:15  -306.558889c -7.62c -5.64c

Converged after 40 iterations.

Dipole moment: (-2.289464, -15.041706, 0.162060) |e|*Ang

Energy contributions relative to reference atoms: (reference = -14434.854043)

Kinetic:       +135.716110
Potential:     -129.179916
External:        +0.000000
XC:            -313.765782
Entropy (-ST):   -0.166645
Local:           +0.754022
--------------------------
Free energy:   -306.642211
Extrapolated:  -306.558889

Dipole-layer corrected work functions: 3.430358, 3.118822 eV

Showing only first 2 kpts
 Kpt  Band  Eigenvalues  Occupancy
  0    31     -3.45110    1.94307
  0    32     -3.35787    1.68200
  0    33     -3.22257    0.52216
  0    34     -3.10978    0.07141

  1    31     -3.53035    1.98806
  1    32     -3.36530    1.71973
  1    33     -3.23585    0.63087
  1    34     -3.13457    0.11460


Fermi level: -3.27459

No gap

Forces in eV/Ang:
  0 Li   -0.00280    0.00432   -0.29846
  1 Li   -0.00585    0.00092   -0.27894
  2 Li    0.01146    0.01202   -0.25512
  3 Li   -0.00292   -0.00403   -0.29017
  4 Li   -0.00035    0.01660   -0.27358
  5 Li    0.00323   -0.00314   -0.29846
  6 Li    0.01798   -0.00227   -0.27273
  7 Li   -0.01383   -0.01384   -0.27053
  8 Li   -0.00018   -0.00579   -0.27891
  9 Li   -0.02278    0.04021    0.28940
 10 Li    0.03794    0.07252    0.33360
 11 Li   -0.00333    0.00157    0.18900
 12 Li   -0.08023   -0.06866    0.26008
 13 Li    0.02313   -0.02363    0.33445
 14 Li    0.03918   -0.02252    0.27781
 15 Li   -0.03574    0.01993    0.33494
 16 Li   -0.03343   -0.04662    0.23491
 17 Li    0.06228    0.03417    0.32959
 18 Li    0.03131    0.03036   -0.02099
 19 Li    0.49908    0.00885    0.49271
 20 Li   -0.33700   -0.32845    0.59467
 21 Li   -0.00657   -0.00811    0.02872
 22 Li   -0.05036    0.08802   -0.02946
 23 Li    0.03734    0.02857   -0.01537
 24 Li    0.09191   -0.05163   -0.02404
 25 Li   -0.12249   -0.12817   -0.08767
 26 Li    0.02239    0.50250    0.48473
 27 Li   -0.11969    0.07050    0.17067
 28 Li   -0.01339   -0.00710   -0.00335
 29 Li   -0.21214   -0.19351    0.19375
 30 Li   -0.39610   -0.40098    0.05345
 31 Li   -0.06412    0.01341    0.01543
 32 Li    0.07964   -0.12497    0.16305
 33 Li    0.00900   -0.06124    0.01952
 34 Li    0.04967    0.05029    0.00854
 35 Li   -0.01407   -0.03230   -0.00925
 36 O     0.02162    0.02025   -0.00187
 37 C     0.00676    0.01304   -0.00558
 38 C    -0.00521   -0.00375   -0.00733
 39 H    -0.00355    0.02441   -0.02837
 40 H     0.00513    0.00691   -0.00901
 41 H    -0.01189   -0.00062   -0.01011
 42 H    -0.00719   -0.00355   -0.00982
 43 H    -0.00590    0.00546   -0.01435
 44 H    -0.00181   -0.00009   -0.03753
 45 N    -0.39542    0.88043   -0.91589
 46 N     0.85357   -0.39596   -1.03532

System changes: positions 

Initializing position-dependent things.

Density initialized from wave functions
       .-----------------------.  
      /|                       |  
     / |                       |  
    /  |                       |  
   /   |                       |  
  /    |                       |  
 *     |                       |  
 |     |                       |  
 |     |                       |  
 |     |            H    H     |  
 |     |              H        |  
 |     |            H O        |  
 |     |Li     Li  H  CLH      |  
 |     |                       |  
 |   Li|     Li      Li        |  
 |     |  Li      LLi     Li   |  
 |     |   Li             Li   |  
 |     |Li      Li N    Li     |  
 |     |             N         |  
 |   LLi     LLi     LLi       |  
 |     |  Li      Li      Li   |  
 | Li  |   Li      Li          |  
 |     |Li      Li      Li     |  
 Li    | Li      Li            |  
 |    Li      Li      Li       |  
 |     |                       |  
 |     |                       |  
 |     |                       |  
 |     |                       |  
 |     |                       |  
 |     |                       |  
 |     .-----------------------.  
 |    /                       /   
 |   /                       /    
 |  /                       /     
 | /                       /      
 |/                       /       
 *-----------------------*        

Positions:
   0 Li     1.617037    1.617037   10.000000    ( 0.0000,  0.0000,  0.0000)
   1 Li     4.851111    1.617037   10.000000    ( 0.0000,  0.0000,  0.0000)
   2 Li     8.085185    1.617037   10.000000    ( 0.0000,  0.0000,  0.0000)
   3 Li     1.617037    4.851111   10.000000    ( 0.0000,  0.0000,  0.0000)
   4 Li     4.851111    4.851111   10.000000    ( 0.0000,  0.0000,  0.0000)
   5 Li     8.085185    4.851111   10.000000    ( 0.0000,  0.0000,  0.0000)
   6 Li     1.617037    8.085185   10.000000    ( 0.0000,  0.0000,  0.0000)
   7 Li     4.851111    8.085185   10.000000    ( 0.0000,  0.0000,  0.0000)
   8 Li     8.085185    8.085185   10.000000    ( 0.0000,  0.0000,  0.0000)
   9 Li     0.000000    0.000000   11.617037    ( 0.0000,  0.0000,  0.0000)
  10 Li     3.234074    0.000000   11.617037    ( 0.0000,  0.0000,  0.0000)
  11 Li     6.468148    0.000000   11.617037    ( 0.0000,  0.0000,  0.0000)
  12 Li     0.000000    3.234074   11.617037    ( 0.0000,  0.0000,  0.0000)
  13 Li     3.234074    3.234074   11.617037    ( 0.0000,  0.0000,  0.0000)
  14 Li     6.468148    3.234074   11.617037    ( 0.0000,  0.0000,  0.0000)
  15 Li     0.000000    6.468148   11.617037    ( 0.0000,  0.0000,  0.0000)
  16 Li     3.234074    6.468148   11.617037    ( 0.0000,  0.0000,  0.0000)
  17 Li     6.468148    6.468148   11.617037    ( 0.0000,  0.0000,  0.0000)
  18 Li     1.602032    1.602036   13.515078    ( 0.0000,  0.0000,  0.0000)
  19 Li     4.967389    1.674307   13.627043    ( 0.0000,  0.0000,  0.0000)
  20 Li     7.999674    1.531644   13.758337    ( 0.0000,  0.0000,  0.0000)
  21 Li     1.534995    4.783763   13.521748    ( 0.0000,  0.0000,  0.0000)
  22 Li     4.806464    4.896318   13.500037    ( 0.0000,  0.0000,  0.0000)
  23 Li     8.042656    4.835047   13.524930    ( 0.0000,  0.0000,  0.0000)
  24 Li     1.672012    8.040467   13.479225    ( 0.0000,  0.0000,  0.0000)
  25 Li     4.887112    8.117299   13.472652    ( 0.0000,  0.0000,  0.0000)
  26 Li     8.133407    8.193083   13.619068    ( 0.0000,  0.0000,  0.0000)
  27 Li     0.364634   -0.136042   15.524069    ( 0.0000,  0.0000,  0.0000)
  28 Li     3.374687   -0.037562   15.438357    ( 0.0000,  0.0000,  0.0000)
  29 Li     6.402130   -0.091383   15.664500    ( 0.0000,  0.0000,  0.0000)
  30 Li    -0.374180    2.910828   15.709731    ( 0.0000,  0.0000,  0.0000)
  31 Li     3.079290    3.280669   15.467731    ( 0.0000,  0.0000,  0.0000)
  32 Li     6.296475    3.570996   15.597462    ( 0.0000,  0.0000,  0.0000)
  33 Li     0.045395    6.346907   15.461687    ( 0.0000,  0.0000,  0.0000)
  34 Li     3.248244    6.481271   15.442854    ( 0.0000,  0.0000,  0.0000)
  35 Li     6.425904    6.600573   15.453859    ( 0.0000,  0.0000,  0.0000)
  36 O      7.896469    2.552839   19.232883    ( 0.0000,  0.0000,  0.0000)
  37 C      8.020195    1.226784   19.774499    ( 0.0000,  0.0000,  0.0000)
  38 C      8.193105    1.225105   21.288924    ( 0.0000,  0.0000,  0.0000)
  39 H      7.159387    0.611031   19.481744    ( 0.0000,  0.0000,  0.0000)
  40 H      8.899351    0.803520   19.284477    ( 0.0000,  0.0000,  0.0000)
  41 H      8.349119    0.206369   21.654435    ( 0.0000,  0.0000,  0.0000)
  42 H      9.053456    1.831699   21.578579    ( 0.0000,  0.0000,  0.0000)
  43 H      7.307329    1.626410   21.789767    ( 0.0000,  0.0000,  0.0000)
  44 H      7.055113    2.918781   19.532677    ( 0.0000,  0.0000,  0.0000)
  45 N      8.235676    0.197854   15.285958    ( 0.0000,  0.0000,  0.0000)
  46 N      6.659497    1.749919   15.303979    ( 0.0000,  0.0000,  0.0000)

Unit cell:
           periodic     x           y           z      points  spacing
  1. axis:    yes    9.702222    0.000000    0.000000    60     0.1617
  2. axis:    yes    0.000000    9.702222    0.000000    60     0.1617
  3. axis:    no     0.000000    0.000000   24.851111   156     0.1593

  Lengths:   9.702222   9.702222  24.851111
  Angles:   90.000000  90.000000  90.000000

Effective grid spacing dv^(1/3) = 0.1609

     iter     time        total  log10-change:
                         energy  eigst   dens
iter:   1 21:17:16  -306.761120  -0.85
iter:   2 21:21:47  -306.735117  -1.48  -1.88
iter:   3 21:25:51  -306.729134c -1.97  -2.05
iter:   4 21:30:37  -306.722370c -1.78  -2.21
Writing to output.gpw (mode='')

iter:   5 21:34:28  -306.717806c -2.08  -2.37
iter:   6 21:38:56  -306.717946c -1.89  -2.53
iter:   7 21:43:52  -306.716645c -2.76  -2.53
iter:   8 21:48:33  -306.716148c -2.81  -2.74
iter:   9 21:52:26  -306.716146c -3.35  -2.88
Writing to output.gpw (mode='')

iter:  10 21:56:00  -306.716240c -3.52  -2.92
iter:  11 21:58:17  -306.716171c -3.41  -3.20
iter:  12 22:00:28  -306.716217c -3.88  -3.27
iter:  13 22:04:54  -306.716216c -4.30  -3.29
iter:  14 22:08:14  -306.716218c -4.12  -3.33
Writing to output.gpw (mode='')

iter:  15 22:10:50  -306.716222c -4.47  -3.63
iter:  16 22:13:16  -306.716221c -4.85  -3.56
iter:  17 22:15:50  -306.716223c -4.99  -3.61
iter:  18 22:18:34  -306.716221c -4.81  -3.59
iter:  19 22:20:27  -306.716222c -5.22  -3.81
Writing to output.gpw (mode='')

iter:  20 22:22:23  -306.716220c -5.15  -3.87
iter:  21 22:24:52  -306.716211c -5.04  -4.02c
iter:  22 22:29:06  -306.716210c -5.48  -4.19c
iter:  23 22:31:13  -306.716216c -5.68  -4.28c
iter:  24 22:33:34  -306.716215c -5.72  -4.42c
Writing to output.gpw (mode='')

iter:  25 22:36:09  -306.716217c -5.90  -4.64c
iter:  26 22:38:58  -306.716217c -6.11  -4.68c
iter:  27 22:40:32  -306.716218c -5.80  -4.68c
iter:  28 22:42:12  -306.716218c -6.24  -4.54c
iter:  29 22:44:01  -306.716218c -6.16  -4.66c
Writing to output.gpw (mode='')

iter:  30 22:46:46  -306.716218c -6.41  -4.67c
iter:  31 22:50:58  -306.716218c -6.29  -4.67c
iter:  32 22:56:27  -306.716219c -6.46  -4.74c
iter:  33 23:00:39  -306.716219c -6.87  -4.74c
iter:  34 23:03:12  -306.716219c -6.84  -4.69c
Writing to output.gpw (mode='')

iter:  35 23:05:00  -306.716218c -6.73  -4.69c
iter:  36 23:06:44  -306.716219c -6.97  -4.70c
iter:  37 23:08:30  -306.716217c -6.91  -4.68c
iter:  38 23:10:30  -306.716217c -6.86  -4.67c
iter:  39 23:12:19  -306.716218c -7.18  -4.69c
Writing to output.gpw (mode='')

iter:  40 23:14:37  -306.716218c -7.42c -4.72c

Converged after 40 iterations.

Dipole moment: (-2.227713, -14.547434, 0.172263) |e|*Ang

Energy contributions relative to reference atoms: (reference = -14434.854043)

Kinetic:       +134.855150
Potential:     -128.568393
External:        +0.000000
XC:            -313.673805
Entropy (-ST):   -0.165339
Local:           +0.753499
--------------------------
Free energy:   -306.798887
Extrapolated:  -306.716218

Dipole-layer corrected work functions: 3.426962, 3.095814 eV

Showing only first 2 kpts
 Kpt  Band  Eigenvalues  Occupancy
  0    31     -3.43836    1.94358
  0    32     -3.34236    1.66943
  0    33     -3.20834    0.51427
  0    34     -3.09400    0.06793

  1    31     -3.52232    1.98923
  1    32     -3.35897    1.75126
  1    33     -3.22445    0.64653
  1    34     -3.11646    0.10444


Fermi level: -3.26139

No gap

Forces in eV/Ang:
  0 Li   -0.00332    0.00431   -0.29892
  1 Li   -0.00603    0.00100   -0.27979
  2 Li    0.01164    0.01209   -0.25811
  3 Li   -0.00334   -0.00442   -0.28855
  4 Li    0.00079    0.01682   -0.27308
  5 Li    0.00326   -0.00361   -0.29881
  6 Li    0.01811   -0.00111   -0.27230
  7 Li   -0.01402   -0.01404   -0.26996
  8 Li   -0.00008   -0.00589   -0.27965
  9 Li   -0.02396    0.04094    0.29410
 10 Li    0.04022    0.07603    0.33508
 11 Li   -0.00196    0.00303    0.19369
 12 Li   -0.08070   -0.06938    0.26156
 13 Li    0.02683   -0.02767    0.33819
 14 Li    0.03988   -0.02405    0.28296
 15 Li   -0.03978    0.02368    0.33865
 16 Li   -0.03413   -0.04737    0.23264
 17 Li    0.06598    0.03669    0.33126
 18 Li    0.03112    0.02745   -0.01801
 19 Li    0.50208    0.00364    0.47631
 20 Li   -0.26344   -0.24574    0.36882
 21 Li   -0.00439   -0.00552    0.02686
 22 Li   -0.05350    0.08466   -0.03009
 23 Li    0.03422    0.02836   -0.01215
 24 Li    0.08893   -0.05493   -0.02512
 25 Li   -0.11905   -0.12464   -0.08084
 26 Li    0.01707    0.50395    0.46884
 27 Li   -0.31675    0.10251    0.14617
 28 Li   -0.02404   -0.01733   -0.00890
 29 Li   -0.02058   -0.00259    0.13830
 30 Li   -0.40748   -0.41369    0.04038
 31 Li   -0.07301    0.01673    0.01464
 32 Li    0.11333   -0.31837    0.13337
 33 Li    0.01267   -0.07103    0.01845
 34 Li    0.05392    0.05463    0.01363
 35 Li   -0.02388   -0.04289   -0.01468
 36 O     0.02061    0.01771   -0.00803
 37 C     0.00777    0.01362   -0.00441
 38 C    -0.00496   -0.00446   -0.00668
 39 H    -0.00440    0.02439   -0.02599
 40 H     0.00691    0.00801   -0.00741
 41 H    -0.01126   -0.00084   -0.01042
 42 H    -0.00703   -0.00426   -0.01041
 43 H    -0.00686    0.00559   -0.01539
 44 H     0.00249    0.00238   -0.03646
 45 N    -0.41148    0.82917   -0.77617
 46 N     0.82847   -0.39582   -0.89998

System changes: positions 

Initializing position-dependent things.

Density initialized from wave functions
       .-----------------------.  
      /|                       |  
     / |                       |  
    /  |                       |  
   /   |                       |  
  /    |                       |  
 *     |                       |  
 |     |                       |  
 |     |                       |  
 |     |            H    H     |  
 |     |              H        |  
 |     |            H O        |  
 |     |Li     Li  H  CLH      |  
 |     |                       |  
 |   Li|     Li      Li        |  
 |     |  Li      LLi     Li   |  
 |     |   Li             Li   |  
 |     |Li      Li N    Li     |  
 |     |             N         |  
 |   LLi     LLi     LLi       |  
 |     |  Li      Li      Li   |  
 | Li  |   Li      Li          |  
 |     |Li      Li      Li     |  
 Li    | Li      Li            |  
 |    Li      Li      Li       |  
 |     |                       |  
 |     |                       |  
 |     |                       |  
 |     |                       |  
 |     |                       |  
 |     |                       |  
 |     .-----------------------.  
 |    /                       /   
 |   /                       /    
 |  /                       /     
 | /                       /      
 |/                       /       
 *-----------------------*        

Positions:
   0 Li     1.617037    1.617037   10.000000    ( 0.0000,  0.0000,  0.0000)
   1 Li     4.851111    1.617037   10.000000    ( 0.0000,  0.0000,  0.0000)
   2 Li     8.085185    1.617037   10.000000    ( 0.0000,  0.0000,  0.0000)
   3 Li     1.617037    4.851111   10.000000    ( 0.0000,  0.0000,  0.0000)
   4 Li     4.851111    4.851111   10.000000    ( 0.0000,  0.0000,  0.0000)
   5 Li     8.085185    4.851111   10.000000    ( 0.0000,  0.0000,  0.0000)
   6 Li     1.617037    8.085185   10.000000    ( 0.0000,  0.0000,  0.0000)
   7 Li     4.851111    8.085185   10.000000    ( 0.0000,  0.0000,  0.0000)
   8 Li     8.085185    8.085185   10.000000    ( 0.0000,  0.0000,  0.0000)
   9 Li     0.000000    0.000000   11.617037    ( 0.0000,  0.0000,  0.0000)
  10 Li     3.234074    0.000000   11.617037    ( 0.0000,  0.0000,  0.0000)
  11 Li     6.468148    0.000000   11.617037    ( 0.0000,  0.0000,  0.0000)
  12 Li     0.000000    3.234074   11.617037    ( 0.0000,  0.0000,  0.0000)
  13 Li     3.234074    3.234074   11.617037    ( 0.0000,  0.0000,  0.0000)
  14 Li     6.468148    3.234074   11.617037    ( 0.0000,  0.0000,  0.0000)
  15 Li     0.000000    6.468148   11.617037    ( 0.0000,  0.0000,  0.0000)
  16 Li     3.234074    6.468148   11.617037    ( 0.0000,  0.0000,  0.0000)
  17 Li     6.468148    6.468148   11.617037    ( 0.0000,  0.0000,  0.0000)
  18 Li     1.602961    1.602976   13.514400    ( 0.0000,  0.0000,  0.0000)
  19 Li     4.981532    1.674651   13.641566    ( 0.0000,  0.0000,  0.0000)
  20 Li     7.989895    1.521983   13.776269    ( 0.0000,  0.0000,  0.0000)
  21 Li     1.534730    4.783438   13.522592    ( 0.0000,  0.0000,  0.0000)
  22 Li     4.805167    4.898888   13.499276    ( 0.0000,  0.0000,  0.0000)
  23 Li     8.043813    4.835909   13.524393    ( 0.0000,  0.0000,  0.0000)
  24 Li     1.674667    8.039149   13.478648    ( 0.0000,  0.0000,  0.0000)
  25 Li     4.883567    8.113589   13.469937    ( 0.0000,  0.0000,  0.0000)
  26 Li     8.134173    8.207375   13.633386    ( 0.0000,  0.0000,  0.0000)
  27 Li     0.376939   -0.135958   15.528748    ( 0.0000,  0.0000,  0.0000)
  28 Li     3.374599   -0.037320   15.438512    ( 0.0000,  0.0000,  0.0000)
  29 Li     6.380840   -0.112045   15.671479    ( 0.0000,  0.0000,  0.0000)
  30 Li    -0.385289    2.899570   15.711554    ( 0.0000,  0.0000,  0.0000)
  31 Li     3.077824    3.280894   15.468246    ( 0.0000,  0.0000,  0.0000)
  32 Li     6.296599    3.582611   15.602301    ( 0.0000,  0.0000,  0.0000)
  33 Li     0.045478    6.345552   15.462329    ( 0.0000,  0.0000,  0.0000)
  34 Li     3.249436    6.482481   15.442903    ( 0.0000,  0.0000,  0.0000)
  35 Li     6.425939    6.599961   15.453846    ( 0.0000,  0.0000,  0.0000)
  36 O      7.897236    2.553607   19.233106    ( 0.0000,  0.0000,  0.0000)
  37 C      8.020303    1.227077   19.774179    ( 0.0000,  0.0000,  0.0000)
  38 C      8.192922    1.225107   21.288623    ( 0.0000,  0.0000,  0.0000)
  39 H      7.159365    0.611679   19.480882    ( 0.0000,  0.0000,  0.0000)
  40 H      8.899407    0.803642   19.284178    ( 0.0000,  0.0000,  0.0000)
  41 H      8.348744    0.206360   21.654153    ( 0.0000,  0.0000,  0.0000)
  42 H      9.053274    1.831645   21.578367    ( 0.0000,  0.0000,  0.0000)
  43 H      7.307207    1.626548   21.789411    ( 0.0000,  0.0000,  0.0000)
  44 H      7.054954    2.918701   19.531561    ( 0.0000,  0.0000,  0.0000)
  45 N      8.227395    0.220991   15.257141    ( 0.0000,  0.0000,  0.0000)
  46 N      6.682383    1.742194   15.272095    ( 0.0000,  0.0000,  0.0000)

Unit cell:
           periodic     x           y           z      points  spacing
  1. axis:    yes    9.702222    0.000000    0.000000    60     0.1617
  2. axis:    yes    0.000000    9.702222    0.000000    60     0.1617
  3. axis:    no     0.000000    0.000000   24.851111   156     0.1593

  Lengths:   9.702222   9.702222  24.851111
  Angles:   90.000000  90.000000  90.000000

Effective grid spacing dv^(1/3) = 0.1609

     iter     time        total  log10-change:
                         energy  eigst   dens
iter:   1 23:16:45  -306.882785  -0.89
iter:   2 23:18:31  -306.859838  -1.53  -1.92
iter:   3 23:20:54  -306.853683c -2.00  -2.07
iter:   4 23:23:17  -306.847161c -1.80  -2.23
Writing to output.gpw (mode='')

iter:   5 23:25:21  -306.843067c -2.15  -2.38
iter:   6 23:27:11  -306.843102c -1.92  -2.53
iter:   7 23:29:10  -306.841845c -2.78  -2.55
iter:   8 23:32:03  -306.841361c -2.87  -2.76
iter:   9 23:34:28  -306.841354c -3.32  -2.93
Writing to output.gpw (mode='')

iter:  10 23:37:12  -306.841471c -3.56  -2.96
iter:  11 23:39:27  -306.841385c -3.45  -3.21
iter:  12 23:41:29  -306.841443c -3.84  -3.29
iter:  13 23:45:42  -306.841445c -4.30  -3.30
iter:  14 23:48:37  -306.841448c -4.14  -3.34
Writing to output.gpw (mode='')

iter:  15 23:52:12  -306.841447c -4.43  -3.64
