
  ___ ___ ___ _ _ _  
 |   |   |_  | | | | 
 | | | | | . | | | | 
 |__ |  _|___|_____|  22.8.0
 |___|_|             

User:   vazumah@f012
Date:   Wed Mar  8 12:31:46 2023
Arch:   x86_64
Pid:    56904
CWD:    /home/vazumah/Research_Projects/LiMEAS/LiNRR_proton_donors/on_pure_surface/Li_BCC100/adsorbates/ethanediol_y/bridge/0.0_1.617
Python: 3.10.6
gpaw:   /home/vazumah/anaconda3/envs/NAME/lib/python3.10/site-packages/gpaw
_gpaw:  /home/vazumah/anaconda3/envs/NAME/lib/python3.10/site-packages/
        _gpaw.cpython-310-x86_64-linux-gnu.so
ase:    /home/vazumah/anaconda3/envs/NAME/lib/python3.10/site-packages/ase (version 3.22.1)
numpy:  /home/vazumah/anaconda3/envs/NAME/lib/python3.10/site-packages/numpy (version 1.23.3)
scipy:  /home/vazumah/anaconda3/envs/NAME/lib/python3.10/site-packages/scipy (version 1.9.1)
libxc:  5.2.3
units:  Angstrom and eV
cores: 32
OpenMP: True
OMP_NUM_THREADS: 1

Input parameters:
  h: 0.16
  kpts: {size: [4, 4, 1]}
  occupations: {name: fermi-dirac,
                width: 0.05}
  poissonsolver: {dipolelayer: xy}
  xc: BEEF-vdW

System changes: positions, numbers, cell, pbc, initial_charges, initial_magmoms 

Initialize ...

species:
  Li:
    name: Lithium
    id: 830b4218f175192f93f959cfc0aad614
    Z: 3.0
    valence: 1
    core: 2
    charge: 0.0
    file: /home/vazumah/anaconda3/envs/NAME/share/gpaw/Li.PBE.gz
    compensation charges: {type: gauss,
                           rc: 0.33,
                           lmax: 2}
    cutoffs: {filter: 1.91,
              core: 2.55}
    valence states:
      #              energy  rcut
      - 2s(1.00)    -2.874   1.058
      - 2p(0.00)    -1.090   1.058
      -  s          24.337   1.058
  
    # Using partial waves for Li as LCAO basis

  O:
    name: Oxygen
    id: 32ecd46bf208036f09c70b0ec9a88b78
    Z: 8.0
    valence: 6
    core: 2
    charge: 0.0
    file: /home/vazumah/anaconda3/envs/NAME/share/gpaw/O.PBE.gz
    compensation charges: {type: gauss,
                           rc: 0.21,
                           lmax: 2}
    cutoffs: {filter: 1.17,
              core: 0.83}
    valence states:
      #              energy  rcut
      - 2s(2.00)   -23.961   0.688
      - 2p(4.00)    -9.029   0.598
      -  s           3.251   0.688
      -  p          18.182   0.598
      -  d           0.000   0.619
  
    # Using partial waves for O as LCAO basis

  C:
    name: Carbon
    id: 4aa54d4b901d75f77cc0ea3eec22967b
    Z: 6.0
    valence: 4
    core: 2
    charge: 0.0
    file: /home/vazumah/anaconda3/envs/NAME/share/gpaw/C.PBE.gz
    compensation charges: {type: gauss,
                           rc: 0.20,
                           lmax: 2}
    cutoffs: {filter: 1.14,
              core: 1.14}
    valence states:
      #              energy  rcut
      - 2s(2.00)   -13.751   0.635
      - 2p(2.00)    -5.284   0.635
      -  s          13.461   0.635
      -  p          21.927   0.635
      -  d           0.000   0.635
  
    # Using partial waves for C as LCAO basis

  H:
    name: Hydrogen
    id: d65de229564ff8ea4db303e23b6d1ecf
    Z: 1.0
    valence: 1
    core: 0
    charge: 0.0
    file: /home/vazumah/anaconda3/envs/NAME/share/gpaw/H.PBE.gz
    compensation charges: {type: gauss,
                           rc: 0.15,
                           lmax: 2}
    cutoffs: {filter: 0.85,
              core: 0.53}
    valence states:
      #              energy  rcut
      - 1s(1.00)    -6.494   0.476
      -  s          20.717   0.476
      -  p           0.000   0.476
  
    # Using partial waves for H as LCAO basis

Reference energy: -13512.263335  # eV

Spin-paired calculation

Convergence criteria:
 Maximum [total energy] change in last 3 cyles: 0.0005 eV / electron
 Maximum integral of absolute [dens]ity change: 0.0001 electrons / valence electron
 Maximum integral of absolute [eigenst]ate change: 4e-08 eV^2 / valence electron
 Maximum number of scf [iter]ations: 333
 (Square brackets indicate name in SCF output, whereas a 'c' in
 the SCF output indicates the quantity has converged.)

Symmetries present (total): 1

  ( 1  0  0)
  ( 0  1  0)
  ( 0  0  1)

16 k-points: 4 x 4 x 1 Monkhorst-Pack grid
8 k-points in the irreducible part of the Brillouin zone
       k-points in crystal coordinates                weights
   0:     0.12500000   -0.37500000    0.00000000          2/16
   1:     0.12500000   -0.12500000    0.00000000          2/16
   2:     0.12500000    0.12500000    0.00000000          2/16
   3:     0.12500000    0.37500000    0.00000000          2/16
   4:     0.37500000   -0.37500000    0.00000000          2/16
   5:     0.37500000   -0.12500000    0.00000000          2/16
   6:     0.37500000    0.12500000    0.00000000          2/16
   7:     0.37500000    0.37500000    0.00000000          2/16

Wave functions: Uniform real-space grid
  Kinetic energy operator: 6*3+1=19 point O(h^6) finite-difference Laplacian
  ScaLapack parameters: grid=1x1, blocksize=None
  Wavefunction extrapolation:
    Improved wavefunction reuse through dual PAW basis 

Occupation numbers: Fermi-Dirac:
  width: 0.0500  # eV
 

Eigensolver
   Davidson(niter=2) 

Densities:
  Coarse grid: 60*60*156 grid
  Fine grid: 120*120*312 grid
  Total Charge: 0.000000 

Density mixing:
  Method: separate
  Backend: pulay
  Linear mixing parameter: 0.05
  old densities: 5
  Damping of long wavelength oscillations: 50 

Hamiltonian:
  XC and Coulomb potentials evaluated on a 120*120*312 grid
  Using the BEEF-vdW Exchange-Correlation functional
  Interpolation: tri-quintic (5. degree polynomial)
  Poisson solver: FastPoissonSolver using
    Stencil: 6*3+1=19 point O(h^6) finite-difference Laplacian
    FFT axes: [0, 1]
    FST axes: [2]

Dipole correction along z-axis 

XC parameters: BEEF-vdW with 2 nearest neighbor stencil

Memory estimate:
  Process memory now: 211.77 MiB
  Calculator: 298.81 MiB
    Density: 88.21 MiB
      Arrays: 27.47 MiB
      Localized functions: 50.30 MiB
      Mixer: 10.44 MiB
    Hamiltonian: 21.93 MiB
      Arrays: 17.96 MiB
      XC: 0.00 MiB
      Poisson: 0.00 MiB
      vbar: 3.97 MiB
    Wavefunctions: 188.67 MiB
      Arrays psit_nG: 87.67 MiB
      Eigensolver: 98.38 MiB
      Projections: 0.04 MiB
      Projectors: 2.58 MiB

Total number of cores used: 32
Parallelization over k-points: 8
Domain decomposition: 1 x 1 x 4

Number of atoms: 46
Number of atomic orbitals: 166
Number of bands in calculation: 42
Number of valence electrons: 62
Bands to converge: occupied

... initialized

Initializing position-dependent things.

Density initialized from atomic densities
Creating initial wave functions:
  42 bands from LCAO basis set

       .-----------------------.  
      /|                       |  
     / |                       |  
    /  |                       |  
   /   |                       |  
  /    |                       |  
 *     |                       |  
 |     |                       |  
 |     |                       |  
 |     |                       |  
 |    H|                       |  
 |  O C|                       |  
 |H    | H                H    |  
 |O  C H                       |  
 |   Hi|     Li      Li        |  
 |     |  Li      Li      Li   |  
 | Li  |   Li      Li          |  
 |     |Li      Li      Li     |  
 Li    | Li      Li            |  
 |   LLi     LLi     LLi       |  
 |     |  Li      Li      Li   |  
 | Li  |   Li      Li          |  
 |     |Li      Li      Li     |  
 Li    | Li      Li            |  
 |    Li      Li      Li       |  
 |     |                       |  
 |     |                       |  
 |     |                       |  
 |     |                       |  
 |     |                       |  
 |     |                       |  
 |     .-----------------------.  
 |    /                       /   
 |   /                       /    
 |  /                       /     
 | /                       /      
 |/                       /       
 *-----------------------*        

Positions:
   0 Li     1.617037    1.617037   10.000000    ( 0.0000,  0.0000,  0.0000)
   1 Li     4.851111    1.617037   10.000000    ( 0.0000,  0.0000,  0.0000)
   2 Li     8.085185    1.617037   10.000000    ( 0.0000,  0.0000,  0.0000)
   3 Li     1.617037    4.851111   10.000000    ( 0.0000,  0.0000,  0.0000)
   4 Li     4.851111    4.851111   10.000000    ( 0.0000,  0.0000,  0.0000)
   5 Li     8.085185    4.851111   10.000000    ( 0.0000,  0.0000,  0.0000)
   6 Li     1.617037    8.085185   10.000000    ( 0.0000,  0.0000,  0.0000)
   7 Li     4.851111    8.085185   10.000000    ( 0.0000,  0.0000,  0.0000)
   8 Li     8.085185    8.085185   10.000000    ( 0.0000,  0.0000,  0.0000)
   9 Li     0.000000    0.000000   11.617037    ( 0.0000,  0.0000,  0.0000)
  10 Li     3.234074    0.000000   11.617037    ( 0.0000,  0.0000,  0.0000)
  11 Li     6.468148    0.000000   11.617037    ( 0.0000,  0.0000,  0.0000)
  12 Li     0.000000    3.234074   11.617037    ( 0.0000,  0.0000,  0.0000)
  13 Li     3.234074    3.234074   11.617037    ( 0.0000,  0.0000,  0.0000)
  14 Li     6.468148    3.234074   11.617037    ( 0.0000,  0.0000,  0.0000)
  15 Li     0.000000    6.468148   11.617037    ( 0.0000,  0.0000,  0.0000)
  16 Li     3.234074    6.468148   11.617037    ( 0.0000,  0.0000,  0.0000)
  17 Li     6.468148    6.468148   11.617037    ( 0.0000,  0.0000,  0.0000)
  18 Li     1.617038    1.617038   13.469728    ( 0.0000,  0.0000,  0.0000)
  19 Li     4.851111    1.617038   13.469729    ( 0.0000,  0.0000,  0.0000)
  20 Li     8.085184    1.617038   13.469728    ( 0.0000,  0.0000,  0.0000)
  21 Li     1.617038    4.851111   13.469729    ( 0.0000,  0.0000,  0.0000)
  22 Li     4.851111    4.851111   13.469730    ( 0.0000,  0.0000,  0.0000)
  23 Li     8.085184    4.851111   13.469729    ( 0.0000,  0.0000,  0.0000)
  24 Li     1.617038    8.085184   13.469728    ( 0.0000,  0.0000,  0.0000)
  25 Li     4.851111    8.085184   13.469729    ( 0.0000,  0.0000,  0.0000)
  26 Li     8.085184    8.085184   13.469728    ( 0.0000,  0.0000,  0.0000)
  27 Li    -0.000000   -0.000000   15.445939    ( 0.0000,  0.0000,  0.0000)
  28 Li     3.234074    0.000000   15.445939    ( 0.0000,  0.0000,  0.0000)
  29 Li     6.468148    0.000000   15.445939    ( 0.0000,  0.0000,  0.0000)
  30 Li     0.000000    3.234074   15.445939    ( 0.0000,  0.0000,  0.0000)
  31 Li     3.234076    3.234076   15.445938    ( 0.0000,  0.0000,  0.0000)
  32 Li     6.468146    3.234076   15.445938    ( 0.0000,  0.0000,  0.0000)
  33 Li     0.000000    6.468148   15.445939    ( 0.0000,  0.0000,  0.0000)
  34 Li     3.234076    6.468146   15.445938    ( 0.0000,  0.0000,  0.0000)
  35 Li     6.468146    6.468146   15.445938    ( 0.0000,  0.0000,  0.0000)
  36 O      0.000000    1.617037   18.445939    ( 0.0000,  0.0000,  0.0000)
  37 O      0.043994    4.515235   18.213250    ( 0.0000,  0.0000,  0.0000)
  38 C      1.171212    2.345598   18.033562    ( 0.0000,  0.0000,  0.0000)
  39 C      1.184902    3.754783   18.602713    ( 0.0000,  0.0000,  0.0000)
  40 H      2.085602    1.817472   18.326395    ( 0.0000,  0.0000,  0.0000)
  41 H      1.123914    2.378347   16.943996    ( 0.0000,  0.0000,  0.0000)
  42 H      2.059168    4.291502   18.226232    ( 0.0000,  0.0000,  0.0000)
  43 H      1.260403    3.705053   19.701774    ( 0.0000,  0.0000,  0.0000)
  44 H      0.074515    1.447612   19.393261    ( 0.0000,  0.0000,  0.0000)
  45 H     -0.723127    3.935769   18.309689    ( 0.0000,  0.0000,  0.0000)

Unit cell:
           periodic     x           y           z      points  spacing
  1. axis:    yes    9.702222    0.000000    0.000000    60     0.1617
  2. axis:    yes    0.000000    9.702222    0.000000    60     0.1617
  3. axis:    no     0.000000    0.000000   24.851111   156     0.1593

  Lengths:   9.702222   9.702222  24.851111
  Angles:   90.000000  90.000000  90.000000

Effective grid spacing dv^(1/3) = 0.1609

     iter     time        total  log10-change:
                         energy  eigst   dens
iter:   1 12:33:24  -487.276105
iter:   2 12:34:50  -127.694881  +2.43  -0.06
iter:   3 12:36:41   -81.689602  +3.25  -0.19
iter:   4 12:38:05  -141.967992  +2.89  -0.21
Writing to output.gpw (mode='')

iter:   5 12:39:20  -230.367168  +2.85  -0.34
iter:   6 12:40:33  -269.035514  +2.80  -0.41
iter:   7 12:42:06  -328.328106  +2.60  -0.58
iter:   8 12:43:36  -340.212088  +2.32  -0.48
iter:   9 12:46:34  -317.067470  +2.00  -0.48
Writing to output.gpw (mode='')

iter:  10 12:48:13  -321.262700  +1.64  -0.49
iter:  11 12:49:43  -393.816524  +2.25  -0.45
iter:  12 12:51:44  -354.931236  +1.44  -0.38
iter:  13 12:54:26  -295.350671  +1.38  -0.40
iter:  14 12:56:01  -295.455492  +0.85  -0.72
Writing to output.gpw (mode='')

iter:  15 12:57:31  -292.965513  +0.48  -0.73
iter:  16 12:59:55  -293.601123  +0.60  -0.79
iter:  17 13:01:22  -294.486855  +0.94  -0.78
iter:  18 13:04:23  -291.094544  +0.56  -0.85
iter:  19 13:08:47  -291.500182  +0.39  -1.11
Writing to output.gpw (mode='')

iter:  20 13:14:16  -291.289470  +0.27  -1.08
iter:  21 13:19:29  -290.853474  +0.31  -1.21
iter:  22 13:23:24  -290.997609  +0.08  -1.27
iter:  23 13:26:41  -290.769370  -0.80  -1.40
iter:  24 13:30:09  -290.738918  -0.98  -1.48
Writing to output.gpw (mode='')

iter:  25 13:33:57  -290.619630  -0.86  -1.52
iter:  26 13:36:27  -290.620993  -0.64  -1.71
iter:  27 13:40:44  -290.611479c -1.23  -1.92
iter:  28 13:44:16  -290.611882c -1.46  -2.03
iter:  29 13:49:02  -290.610900c -1.43  -2.10
Writing to output.gpw (mode='')

iter:  30 13:55:07  -290.613157c -1.72  -2.23
iter:  31 13:59:18  -290.614017c -1.90  -2.35
iter:  32 14:05:02  -290.613485c -1.79  -2.43
iter:  33 14:09:13  -290.614764c -2.16  -2.62
iter:  34 14:12:24  -290.615815c -2.13  -2.68
Writing to output.gpw (mode='')

iter:  35 14:15:22  -290.616669c -2.20  -2.78
iter:  36 14:18:14  -290.617233c -2.41  -2.82
iter:  37 14:23:40  -290.617606c -2.48  -2.85
iter:  38 14:30:16  -290.617991c -2.75  -2.98
iter:  39 14:34:07  -290.618655c -2.54  -3.03
Writing to output.gpw (mode='')

iter:  40 14:42:28  -290.618682c -2.83  -3.03
iter:  41 14:46:11  -290.618924c -2.83  -3.21
iter:  42 14:53:46  -290.619071c -3.04  -3.29
iter:  43 14:59:13  -290.619234c -3.02  -3.42
iter:  44 15:05:13  -290.619323c -3.26  -3.42
Writing to output.gpw (mode='')

iter:  45 15:10:48  -290.619430c -3.07  -3.46
iter:  46 15:13:47  -290.619549c -3.47  -3.49
iter:  47 15:19:35  -290.619596c -3.49  -3.65
iter:  48 15:23:35  -290.619643c -3.50  -3.73
iter:  49 15:26:02  -290.619694c -3.57  -3.76
Writing to output.gpw (mode='')

iter:  50 15:30:06  -290.619739c -3.57  -3.89
iter:  51 15:33:01  -290.619767c -3.79  -4.00
iter:  52 15:39:27  -290.619792c -3.81  -4.11c
iter:  53 15:43:43  -290.619816c -3.83  -4.16c
iter:  54 15:50:14  -290.619832c -4.03  -4.21c
Writing to output.gpw (mode='')

iter:  55 15:57:20  -290.619846c -4.04  -4.28c
iter:  56 16:01:20  -290.619856c -4.23  -4.38c
iter:  57 16:05:02  -290.619867c -4.27  -4.47c
iter:  58 16:09:33  -290.619874c -4.41  -4.45c
iter:  59 16:15:38  -290.619879c -4.36  -4.45c
Writing to output.gpw (mode='')

iter:  60 16:18:34  -290.619884c -4.51  -4.49c
iter:  61 16:21:38  -290.619889c -4.48  -4.46c
iter:  62 16:25:37  -290.619893c -4.51  -4.38c
iter:  63 16:28:53  -290.619896c -4.60  -4.51c
iter:  64 16:32:36  -290.619899c -4.71  -4.51c
Writing to output.gpw (mode='')

iter:  65 16:36:16  -290.619902c -4.77  -4.69c
iter:  66 16:40:19  -290.619904c -4.85  -4.94c
iter:  67 16:43:57  -290.619905c -4.91  -4.99c
iter:  68 16:48:10  -290.619906c -4.86  -5.01c
iter:  69 16:51:59  -290.619908c -4.96  -5.08c
Writing to output.gpw (mode='')

iter:  70 16:55:26  -290.619909c -5.02  -5.14c
iter:  71 16:58:24  -290.619910c -5.06  -5.10c
iter:  72 17:02:08  -290.619910c -5.16  -5.07c
iter:  73 17:08:10  -290.619911c -5.24  -5.06c
iter:  74 17:10:58  -290.619911c -5.22  -4.86c
Writing to output.gpw (mode='')

iter:  75 17:14:01  -290.619912c -5.27  -4.96c
iter:  76 17:19:21  -290.619912c -5.34  -4.97c
iter:  77 17:21:57  -290.619912c -5.37  -4.91c
iter:  78 17:24:05  -290.619912c -5.45  -4.90c
iter:  79 17:26:09  -290.619913c -5.49  -4.81c
Writing to output.gpw (mode='')

iter:  80 17:28:29  -290.619913c -5.53  -4.89c
iter:  81 17:30:46  -290.619913c -5.56  -4.89c
iter:  82 17:33:20  -290.619913c -5.64  -4.96c
iter:  83 17:35:22  -290.619913c -5.53  -4.78c
iter:  84 17:38:30  -290.619913c -5.60  -5.04c
Writing to output.gpw (mode='')

iter:  85 17:42:06  -290.619913c -5.69  -5.30c
iter:  86 17:44:44  -290.619913c -5.76  -5.35c
iter:  87 17:46:58  -290.619913c -5.77  -5.41c
iter:  88 17:50:55  -290.619913c -5.83  -5.43c
iter:  89 17:54:20  -290.619913c -5.89  -5.46c
Writing to output.gpw (mode='')

iter:  90 17:58:14  -290.619913c -5.93  -5.48c
iter:  91 18:01:30  -290.619913c -5.98  -5.48c
iter:  92 18:04:17  -290.619913c -6.08  -5.40c
iter:  93 18:08:32  -290.619913c -6.10  -5.56c
iter:  94 18:12:17  -290.619913c -6.12  -5.47c
Writing to output.gpw (mode='')

iter:  95 18:15:25  -290.619913c -6.02  -5.49c
iter:  96 18:18:46  -290.619913c -6.20  -5.43c
iter:  97 18:21:10  -290.619913c -6.28  -5.51c
iter:  98 18:24:35  -290.619913c -6.33  -5.62c
iter:  99 18:28:19  -290.619913c -6.27  -5.67c
Writing to output.gpw (mode='')

iter: 100 18:32:38  -290.619913c -6.40  -5.71c
iter: 101 18:37:24  -290.619913c -6.40  -5.74c
iter: 102 18:41:52  -290.619913c -6.48  -5.96c
iter: 103 18:45:08  -290.619913c -6.48  -6.05c
iter: 104 18:49:34  -290.619913c -6.54  -6.10c
Writing to output.gpw (mode='')

iter: 105 18:54:25  -290.619913c -6.60  -6.09c
iter: 106 18:57:11  -290.619913c -6.69  -5.87c
iter: 107 18:59:33  -290.619913c -6.74  -6.33c
iter: 108 19:02:21  -290.619913c -6.72  -6.38c
iter: 109 19:04:46  -290.619913c -6.76  -6.49c
Writing to output.gpw (mode='')

iter: 110 19:07:00  -290.619913c -6.79  -6.55c
iter: 111 19:10:04  -290.619913c -6.87  -6.52c
iter: 112 19:12:41  -290.619913c -6.93  -6.48c
iter: 113 19:15:50  -290.619913c -6.97  -6.19c
iter: 114 19:18:36  -290.619913c -7.01  -6.20c
Writing to output.gpw (mode='')

iter: 115 19:21:57  -290.619913c -6.93  -6.11c
iter: 116 19:25:01  -290.619913c -7.07  -6.05c
iter: 117 19:29:02  -290.619913c -7.13  -6.13c
iter: 118 19:32:01  -290.619913c -7.13  -6.12c
iter: 119 19:34:59  -290.619913c -7.17  -6.04c
Writing to output.gpw (mode='')

iter: 120 19:37:34  -290.619913c -7.20  -5.87c
iter: 121 19:40:09  -290.619913c -7.25  -6.21c
iter: 122 19:42:25  -290.619913c -7.23  -5.96c
iter: 123 19:45:06  -290.619913c -7.26  -6.23c
iter: 124 19:47:46  -290.619913c -7.31  -6.25c
Writing to output.gpw (mode='')

iter: 125 19:49:50  -290.619913c -7.32  -6.41c
iter: 126 19:51:45  -290.619913c -7.39  -6.51c
iter: 127 19:53:41  -290.619913c -7.40c -6.62c

Converged after 127 iterations.

Dipole moment: (-17.505776, -3.307892, 0.416355) |e|*Ang

Energy contributions relative to reference atoms: (reference = -13512.263335)

Kinetic:       +140.543100
Potential:     -131.676034
External:        +0.000000
XC:            -300.019474
Entropy (-ST):   -0.151448
Local:           +0.608219
--------------------------
Free energy:   -290.695637
Extrapolated:  -290.619913

Dipole-layer corrected work functions: 3.389521, 2.589144 eV

Showing only first 2 kpts
 Kpt  Band  Eigenvalues  Occupancy
  0    29     -3.24340    1.98765
  0    30     -3.15746    1.93303
  0    31     -2.82520    0.07235
  0    32     -2.73766    0.01295

  1    29     -3.01581    1.25872
  1    30     -2.98163    0.92313
  1    31     -2.95555    0.67450
  1    32     -2.93298    0.48943


Fermi level: -2.98933

No gap
Writing to output.gpw (mode='')


Forces in eV/Ang:
  0 Li    0.00317   -0.00536   -0.26950
  1 Li    0.00381    0.00185   -0.27335
  2 Li   -0.00672   -0.00101   -0.27003
  3 Li    0.00352    0.00783   -0.27033
  4 Li   -0.00039   -0.00319   -0.27298
  5 Li   -0.00301    0.00006   -0.27077
  6 Li   -0.00082   -0.00294   -0.27120
  7 Li   -0.00359    0.00175   -0.27789
  8 Li    0.00423    0.00124   -0.27233
  9 Li   -0.00177   -0.00298    0.25359
 10 Li   -0.00273   -0.00655    0.25405
 11 Li    0.00405    0.00580    0.26371
 12 Li    0.00303    0.00224    0.27739
 13 Li    0.00821   -0.00140    0.25574
 14 Li   -0.01177   -0.00098    0.25104
 15 Li    0.00012    0.00151    0.25996
 16 Li    0.00026    0.00855    0.25497
 17 Li   -0.00034   -0.00525    0.26367
 18 Li   -0.00175    0.00228    0.01263
 19 Li   -0.00933   -0.00454    0.04908
 20 Li    0.01000    0.01155    0.04100
 21 Li    0.00862   -0.00490    0.02388
 22 Li   -0.00706    0.00149    0.04758
 23 Li   -0.00154   -0.00963    0.02821
 24 Li   -0.00742    0.00372    0.05604
 25 Li    0.00568    0.00237    0.02849
 26 Li    0.00214   -0.00271    0.03930
 27 Li   -0.04474   -0.05258   -0.01190
 28 Li    0.04537   -0.04497   -0.08369
 29 Li   -0.00908    0.01270   -0.01490
 30 Li   -0.16778    0.17760   -0.19813
 31 Li    0.13678    0.03232   -0.19315
 32 Li   -0.03710   -0.00959   -0.03964
 33 Li    0.00487   -0.02642    0.06356
 34 Li    0.01311    0.01056   -0.04098
 35 Li   -0.01437   -0.00485   -0.02187
 36 O    -0.00333    0.03068   -0.17342
 37 O    -0.00990    0.02740   -0.26006
 38 C    -0.18638    0.12459    0.75358
 39 C     0.15630   -0.02088    0.19633
 40 H     0.07750   -0.04879   -0.12686
 41 H     0.18899   -0.18616   -0.12783
 42 H     0.05488    0.03556    0.01622
 43 H     0.01989    0.02608   -0.06533
 44 H    -0.00505   -0.07069    0.02817
 45 H    -0.21798   -0.00850    0.06652

System changes: positions 

Initializing position-dependent things.

Density initialized from wave functions
       .-----------------------.  
      /|                       |  
     / |                       |  
    /  |                       |  
   /   |                       |  
  /    |                       |  
 *     |                       |  
 |     |                       |  
 |     |                       |  
 |     |                       |  
 |    H|                       |  
 |  O C|                       |  
 |H    | H     Li         H    Li 
 |   C H                  O    |  
 |   Hi|     Li      Li        |  
 |     |  Li      Li      Li   |  
 |     |   Li      Li      Li  |  
 |     |Li      Li      Li     |  
 |     |         Li            |  
 |   LLi     LLi     LLi       |  
 |     |  Li      Li      Li   |  
 | Li  |   Li      Li          |  
 |     |Li      Li      Li     |  
 Li    | Li      Li            |  
 |    Li      Li      Li       |  
 |     |                       |  
 |     |                       |  
 |     |                       |  
 |     |                       |  
 |     |                       |  
 |     |                       |  
 |     .-----------------------.  
 |    /                       /   
 |   /                       /    
 |  /                       /     
 | /                       /      
 |/                       /       
 *-----------------------*        

Positions:
   0 Li     1.617037    1.617037   10.000000    ( 0.0000,  0.0000,  0.0000)
   1 Li     4.851111    1.617037   10.000000    ( 0.0000,  0.0000,  0.0000)
   2 Li     8.085185    1.617037   10.000000    ( 0.0000,  0.0000,  0.0000)
   3 Li     1.617037    4.851111   10.000000    ( 0.0000,  0.0000,  0.0000)
   4 Li     4.851111    4.851111   10.000000    ( 0.0000,  0.0000,  0.0000)
   5 Li     8.085185    4.851111   10.000000    ( 0.0000,  0.0000,  0.0000)
   6 Li     1.617037    8.085185   10.000000    ( 0.0000,  0.0000,  0.0000)
   7 Li     4.851111    8.085185   10.000000    ( 0.0000,  0.0000,  0.0000)
   8 Li     8.085185    8.085185   10.000000    ( 0.0000,  0.0000,  0.0000)
   9 Li     0.000000    0.000000   11.617037    ( 0.0000,  0.0000,  0.0000)
  10 Li     3.234074    0.000000   11.617037    ( 0.0000,  0.0000,  0.0000)
  11 Li     6.468148    0.000000   11.617037    ( 0.0000,  0.0000,  0.0000)
  12 Li     0.000000    3.234074   11.617037    ( 0.0000,  0.0000,  0.0000)
  13 Li     3.234074    3.234074   11.617037    ( 0.0000,  0.0000,  0.0000)
  14 Li     6.468148    3.234074   11.617037    ( 0.0000,  0.0000,  0.0000)
  15 Li     0.000000    6.468148   11.617037    ( 0.0000,  0.0000,  0.0000)
  16 Li     3.234074    6.468148   11.617037    ( 0.0000,  0.0000,  0.0000)
  17 Li     6.468148    6.468148   11.617037    ( 0.0000,  0.0000,  0.0000)
  18 Li     1.617013    1.617071   13.469908    ( 0.0000,  0.0000,  0.0000)
  19 Li     4.850978    1.616974   13.470431    ( 0.0000,  0.0000,  0.0000)
  20 Li     8.085327    1.617203   13.470314    ( 0.0000,  0.0000,  0.0000)
  21 Li     1.617162    4.851041   13.470071    ( 0.0000,  0.0000,  0.0000)
  22 Li     4.851010    4.851132   13.470410    ( 0.0000,  0.0000,  0.0000)
  23 Li     8.085162    4.850973   13.470132    ( 0.0000,  0.0000,  0.0000)
  24 Li     1.616932    8.085237   13.470528    ( 0.0000,  0.0000,  0.0000)
  25 Li     4.851192    8.085217   13.470136    ( 0.0000,  0.0000,  0.0000)
  26 Li     8.085214    8.085145   13.470289    ( 0.0000,  0.0000,  0.0000)
  27 Li    -0.000639   -0.000751   15.445769    ( 0.0000,  0.0000,  0.0000)
  28 Li     3.234722   -0.000642   15.444743    ( 0.0000,  0.0000,  0.0000)
  29 Li     6.468019    0.000181   15.445726    ( 0.0000,  0.0000,  0.0000)
  30 Li    -0.002397    3.236611   15.443108    ( 0.0000,  0.0000,  0.0000)
  31 Li     3.236030    3.234538   15.443179    ( 0.0000,  0.0000,  0.0000)
  32 Li     6.467616    3.233939   15.445372    ( 0.0000,  0.0000,  0.0000)
  33 Li     0.000070    6.467771   15.446847    ( 0.0000,  0.0000,  0.0000)
  34 Li     3.234264    6.468296   15.445353    ( 0.0000,  0.0000,  0.0000)
  35 Li     6.467940    6.468076   15.445626    ( 0.0000,  0.0000,  0.0000)
  36 O     -0.000048    1.617475   18.443462    ( 0.0000,  0.0000,  0.0000)
  37 O      0.043852    4.515626   18.209535    ( 0.0000,  0.0000,  0.0000)
  38 C      1.168549    2.347378   18.044327    ( 0.0000,  0.0000,  0.0000)
  39 C      1.187135    3.754485   18.605518    ( 0.0000,  0.0000,  0.0000)
  40 H      2.086710    1.816775   18.324583    ( 0.0000,  0.0000,  0.0000)
  41 H      1.126614    2.375687   16.942169    ( 0.0000,  0.0000,  0.0000)
  42 H      2.059952    4.292010   18.226464    ( 0.0000,  0.0000,  0.0000)
  43 H      1.260688    3.705426   19.700841    ( 0.0000,  0.0000,  0.0000)
  44 H      0.074443    1.446603   19.393663    ( 0.0000,  0.0000,  0.0000)
  45 H     -0.726241    3.935648   18.310640    ( 0.0000,  0.0000,  0.0000)

Unit cell:
           periodic     x           y           z      points  spacing
  1. axis:    yes    9.702222    0.000000    0.000000    60     0.1617
  2. axis:    yes    0.000000    9.702222    0.000000    60     0.1617
  3. axis:    no     0.000000    0.000000   24.851111   156     0.1593

  Lengths:   9.702222   9.702222  24.851111
  Angles:   90.000000  90.000000  90.000000

Effective grid spacing dv^(1/3) = 0.1609

     iter     time        total  log10-change:
                         energy  eigst   dens
iter:   1 19:56:30  -290.634492  -1.99
iter:   2 19:58:41  -290.633529  -2.63  -2.42
iter:   3 20:01:47  -290.632975c -3.24  -2.50
iter:   4 20:03:49  -290.631647c -2.47  -2.67
Writing to output.gpw (mode='')

iter:   5 20:06:20  -290.631405c -3.57  -2.73
iter:   6 20:10:00  -290.631215c -3.10  -2.94
iter:   7 20:14:09  -290.631423c -2.98  -3.05
iter:   8 20:17:13  -290.631223c -3.81  -3.01
iter:   9 20:20:42  -290.631215c -4.12  -3.20
Writing to output.gpw (mode='')

iter:  10 20:24:06  -290.631184c -4.15  -3.29
iter:  11 20:27:01  -290.631166c -4.14  -3.53
iter:  12 20:30:44  -290.631169c -5.16  -3.58
iter:  13 20:34:09  -290.631173c -5.34  -3.63
iter:  14 20:37:55  -290.631188c -4.78  -3.77
Writing to output.gpw (mode='')

iter:  15 20:39:58  -290.631181c -5.56  -3.80
iter:  16 20:42:49  -290.631179c -5.86  -3.94
iter:  17 20:45:20  -290.631174c -5.38  -4.04c
iter:  18 20:47:38  -290.631175c -6.04  -4.19c
iter:  19 20:50:51  -290.631175c -6.35  -4.43c
Writing to output.gpw (mode='')

iter:  20 20:54:16  -290.631175c -6.72  -4.57c
iter:  21 20:58:07  -290.631175c -6.78  -4.62c
iter:  22 21:01:50  -290.631175c -6.66  -4.69c
iter:  23 21:05:34  -290.631175c -7.18  -4.92c
iter:  24 21:09:04  -290.631175c -7.30  -4.97c
Writing to output.gpw (mode='')

iter:  25 21:14:40  -290.631175c -7.52c -5.03c

Converged after 25 iterations.

Dipole moment: (-17.451127, -3.294877, 0.419039) |e|*Ang

Energy contributions relative to reference atoms: (reference = -13512.263335)

Kinetic:       +140.165864
Potential:     -131.417284
External:        +0.000000
XC:            -299.911987
Entropy (-ST):   -0.151439
Local:           +0.607951
--------------------------
Free energy:   -290.706895
Extrapolated:  -290.631175

Dipole-layer corrected work functions: 3.389141, 2.583604 eV

Showing only first 2 kpts
 Kpt  Band  Eigenvalues  Occupancy
  0    29     -3.24043    1.98765
  0    30     -3.15455    1.93310
  0    31     -2.82197    0.07197
  0    32     -2.73474    0.01296

  1    29     -3.01262    1.25661
  1    30     -2.97874    0.92385
  1    31     -2.95263    0.67482
  1    32     -2.92978    0.48764


Fermi level: -2.98637

No gap

Forces in eV/Ang:
  0 Li    0.00319   -0.00540   -0.26972
  1 Li    0.00373    0.00186   -0.27345
  2 Li   -0.00669   -0.00098   -0.27012
  3 Li    0.00356    0.00780   -0.27050
  4 Li   -0.00034   -0.00325   -0.27297
  5 Li   -0.00307    0.00005   -0.27090
  6 Li   -0.00082   -0.00284   -0.27120
  7 Li   -0.00360    0.00174   -0.27794
  8 Li    0.00428    0.00121   -0.27226
  9 Li   -0.00184   -0.00314    0.25407
 10 Li   -0.00284   -0.00664    0.25483
 11 Li    0.00424    0.00582    0.26425
 12 Li    0.00298    0.00237    0.27823
 13 Li    0.00846   -0.00143    0.25657
 14 Li   -0.01190   -0.00104    0.25170
 15 Li    0.00011    0.00143    0.26053
 16 Li    0.00039    0.00866    0.25551
 17 Li   -0.00052   -0.00516    0.26402
 18 Li   -0.00220    0.00207    0.01231
 19 Li   -0.00851   -0.00488    0.04661
 20 Li    0.00924    0.01080    0.03891
 21 Li    0.00871   -0.00366    0.02119
 22 Li   -0.00648    0.00206    0.04549
 23 Li   -0.00252   -0.00828    0.02593
 24 Li   -0.00766    0.00316    0.05462
 25 Li    0.00588    0.00221    0.02713
 26 Li    0.00213   -0.00294    0.03863
 27 Li   -0.04302   -0.04959   -0.01036
 28 Li    0.04425   -0.04383   -0.08152
 29 Li   -0.00921    0.01234   -0.01460
 30 Li   -0.15799    0.17128   -0.18093
 31 Li    0.13048    0.03018   -0.18693
 32 Li   -0.03716   -0.00923   -0.03901
 33 Li    0.00453   -0.02574    0.06412
 34 Li    0.01337    0.01083   -0.04042
 35 Li   -0.01408   -0.00495   -0.02122
 36 O    -0.02621   -0.00906    0.09279
 37 O    -0.05811   -0.09093   -0.19892
 38 C    -0.02692    0.03730    0.11547
 39 C     0.03453    0.06850    0.10548
 40 H     0.04368   -0.03721   -0.06233
 41 H     0.19161   -0.14873    0.19825
 42 H     0.05662    0.01148    0.02262
 43 H     0.01820    0.06465    0.05297
 44 H    -0.06157   -0.06958   -0.10464
 45 H    -0.09068    0.07706    0.04837

System changes: positions 

Initializing position-dependent things.

Density initialized from wave functions
       .-----------------------.  
      /|                       |  
     / |                       |  
    /  |                       |  
   /   |                       |  
  /    |                       |  
 *     |                       |  
 |     |                       |  
 |     |                       |  
 |     |                       |  
 |    H|                       |  
 |    C|                       |  
 |H O  | H     Li         H    Li 
 |   C H                  O    |  
 |   Hi|     Li      Li        |  
 |     |  Li      Li      Li   |  
 |     |   Li      Li      Li  |  
 |     |Li      Li      Li     |  
 |     |         Li            |  
 |   LLi     LLi     LLi       |  
 |     |  Li      Li      Li   |  
 | Li  |   Li      Li          |  
 |     |Li      Li      Li     |  
 Li    | Li      Li            |  
 |    Li      Li      Li       |  
 |     |                       |  
 |     |                       |  
 |     |                       |  
 |     |                       |  
 |     |                       |  
 |     |                       |  
 |     .-----------------------.  
 |    /                       /   
 |   /                       /    
 |  /                       /     
 | /                       /      
 |/                       /       
 *-----------------------*        

Positions:
   0 Li     1.617037    1.617037   10.000000    ( 0.0000,  0.0000,  0.0000)
   1 Li     4.851111    1.617037   10.000000    ( 0.0000,  0.0000,  0.0000)
   2 Li     8.085185    1.617037   10.000000    ( 0.0000,  0.0000,  0.0000)
   3 Li     1.617037    4.851111   10.000000    ( 0.0000,  0.0000,  0.0000)
   4 Li     4.851111    4.851111   10.000000    ( 0.0000,  0.0000,  0.0000)
   5 Li     8.085185    4.851111   10.000000    ( 0.0000,  0.0000,  0.0000)
   6 Li     1.617037    8.085185   10.000000    ( 0.0000,  0.0000,  0.0000)
   7 Li     4.851111    8.085185   10.000000    ( 0.0000,  0.0000,  0.0000)
   8 Li     8.085185    8.085185   10.000000    ( 0.0000,  0.0000,  0.0000)
   9 Li     0.000000    0.000000   11.617037    ( 0.0000,  0.0000,  0.0000)
  10 Li     3.234074    0.000000   11.617037    ( 0.0000,  0.0000,  0.0000)
  11 Li     6.468148    0.000000   11.617037    ( 0.0000,  0.0000,  0.0000)
  12 Li     0.000000    3.234074   11.617037    ( 0.0000,  0.0000,  0.0000)
  13 Li     3.234074    3.234074   11.617037    ( 0.0000,  0.0000,  0.0000)
  14 Li     6.468148    3.234074   11.617037    ( 0.0000,  0.0000,  0.0000)
  15 Li     0.000000    6.468148   11.617037    ( 0.0000,  0.0000,  0.0000)
  16 Li     3.234074    6.468148   11.617037    ( 0.0000,  0.0000,  0.0000)
  17 Li     6.468148    6.468148   11.617037    ( 0.0000,  0.0000,  0.0000)
  18 Li     1.616949    1.617136   13.470289    ( 0.0000,  0.0000,  0.0000)
  19 Li     4.850709    1.616826   13.471883    ( 0.0000,  0.0000,  0.0000)
  20 Li     8.085617    1.617541   13.471527    ( 0.0000,  0.0000,  0.0000)
  21 Li     1.617429    4.850918   13.470744    ( 0.0000,  0.0000,  0.0000)
  22 Li     4.850806    4.851191   13.471825    ( 0.0000,  0.0000,  0.0000)
  23 Li     8.085092    4.850708   13.470948    ( 0.0000,  0.0000,  0.0000)
  24 Li     1.616699    8.085339   13.472219    ( 0.0000,  0.0000,  0.0000)
  25 Li     4.851371    8.085287   13.470981    ( 0.0000,  0.0000,  0.0000)
  26 Li     8.085280    8.085057   13.471482    ( 0.0000,  0.0000,  0.0000)
  27 Li    -0.001975   -0.002300   15.445438    ( 0.0000,  0.0000,  0.0000)
  28 Li     3.236091   -0.001999   15.442220    ( 0.0000,  0.0000,  0.0000)
  29 Li     6.467736    0.000564   15.445275    ( 0.0000,  0.0000,  0.0000)
  30 Li    -0.007333    3.241927   15.437406    ( 0.0000,  0.0000,  0.0000)
  31 Li     3.240092    3.235483   15.437383    ( 0.0000,  0.0000,  0.0000)
  32 Li     6.466474    3.233653   15.444168    ( 0.0000,  0.0000,  0.0000)
  33 Li     0.000212    6.466974   15.448813    ( 0.0000,  0.0000,  0.0000)
  34 Li     3.234672    6.468627   15.444106    ( 0.0000,  0.0000,  0.0000)
  35 Li     6.467505    6.467925   15.444968    ( 0.0000,  0.0000,  0.0000)
  36 O     -0.000664    1.617525   18.444112    ( 0.0000,  0.0000,  0.0000)
  37 O      0.042465    4.513810   18.202917    ( 0.0000,  0.0000,  0.0000)
  38 C      1.166403    2.349246   18.053152    ( 0.0000,  0.0000,  0.0000)
  39 C      1.189203    3.755851   18.609511    ( 0.0000,  0.0000,  0.0000)
  40 H      2.088332    1.815536   18.322134    ( 0.0000,  0.0000,  0.0000)
  41 H      1.132480    2.370807   16.945565    ( 0.0000,  0.0000,  0.0000)
  42 H      2.061677    4.292562   18.227106    ( 0.0000,  0.0000,  0.0000)
  43 H      1.261261    3.707094   19.701490    ( 0.0000,  0.0000,  0.0000)
  44 H      0.073018    1.444455   19.391546    ( 0.0000,  0.0000,  0.0000)
  45 H     -0.730080    3.937308   18.312276    ( 0.0000,  0.0000,  0.0000)

Unit cell:
           periodic     x           y           z      points  spacing
  1. axis:    yes    9.702222    0.000000    0.000000    60     0.1617
  2. axis:    yes    0.000000    9.702222    0.000000    60     0.1617
  3. axis:    no     0.000000    0.000000   24.851111   156     0.1593

  Lengths:   9.702222   9.702222  24.851111
  Angles:   90.000000  90.000000  90.000000

Effective grid spacing dv^(1/3) = 0.1609

     iter     time        total  log10-change:
                         energy  eigst   dens
iter:   1 21:20:02  -290.644019  -1.97
iter:   2 21:23:09  -290.643054  -2.65  -2.37
iter:   3 21:25:26  -290.642730c -3.15  -2.61
iter:   4 21:29:05  -290.641673c -2.93  -2.66
Writing to output.gpw (mode='')

iter:   5 21:31:11  -290.641559c -3.51  -2.89
iter:   6 21:32:54  -290.641420c -3.22  -3.05
iter:   7 21:34:47  -290.641437c -3.35  -3.10
iter:   8 21:36:33  -290.641394c -3.82  -3.16
iter:   9 21:38:49  -290.641393c -4.12  -3.30
Writing to output.gpw (mode='')

iter:  10 21:40:45  -290.641397c -4.16  -3.40
iter:  11 21:43:27  -290.641392c -4.73  -3.68
iter:  12 21:45:28  -290.641395c -5.05  -3.80
iter:  13 21:47:36  -290.641391c -5.38  -3.84
iter:  14 21:49:33  -290.641390c -5.08  -3.94
Writing to output.gpw (mode='')

iter:  15 21:51:58  -290.641388c -5.79  -4.05c
iter:  16 21:53:52  -290.641388c -6.03  -4.16c
iter:  17 21:55:33  -290.641387c -5.83  -4.22c
iter:  18 21:57:35  -290.641387c -6.19  -4.32c
iter:  19 21:59:18  -290.641387c -6.29  -4.40c
Writing to output.gpw (mode='')

iter:  20 22:01:00  -290.641386c -6.63  -4.45c
iter:  21 22:02:34  -290.641386c -6.63  -4.70c
iter:  22 22:04:48  -290.641386c -6.91  -4.77c
iter:  23 22:06:28  -290.641385c -6.98  -4.96c
iter:  24 22:09:16  -290.641385c -7.26  -5.02c
Writing to output.gpw (mode='')

iter:  25 22:11:27  -290.641386c -7.57c -5.04c

Converged after 25 iterations.

Dipole moment: (-17.199466, -3.260255, 0.421363) |e|*Ang

Energy contributions relative to reference atoms: (reference = -13512.263335)

Kinetic:       +140.117962
Potential:     -131.388802
External:        +0.000000
XC:            -299.902452
Entropy (-ST):   -0.151381
Local:           +0.607597
--------------------------
Free energy:   -290.717076
Extrapolated:  -290.641386

Dipole-layer corrected work functions: 3.388753, 2.578749 eV

Showing only first 2 kpts
 Kpt  Band  Eigenvalues  Occupancy
  0    29     -3.23780    1.98765
  0    30     -3.15209    1.93330
  0    31     -2.81887    0.07131
  0    32     -2.73213    0.01296

  1    29     -3.00957    1.25263
  1    30     -2.97621    0.92475
  1    31     -2.95026    0.67706
  1    32     -2.92698    0.48630


Fermi level: -2.98375

No gap

Forces in eV/Ang:
  0 Li    0.00328   -0.00543   -0.27008
  1 Li    0.00364    0.00190   -0.27365
  2 Li   -0.00668   -0.00089   -0.27028
  3 Li    0.00360    0.00777   -0.27080
  4 Li   -0.00030   -0.00338   -0.27300
  5 Li   -0.00315    0.00002   -0.27105
  6 Li   -0.00084   -0.00275   -0.27119
  7 Li   -0.00360    0.00173   -0.27798
  8 Li    0.00437    0.00116   -0.27211
  9 Li   -0.00203   -0.00342    0.25506
 10 Li   -0.00296   -0.00686    0.25630
 11 Li    0.00454    0.00578    0.26542
 12 Li    0.00283    0.00262    0.27962
 13 Li    0.00900   -0.00144    0.25805
 14 Li   -0.01221   -0.00112    0.25310
 15 Li    0.00005    0.00129    0.26156
 16 Li    0.00064    0.00889    0.25672
 17 Li   -0.00075   -0.00500    0.26480
 18 Li   -0.00309    0.00176    0.01193
 19 Li   -0.00692   -0.00566    0.04158
 20 Li    0.00795    0.00934    0.03506
 21 Li    0.00861   -0.00171    0.01715
 22 Li   -0.00502    0.00340    0.04083
 23 Li   -0.00443   -0.00552    0.02172
 24 Li   -0.00815    0.00225    0.05166
 25 Li    0.00634    0.00175    0.02431
 26 Li    0.00205   -0.00349    0.03705
 27 Li   -0.04065   -0.04550   -0.00815
 28 Li    0.04227   -0.04167   -0.07762
 29 Li   -0.00931    0.01168   -0.01389
 30 Li   -0.14292    0.16062   -0.15691
 31 Li    0.12230    0.02793   -0.17834
 32 Li   -0.03680   -0.00853   -0.03773
 33 Li    0.00393   -0.02447    0.06422
 34 Li    0.01347    0.01071   -0.03895
 35 Li   -0.01342   -0.00517   -0.02013
 36 O    -0.04281    0.01917    0.04957
 37 O    -0.00158   -0.10628   -0.13800
 38 C     0.13613   -0.07006   -0.19432
 39 C    -0.08829    0.08029   -0.04563
 40 H    -0.00873   -0.01369    0.00639
 41 H     0.15177   -0.09228    0.31244
 42 H     0.03887   -0.00149    0.03474
 43 H     0.00505    0.10453    0.15179
 44 H    -0.07539   -0.10282    0.01331
 45 H    -0.03900    0.08387    0.04490

System changes: positions 

Initializing position-dependent things.

Density initialized from wave functions
       .-----------------------.  
      /|                       |  
     / |                       |  
    /  |                       |  
   /   |                       |  
  /    |                       |  
 *     |                       |  
 |     |                       |  
 |     |                       |  
 |     |                       |  
 |    H|                       |  
 |    C|                       |  
 |H O  | H     Li         H    Li 
 |   C H                  O    |  
 |   Hi|     Li      Li        |  
 |     |  Li      Li      Li   |  
 |     |   Li      Li      Li  |  
 |     |Li      Li      Li     |  
 |     |         Li            |  
 |   LLi     LLi     LLi       |  
 |     |  Li      Li      Li   |  
 | Li  |   Li      Li          |  
 |     |Li      Li      Li     |  
 Li    | Li      Li            |  
 |    Li      Li      Li       |  
 |     |                       |  
 |     |                       |  
 |     |                       |  
 |     |                       |  
 |     |                       |  
 |     |                       |  
 |     .-----------------------.  
 |    /                       /   
 |   /                       /    
 |  /                       /     
 | /                       /      
 |/                       /       
 *-----------------------*        

Positions:
   0 Li     1.617037    1.617037   10.000000    ( 0.0000,  0.0000,  0.0000)
   1 Li     4.851111    1.617037   10.000000    ( 0.0000,  0.0000,  0.0000)
   2 Li     8.085185    1.617037   10.000000    ( 0.0000,  0.0000,  0.0000)
   3 Li     1.617037    4.851111   10.000000    ( 0.0000,  0.0000,  0.0000)
   4 Li     4.851111    4.851111   10.000000    ( 0.0000,  0.0000,  0.0000)
   5 Li     8.085185    4.851111   10.000000    ( 0.0000,  0.0000,  0.0000)
   6 Li     1.617037    8.085185   10.000000    ( 0.0000,  0.0000,  0.0000)
   7 Li     4.851111    8.085185   10.000000    ( 0.0000,  0.0000,  0.0000)
   8 Li     8.085185    8.085185   10.000000    ( 0.0000,  0.0000,  0.0000)
   9 Li     0.000000    0.000000   11.617037    ( 0.0000,  0.0000,  0.0000)
  10 Li     3.234074    0.000000   11.617037    ( 0.0000,  0.0000,  0.0000)
  11 Li     6.468148    0.000000   11.617037    ( 0.0000,  0.0000,  0.0000)
  12 Li     0.000000    3.234074   11.617037    ( 0.0000,  0.0000,  0.0000)
  13 Li     3.234074    3.234074   11.617037    ( 0.0000,  0.0000,  0.0000)
  14 Li     6.468148    3.234074   11.617037    ( 0.0000,  0.0000,  0.0000)
  15 Li     0.000000    6.468148   11.617037    ( 0.0000,  0.0000,  0.0000)
  16 Li     3.234074    6.468148   11.617037    ( 0.0000,  0.0000,  0.0000)
  17 Li     6.468148    6.468148   11.617037    ( 0.0000,  0.0000,  0.0000)
  18 Li     1.616755    1.617295   13.471263    ( 0.0000,  0.0000,  0.0000)
  19 Li     4.850066    1.616420   13.475484    ( 0.0000,  0.0000,  0.0000)
  20 Li     8.086327    1.618370   13.474545    ( 0.0000,  0.0000,  0.0000)
  21 Li     1.618116    4.850663   13.472360    ( 0.0000,  0.0000,  0.0000)
  22 Li     4.850325    4.851385   13.475340    ( 0.0000,  0.0000,  0.0000)
  23 Li     8.084851    4.850108   13.472926    ( 0.0000,  0.0000,  0.0000)
  24 Li     1.616079    8.085573   13.476501    ( 0.0000,  0.0000,  0.0000)
  25 Li     4.851849    8.085451   13.473079    ( 0.0000,  0.0000,  0.0000)
  26 Li     8.085447    8.084810   13.474520    ( 0.0000,  0.0000,  0.0000)
  27 Li    -0.005361   -0.006181   15.444651    ( 0.0000,  0.0000,  0.0000)
  28 Li     3.239573   -0.005442   15.435811    ( 0.0000,  0.0000,  0.0000)
  29 Li     6.467003    0.001532   15.444130    ( 0.0000,  0.0000,  0.0000)
  30 Li    -0.019637    3.255353   15.423400    ( 0.0000,  0.0000,  0.0000)
  31 Li     3.250352    3.237860   15.422645    ( 0.0000,  0.0000,  0.0000)
  32 Li     6.463530    3.232932   15.441091    ( 0.0000,  0.0000,  0.0000)
  33 Li     0.000560    6.464952   15.453906    ( 0.0000,  0.0000,  0.0000)
  34 Li     3.235734    6.469479   15.440925    ( 0.0000,  0.0000,  0.0000)
  35 Li     6.466400    6.467526   15.443300    ( 0.0000,  0.0000,  0.0000)
  36 O     -0.002768    1.618638   18.443983    ( 0.0000,  0.0000,  0.0000)
  37 O      0.040795    4.508783   18.187679    ( 0.0000,  0.0000,  0.0000)
  38 C      1.165943    2.350700   18.066824    ( 0.0000,  0.0000,  0.0000)
  39 C      1.190722    3.759640   18.615041    ( 0.0000,  0.0000,  0.0000)
  40 H      2.090867    1.813079   18.317944    ( 0.0000,  0.0000,  0.0000)
  41 H      1.146365    2.359961   16.957608    ( 0.0000,  0.0000,  0.0000)
  42 H      2.065563    4.293602   18.229157    ( 0.0000,  0.0000,  0.0000)
  43 H      1.262317    3.712660   19.706229    ( 0.0000,  0.0000,  0.0000)
  44 H      0.068961    1.437805   19.390121    ( 0.0000,  0.0000,  0.0000)
  45 H     -0.738522    3.941703   18.316428    ( 0.0000,  0.0000,  0.0000)

Unit cell:
           periodic     x           y           z      points  spacing
  1. axis:    yes    9.702222    0.000000    0.000000    60     0.1617
  2. axis:    yes    0.000000    9.702222    0.000000    60     0.1617
  3. axis:    no     0.000000    0.000000   24.851111   156     0.1593

  Lengths:   9.702222   9.702222  24.851111
  Angles:   90.000000  90.000000  90.000000

Effective grid spacing dv^(1/3) = 0.1609

     iter     time        total  log10-change:
                         energy  eigst   dens
iter:   1 22:13:56  -290.666871  -1.37
iter:   2 22:16:29  -290.663352  -2.04  -2.07
iter:   3 22:19:27  -290.662004c -2.56  -2.31
iter:   4 22:22:42  -290.658636c -2.53  -2.34
Writing to output.gpw (mode='')

iter:   5 22:25:20  -290.658494c -3.11  -2.59
iter:   6 22:28:24  -290.657942c -2.71  -2.68
iter:   7 22:31:44  -290.657895c -2.69  -2.79
iter:   8 22:35:13  -290.657872c -3.24  -2.97
iter:   9 22:38:24  -290.657884c -3.29  -3.00
Writing to output.gpw (mode='')

iter:  10 22:41:22  -290.657845c -3.60  -3.09
iter:  11 22:44:36  -290.657829c -4.07  -3.38
iter:  12 22:47:31  -290.657836c -4.30  -3.50
iter:  13 22:51:00  -290.657830c -4.77  -3.57
iter:  14 22:55:12  -290.657829c -4.64  -3.69
Writing to output.gpw (mode='')

iter:  15 22:58:45  -290.657828c -4.80  -3.81
iter:  16 23:02:01  -290.657818c -5.22  -3.78
iter:  17 23:05:15  -290.657809c -5.01  -4.00
iter:  18 23:08:06  -290.657810c -5.82  -4.08c
iter:  19 23:10:56  -290.657814c -5.59  -4.23c
Writing to output.gpw (mode='')

iter:  20 23:13:35  -290.657812c -6.14  -4.30c
iter:  21 23:15:58  -290.657812c -6.32  -4.48c
iter:  22 23:18:51  -290.657813c -6.40  -4.51c
iter:  23 23:21:28  -290.657813c -6.50  -4.73c
iter:  24 23:23:55  -290.657813c -6.60  -4.82c
Writing to output.gpw (mode='')

iter:  25 23:27:12  -290.657813c -6.83  -4.87c
iter:  26 23:30:09  -290.657813c -6.87  -4.93c
iter:  27 23:32:55  -290.657814c -7.26  -5.09c
iter:  28 23:35:39  -290.657814c -7.12  -5.21c
iter:  29 23:38:04  -290.657814c -7.23  -5.36c
Writing to output.gpw (mode='')

iter:  30 23:40:31  -290.657814c -7.49c -5.38c

Converged after 30 iterations.

Dipole moment: (-16.635027, -3.171540, 0.424162) |e|*Ang

Energy contributions relative to reference atoms: (reference = -13512.263335)

Kinetic:       +139.857576
Potential:     -131.202838
External:        +0.000000
XC:            -299.844141
Entropy (-ST):   -0.151216
Local:           +0.607197
--------------------------
Free energy:   -290.733422
Extrapolated:  -290.657814

Dipole-layer corrected work functions: 3.388209, 2.572824 eV

Showing only first 2 kpts
 Kpt  Band  Eigenvalues  Occupancy
  0    29     -3.23462    1.98766
  0    30     -3.14922    1.93377
  0    31     -2.81456    0.06984
  0    32     -2.72897    0.01298

  1    29     -3.00534    1.24322
  1    30     -2.97317    0.92665
  1    31     -2.94778    0.68387
  1    32     -2.92346    0.48425


Fermi level: -2.98052

No gap

Forces in eV/Ang:
  0 Li    0.00347   -0.00549   -0.27106
  1 Li    0.00347    0.00193   -0.27432
  2 Li   -0.00672   -0.00068   -0.27088
  3 Li    0.00370    0.00774   -0.27167
  4 Li   -0.00019   -0.00363   -0.27328
  5 Li   -0.00332   -0.00002   -0.27156
  6 Li   -0.00083   -0.00262   -0.27146
  7 Li   -0.00361    0.00174   -0.27836
  8 Li    0.00450    0.00102   -0.27206
  9 Li   -0.00249   -0.00406    0.25760
 10 Li   -0.00323   -0.00740    0.25984
 11 Li    0.00520    0.00570    0.26831
 12 Li    0.00249    0.00320    0.28287
 13 Li    0.01030   -0.00143    0.26173
 14 Li   -0.01296   -0.00131    0.25657
 15 Li   -0.00013    0.00099    0.26400
 16 Li    0.00118    0.00948    0.25972
 17 Li   -0.00121   -0.00465    0.26645
 18 Li   -0.00526    0.00104    0.01027
 19 Li   -0.00298   -0.00769    0.02900
 20 Li    0.00490    0.00575    0.02571
 21 Li    0.00807    0.00287    0.00786
 22 Li   -0.00117    0.00684    0.02879
 23 Li   -0.00913    0.00149    0.01151
 24 Li   -0.00938    0.00009    0.04436
 25 Li    0.00750    0.00054    0.01734
 26 Li    0.00191   -0.00488    0.03301
 27 Li   -0.03577   -0.03666   -0.00249
 28 Li    0.03793   -0.03689   -0.06846
 29 Li   -0.00951    0.01028   -0.01167
 30 Li   -0.11080    0.13583   -0.10798
 31 Li    0.10413    0.02363   -0.15821
 32 Li   -0.03535   -0.00691   -0.03406
 33 Li    0.00265   -0.02095    0.06354
 34 Li    0.01320    0.01014   -0.03483
 35 Li   -0.01163   -0.00580   -0.01717
 36 O    -0.03175    0.02477    0.14472
 37 O     0.02391   -0.12218   -0.01535
 38 C     0.29791   -0.16340   -0.48145
 39 C    -0.16946    0.02858   -0.17759
 40 H    -0.02865   -0.01401    0.16120
 41 H     0.06369    0.01996    0.29801
 42 H    -0.02093   -0.02184    0.05614
 43 H    -0.03976    0.16855    0.17643
 44 H    -0.10462   -0.11656    0.02067
 45 H     0.08942    0.11176    0.02963

System changes: positions 

Initializing position-dependent things.

Density initialized from wave functions
       .-----------------------.  
      /|                       |  
     / |                       |  
    /  |                       |  
   /   |                       |  
  /    |                       |  
 *     |                       |  
 |     |                       |  
 |     |                       |  
 |     |                       |  
 |    H|                       |  
 |    C|                       |  
 |H O  | H     Li         H    Li 
 |   C H                  O    |  
 |   Hi|     Li      Li        |  
 |     |  Li      Li      Li   |  
 |     |   Li      Li      Li  |  
 |     |Li      Li      Li     |  
 |     |         Li            |  
 |   LLi     LLi     LLi       |  
 |     |  Li      Li      Li   |  
 | Li  |   Li      Li          |  
 |     |Li      Li      Li     |  
 Li    | Li      Li            |  
 |    Li      Li      Li       |  
 |     |                       |  
 |     |                       |  
 |     |                       |  
 |     |                       |  
 |     |                       |  
 |     |                       |  
 |     .-----------------------.  
 |    /                       /   
 |   /                       /    
 |  /                       /     
 | /                       /      
 |/                       /       
 *-----------------------*        

Positions:
   0 Li     1.617037    1.617037   10.000000    ( 0.0000,  0.0000,  0.0000)
   1 Li     4.851111    1.617037   10.000000    ( 0.0000,  0.0000,  0.0000)
   2 Li     8.085185    1.617037   10.000000    ( 0.0000,  0.0000,  0.0000)
   3 Li     1.617037    4.851111   10.000000    ( 0.0000,  0.0000,  0.0000)
   4 Li     4.851111    4.851111   10.000000    ( 0.0000,  0.0000,  0.0000)
   5 Li     8.085185    4.851111   10.000000    ( 0.0000,  0.0000,  0.0000)
   6 Li     1.617037    8.085185   10.000000    ( 0.0000,  0.0000,  0.0000)
   7 Li     4.851111    8.085185   10.000000    ( 0.0000,  0.0000,  0.0000)
   8 Li     8.085185    8.085185   10.000000    ( 0.0000,  0.0000,  0.0000)
   9 Li     0.000000    0.000000   11.617037    ( 0.0000,  0.0000,  0.0000)
  10 Li     3.234074    0.000000   11.617037    ( 0.0000,  0.0000,  0.0000)
  11 Li     6.468148    0.000000   11.617037    ( 0.0000,  0.0000,  0.0000)
  12 Li     0.000000    3.234074   11.617037    ( 0.0000,  0.0000,  0.0000)
  13 Li     3.234074    3.234074   11.617037    ( 0.0000,  0.0000,  0.0000)
  14 Li     6.468148    3.234074   11.617037    ( 0.0000,  0.0000,  0.0000)
  15 Li     0.000000    6.468148   11.617037    ( 0.0000,  0.0000,  0.0000)
  16 Li     3.234074    6.468148   11.617037    ( 0.0000,  0.0000,  0.0000)
  17 Li     6.468148    6.468148   11.617037    ( 0.0000,  0.0000,  0.0000)
  18 Li     1.616465    1.617471   13.472405    ( 0.0000,  0.0000,  0.0000)
  19 Li     4.849383    1.615876   13.479539    ( 0.0000,  0.0000,  0.0000)
  20 Li     8.087113    1.619285   13.477974    ( 0.0000,  0.0000,  0.0000)
  21 Li     1.618938    4.850469   13.474087    ( 0.0000,  0.0000,  0.0000)
  22 Li     4.849838    4.851709   13.479305    ( 0.0000,  0.0000,  0.0000)
  23 Li     8.084439    4.849558   13.475069    ( 0.0000,  0.0000,  0.0000)
  24 Li     1.615294    8.085803   13.481517    ( 0.0000,  0.0000,  0.0000)
  25 Li     4.852460    8.085620   13.475450    ( 0.0000,  0.0000,  0.0000)
  26 Li     8.085646    8.084475   13.478107    ( 0.0000,  0.0000,  0.0000)
  27 Li    -0.009348   -0.010670   15.443838    ( 0.0000,  0.0000,  0.0000)
  28 Li     3.243693   -0.009503   15.428258    ( 0.0000,  0.0000,  0.0000)
  29 Li     6.466107    0.002673   15.442794    ( 0.0000,  0.0000,  0.0000)
  30 Li    -0.033764    3.271031   15.407634    ( 0.0000,  0.0000,  0.0000)
  31 Li     3.262353    3.240638   15.405256    ( 0.0000,  0.0000,  0.0000)
  32 Li     6.459991    3.232099   15.437447    ( 0.0000,  0.0000,  0.0000)
  33 Li     0.000951    6.462584   15.460075    ( 0.0000,  0.0000,  0.0000)
  34 Li     3.237016    6.470499   15.437165    ( 0.0000,  0.0000,  0.0000)
  35 Li     6.465102    6.467026   15.441350    ( 0.0000,  0.0000,  0.0000)
  36 O     -0.005074    1.620191   18.446021    ( 0.0000,  0.0000,  0.0000)
  37 O      0.039513    4.502291   18.172294    ( 0.0000,  0.0000,  0.0000)
  38 C      1.169628    2.349994   18.075967    ( 0.0000,  0.0000,  0.0000)
  39 C      1.190376    3.762959   18.618253    ( 0.0000,  0.0000,  0.0000)
  40 H      2.093371    1.810126   18.316786    ( 0.0000,  0.0000,  0.0000)
  41 H      1.160980    2.349652   16.971986    ( 0.0000,  0.0000,  0.0000)
  42 H      2.068771    4.294347   18.232196    ( 0.0000,  0.0000,  0.0000)
  43 H      1.262470    3.721063   19.712735    ( 0.0000,  0.0000,  0.0000)
  44 H      0.063303    1.429328   19.388823    ( 0.0000,  0.0000,  0.0000)
  45 H     -0.745546    3.947718   18.321092    ( 0.0000,  0.0000,  0.0000)

Unit cell:
           periodic     x           y           z      points  spacing
  1. axis:    yes    9.702222    0.000000    0.000000    60     0.1617
  2. axis:    yes    0.000000    9.702222    0.000000    60     0.1617
  3. axis:    no     0.000000    0.000000   24.851111   156     0.1593

  Lengths:   9.702222   9.702222  24.851111
  Angles:   90.000000  90.000000  90.000000

Effective grid spacing dv^(1/3) = 0.1609

     iter     time        total  log10-change:
                         energy  eigst   dens
iter:   1 23:43:25  -290.687699  -1.34
iter:   2 23:45:46  -290.679227  -1.98  -1.95
iter:   3 23:48:23  -290.677041c -2.55  -2.22
iter:   4 23:51:31  -290.673508c -2.54  -2.31
Writing to output.gpw (mode='')

iter:   5 23:55:12  -290.673358c -3.06  -2.56
iter:   6 23:57:18  -290.672703c -2.69  -2.63
iter:   7 23:59:47  -290.672623c -2.72  -2.77
iter:   8 00:03:02  -290.672638c -3.22  -3.00
iter:   9 00:06:54  -290.672620c -3.29  -2.97
Writing to output.gpw (mode='')

iter:  10 00:09:14  -290.672594c -3.52  -3.09
iter:  11 00:12:12  -290.672577c -3.98  -3.37
iter:  12 00:16:13  -290.672584c -4.18  -3.48
iter:  13 00:19:18  -290.672578c -4.79  -3.56
iter:  14 00:21:58  -290.672576c -4.72  -3.69
Writing to output.gpw (mode='')

iter:  15 00:24:56  -290.672575c -4.72  -3.81
iter:  16 00:28:35  -290.672572c -5.20  -3.81
iter:  17 00:31:20  -290.672561c -5.01  -3.88
iter:  18 00:33:29  -290.672562c -5.63  -4.05c
iter:  19 00:36:23  -290.672562c -5.77  -4.27c
Writing to output.gpw (mode='')

iter:  20 00:41:01  -290.672562c -5.91  -4.37c
iter:  21 00:43:38  -290.672562c -6.14  -4.45c
iter:  22 00:47:36  -290.672563c -6.25  -4.53c
iter:  23 00:50:21  -290.672563c -6.56  -4.69c
iter:  24 00:52:45  -290.672563c -6.42  -4.75c
Writing to output.gpw (mode='')

iter:  25 00:55:33  -290.672564c -6.60  -4.90c
iter:  26 00:57:25  -290.672564c -6.82  -4.95c
iter:  27 01:00:02  -290.672564c -6.91  -5.00c
iter:  28 01:02:15  -290.672564c -7.21  -5.15c
iter:  29 01:04:21  -290.672564c -7.15  -5.24c
Writing to output.gpw (mode='')

iter:  30 01:07:55  -290.672564c -7.17  -5.30c
iter:  31 01:11:06  -290.672564c -7.26  -5.36c
iter:  32 01:13:28  -290.672564c -7.49c -5.44c

Converged after 32 iterations.

Dipole moment: (-16.012447, -3.066935, 0.425312) |e|*Ang

Energy contributions relative to reference atoms: (reference = -13512.263335)

Kinetic:       +139.781877
Potential:     -131.142576
External:        +0.000000
XC:            -299.843090
Entropy (-ST):   -0.150997
Local:           +0.606724
--------------------------
Free energy:   -290.748062
Extrapolated:  -290.672564

Dipole-layer corrected work functions: 3.387683, 2.570087 eV

Showing only first 2 kpts
 Kpt  Band  Eigenvalues  Occupancy
  0    29     -3.23306    1.98768
  0    30     -3.14800    1.93429
  0    31     -2.81172    0.06823
  0    32     -2.72743    0.01300

  1    29     -3.00262    1.23304
  1    30     -2.97174    0.92868
  1    31     -2.94708    0.69230
  1    32     -2.92157    0.48236


Fermi level: -2.97888

No gap
Writing to output.gpw (mode='')


Forces in eV/Ang:
  0 Li    0.00372   -0.00551   -0.27214
  1 Li    0.00336    0.00197   -0.27501
  2 Li   -0.00685   -0.00039   -0.27148
  3 Li    0.00377    0.00779   -0.27257
  4 Li   -0.00013   -0.00399   -0.27352
  5 Li   -0.00345   -0.00012   -0.27199
  6 Li   -0.00084   -0.00259   -0.27165
  7 Li   -0.00369    0.00180   -0.27866
  8 Li    0.00473    0.00086   -0.27188
  9 Li   -0.00307   -0.00491    0.26049
 10 Li   -0.00352   -0.00809    0.26382
 11 Li    0.00594    0.00553    0.27157
 12 Li    0.00200    0.00391    0.28635
 13 Li    0.01186   -0.00140    0.26586
 14 Li   -0.01382   -0.00153    0.26048
 15 Li   -0.00034    0.00071    0.26658
 16 Li    0.00175    0.01025    0.26315
 17 Li   -0.00165   -0.00417    0.26828
 18 Li   -0.00779    0.00035    0.00831
 19 Li    0.00164   -0.01020    0.01445
 20 Li    0.00162    0.00165    0.01533
 21 Li    0.00721    0.00782   -0.00185
 22 Li    0.00361    0.01115    0.01448
 23 Li   -0.01470    0.00985   -0.00022
 24 Li   -0.01086   -0.00228    0.03598
 25 Li    0.00894   -0.00101    0.00925
 26 Li    0.00171   -0.00655    0.02822
 27 Li   -0.03089   -0.02750    0.00369
 28 Li    0.03324   -0.03160   -0.05839
 29 Li   -0.00970    0.00867   -0.00904
 30 Li   -0.08086    0.11047   -0.06310
 31 Li    0.08443    0.01967   -0.13573
 32 Li   -0.03307   -0.00510   -0.02973
 33 Li    0.00130   -0.01673    0.06201
 34 Li    0.01260    0.00911   -0.02989
 35 Li   -0.00948   -0.00651   -0.01388
 36 O     0.01424    0.05058    0.08324
 37 O     0.06930   -0.10897    0.03160
 38 C     0.25742   -0.18244   -0.45363
 39 C    -0.13987   -0.05089   -0.17613
 40 H     0.01053   -0.04312    0.29797
 41 H    -0.01797    0.10010    0.12689
 42 H    -0.08102   -0.02716    0.06324
 43 H    -0.09242    0.20386    0.08201
 44 H    -0.09767   -0.12706    0.09499
 45 H     0.13796    0.08858    0.02904

System changes: positions 

Initializing position-dependent things.

Density initialized from wave functions
       .-----------------------.  
      /|                       |  
     / |                       |  
    /  |                       |  
   /   |                       |  
  /    |                       |  
 *     |                       |  
 |     |                       |  
 |     |                       |  
 |     |                       |  
 |    H|                       |  
 |    C|                       |  
 |H O  | H     Li         H    Li 
 |   C H                  O    |  
 |   Hi|     Li      Li        |  
 |     |  Li      Li      Li   |  
 |     |   Li      Li      Li  |  
 |     |Li      Li      Li     |  
 |     |         Li            |  
 |   LLi     LLi     LLi       |  
 |     |  Li      Li      Li   |  
 | Li  |   Li      Li          |  
 |     |Li      Li      Li     |  
 Li    | Li      Li            |  
 |    Li      Li      Li       |  
 |     |                       |  
 |     |                       |  
 |     |                       |  
 |     |                       |  
 |     |                       |  
 |     |                       |  
 |     .-----------------------.  
 |    /                       /   
 |   /                       /    
 |  /                       /     
 | /                       /      
 |/                       /       
 *-----------------------*        

Positions:
   0 Li     1.617037    1.617037   10.000000    ( 0.0000,  0.0000,  0.0000)
   1 Li     4.851111    1.617037   10.000000    ( 0.0000,  0.0000,  0.0000)
   2 Li     8.085185    1.617037   10.000000    ( 0.0000,  0.0000,  0.0000)
   3 Li     1.617037    4.851111   10.000000    ( 0.0000,  0.0000,  0.0000)
   4 Li     4.851111    4.851111   10.000000    ( 0.0000,  0.0000,  0.0000)
   5 Li     8.085185    4.851111   10.000000    ( 0.0000,  0.0000,  0.0000)
   6 Li     1.617037    8.085185   10.000000    ( 0.0000,  0.0000,  0.0000)
   7 Li     4.851111    8.085185   10.000000    ( 0.0000,  0.0000,  0.0000)
   8 Li     8.085185    8.085185   10.000000    ( 0.0000,  0.0000,  0.0000)
   9 Li     0.000000    0.000000   11.617037    ( 0.0000,  0.0000,  0.0000)
  10 Li     3.234074    0.000000   11.617037    ( 0.0000,  0.0000,  0.0000)
  11 Li     6.468148    0.000000   11.617037    ( 0.0000,  0.0000,  0.0000)
  12 Li     0.000000    3.234074   11.617037    ( 0.0000,  0.0000,  0.0000)
  13 Li     3.234074    3.234074   11.617037    ( 0.0000,  0.0000,  0.0000)
  14 Li     6.468148    3.234074   11.617037    ( 0.0000,  0.0000,  0.0000)
  15 Li     0.000000    6.468148   11.617037    ( 0.0000,  0.0000,  0.0000)
  16 Li     3.234074    6.468148   11.617037    ( 0.0000,  0.0000,  0.0000)
  17 Li     6.468148    6.468148   11.617037    ( 0.0000,  0.0000,  0.0000)
  18 Li     1.615948    1.617690   13.473950    ( 0.0000,  0.0000,  0.0000)
  19 Li     4.848602    1.615001   13.484708    ( 0.0000,  0.0000,  0.0000)
  20 Li     8.088091    1.620418   13.482418    ( 0.0000,  0.0000,  0.0000)
  21 Li     1.620075    4.850401   13.476127    ( 0.0000,  0.0000,  0.0000)
  22 Li     4.849337    4.852341   13.484361    ( 0.0000,  0.0000,  0.0000)
  23 Li     8.083627    4.849115   13.477633    ( 0.0000,  0.0000,  0.0000)
  24 Li     1.614119    8.086031   13.488304    ( 0.0000,  0.0000,  0.0000)
  25 Li     4.853385    8.085799   13.478490    ( 0.0000,  0.0000,  0.0000)
  26 Li     8.085921    8.083931   13.483013    ( 0.0000,  0.0000,  0.0000)
  27 Li    -0.014804   -0.016657   15.442941    ( 0.0000,  0.0000,  0.0000)
  28 Li     3.249351   -0.015056   15.417942    ( 0.0000,  0.0000,  0.0000)
  29 Li     6.464825    0.004228   15.441002    ( 0.0000,  0.0000,  0.0000)
  30 Li    -0.052514    3.292234   15.387246    ( 0.0000,  0.0000,  0.0000)
  31 Li     3.278577    3.244406   15.381474    ( 0.0000,  0.0000,  0.0000)
  32 Li     6.455043    3.230989   15.432440    ( 0.0000,  0.0000,  0.0000)
  33 Li     0.001450    6.459389   15.468797    ( 0.0000,  0.0000,  0.0000)
  34 Li     3.238821    6.471913   15.432018    ( 0.0000,  0.0000,  0.0000)
  35 Li     6.463344    6.466285   15.438712    ( 0.0000,  0.0000,  0.0000)
  36 O     -0.007053    1.623230   18.448814    ( 0.0000,  0.0000,  0.0000)
  37 O      0.039428    4.492791   18.153641    ( 0.0000,  0.0000,  0.0000)
  38 C      1.176824    2.346562   18.082874    ( 0.0000,  0.0000,  0.0000)
  39 C      1.188812    3.765166   18.620336    ( 0.0000,  0.0000,  0.0000)
  40 H      2.097471    1.805236   18.321389    ( 0.0000,  0.0000,  0.0000)
  41 H      1.178222    2.338971   16.988986    ( 0.0000,  0.0000,  0.0000)
  42 H      2.070845    4.294882   18.237040    ( 0.0000,  0.0000,  0.0000)
  43 H      1.260589    3.735074   19.720415    ( 0.0000,  0.0000,  0.0000)
  44 H      0.054883    1.416648   19.389410    ( 0.0000,  0.0000,  0.0000)
  45 H     -0.752027    3.956217   18.327463    ( 0.0000,  0.0000,  0.0000)

Unit cell:
           periodic     x           y           z      points  spacing
  1. axis:    yes    9.702222    0.000000    0.000000    60     0.1617
  2. axis:    yes    0.000000    9.702222    0.000000    60     0.1617
  3. axis:    no     0.000000    0.000000   24.851111   156     0.1593

  Lengths:   9.702222   9.702222  24.851111
  Angles:   90.000000  90.000000  90.000000

Effective grid spacing dv^(1/3) = 0.1609

     iter     time        total  log10-change:
                         energy  eigst   dens
iter:   1 01:16:10  -290.714417  -1.13
iter:   2 01:18:42  -290.698867  -1.76  -1.83
iter:   3 01:21:18  -290.694873c -2.33  -2.10
iter:   4 01:25:35  -290.688866c -2.31  -2.20
Writing to output.gpw (mode='')

iter:   5 01:30:19  -290.688614c -2.86  -2.45
iter:   6 01:32:58  -290.687529c -2.48  -2.52
iter:   7 01:36:51  -290.687398c -2.51  -2.67
iter:   8 01:41:33  -290.687412c -3.02  -2.88
iter:   9 01:44:06  -290.687379c -3.11  -2.87
Writing to output.gpw (mode='')

iter:  10 01:46:44  -290.687333c -3.31  -2.99
iter:  11 01:49:47  -290.687308c -3.79  -3.26
iter:  12 01:53:27  -290.687316c -3.97  -3.37
iter:  13 01:57:29  -290.687308c -4.60  -3.46
iter:  14 02:01:03  -290.687306c -4.50  -3.58
Writing to output.gpw (mode='')

iter:  15 02:03:43  -290.687304c -4.54  -3.71
iter:  16 02:06:48  -290.687301c -5.00  -3.72
iter:  17 02:09:55  -290.687287c -4.82  -3.77
iter:  18 02:12:47  -290.687287c -5.41  -3.96
iter:  19 02:17:48  -290.687287c -5.58  -4.18c
Writing to output.gpw (mode='')

iter:  20 02:22:47  -290.687287c -5.74  -4.29c
iter:  21 02:29:11  -290.687287c -5.99  -4.35c
iter:  22 02:34:05  -290.687288c -6.07  -4.42c
iter:  23 02:37:37  -290.687289c -6.21  -4.57c
iter:  24 02:42:15  -290.687289c -6.25  -4.63c
Writing to output.gpw (mode='')

iter:  25 02:47:00  -290.687289c -6.63  -4.73c
iter:  26 02:51:46  -290.687290c -6.48  -4.77c
iter:  27 02:55:51  -290.687290c -6.73  -4.97c
iter:  28 03:00:01  -290.687290c -6.96  -5.11c
iter:  29 03:04:26  -290.687290c -6.87  -5.15c
Writing to output.gpw (mode='')

iter:  30 03:08:12  -290.687290c -6.87  -5.24c
iter:  31 03:13:57  -290.687290c -7.04  -5.36c
iter:  32 03:18:47  -290.687290c -7.29  -5.39c
iter:  33 03:24:34  -290.687290c -7.22  -5.40c
iter:  34 03:28:49  -290.687290c -7.38  -5.46c
Writing to output.gpw (mode='')

iter:  35 03:35:36  -290.687290c -7.62c -5.59c

Converged after 35 iterations.

Dipole moment: (-15.364007, -2.928045, 0.426822) |e|*Ang

Energy contributions relative to reference atoms: (reference = -13512.263335)

Kinetic:       +139.756988
Potential:     -131.113587
External:        +0.000000
XC:            -299.861993
Entropy (-ST):   -0.150665
Local:           +0.606636
--------------------------
Free energy:   -290.762622
Extrapolated:  -290.687290

Dipole-layer corrected work functions: 3.387181, 2.566682 eV

Showing only first 2 kpts
 Kpt  Band  Eigenvalues  Occupancy
  0    29     -3.23127    1.98772
  0    30     -3.14654    1.93492
  0    31     -2.80820    0.06620
  0    32     -2.72570    0.01306

  1    29     -2.99939    1.22093
  1    30     -2.97006    0.93140
  1    31     -2.94635    0.70339
  1    32     -2.91920    0.47927


Fermi level: -2.97693

No gap

Forces in eV/Ang:
  0 Li    0.00406   -0.00553   -0.27358
  1 Li    0.00331    0.00201   -0.27596
  2 Li   -0.00711    0.00001   -0.27231
  3 Li    0.00387    0.00791   -0.27378
  4 Li   -0.00007   -0.00451   -0.27387
  5 Li   -0.00359   -0.00028   -0.27257
  6 Li   -0.00083   -0.00263   -0.27196
  7 Li   -0.00382    0.00194   -0.27913
  8 Li    0.00505    0.00069   -0.27170
  9 Li   -0.00386   -0.00613    0.26429
 10 Li   -0.00396   -0.00906    0.26914
 11 Li    0.00699    0.00514    0.27574
 12 Li    0.00126    0.00488    0.29082
 13 Li    0.01398   -0.00138    0.27133
 14 Li   -0.01495   -0.00185    0.26556
 15 Li   -0.00064    0.00044    0.26975
 16 Li    0.00249    0.01137    0.26759
 17 Li   -0.00220   -0.00333    0.27036
 18 Li   -0.01126   -0.00033    0.00555
 19 Li    0.00798   -0.01382   -0.00518
 20 Li   -0.00243   -0.00368    0.00214
 21 Li    0.00576    0.01400   -0.01376
 22 Li    0.01041    0.01731   -0.00513
 23 Li   -0.02235    0.02133   -0.01597
 24 Li   -0.01288   -0.00532    0.02488
 25 Li    0.01094   -0.00314   -0.00152
 26 Li    0.00144   -0.00877    0.02182
 27 Li   -0.02487   -0.01617    0.01146
 28 Li    0.02698   -0.02449   -0.04487
 29 Li   -0.00987    0.00657   -0.00544
 30 Li   -0.04857    0.08070   -0.01423
 31 Li    0.05886    0.01510   -0.10591
 32 Li   -0.02917   -0.00277   -0.02374
 33 Li   -0.00023   -0.01079    0.05952
 34 Li    0.01151    0.00744   -0.02309
 35 Li   -0.00654   -0.00742   -0.00939
 36 O     0.06133    0.02918    0.07704
 37 O     0.09971    0.01038    0.05998
 38 C     0.11561   -0.13602   -0.16275
 39 C    -0.04036   -0.14466   -0.11953
 40 H     0.05274   -0.07408    0.40496
 41 H    -0.08042    0.15727   -0.17504
 42 H    -0.12805   -0.02172    0.05126
 43 H    -0.16057    0.19458   -0.07927
 44 H    -0.06523   -0.09618    0.05490
 45 H     0.15092    0.03350    0.02953

System changes: positions 

Initializing position-dependent things.

Density initialized from wave functions
       .-----------------------.  
      /|                       |  
     / |                       |  
    /  |                       |  
   /   |                       |  
  /    |                       |  
 *     |                       |  
 |     |                       |  
 |     |                       |  
 |     |                       |  
 |    H|                       |  
 |    C|                       |  
 |H O  | H     Li         H    Li 
 |   C H                  O    |  
 |   Hi|     Li      Li        |  
 |     |  Li      Li      Li   |  
 |     |   Li      Li      Li  |  
 |     |Li      Li      Li     |  
 |     |         Li            |  
 |   LLi     LLi     LLi       |  
 |     |  Li      Li      Li   |  
 | Li  |   Li      Li          |  
 |     |Li      Li      Li     |  
 Li    | Li      Li            |  
 |    Li      Li      Li       |  
 |     |                       |  
 |     |                       |  
 |     |                       |  
 |     |                       |  
 |     |                       |  
 |     |                       |  
 |     .-----------------------.  
 |    /                       /   
 |   /                       /    
 |  /                       /     
 | /                       /      
 |/                       /       
 *-----------------------*        

Positions:
   0 Li     1.617037    1.617037   10.000000    ( 0.0000,  0.0000,  0.0000)
   1 Li     4.851111    1.617037   10.000000    ( 0.0000,  0.0000,  0.0000)
   2 Li     8.085185    1.617037   10.000000    ( 0.0000,  0.0000,  0.0000)
   3 Li     1.617037    4.851111   10.000000    ( 0.0000,  0.0000,  0.0000)
   4 Li     4.851111    4.851111   10.000000    ( 0.0000,  0.0000,  0.0000)
   5 Li     8.085185    4.851111   10.000000    ( 0.0000,  0.0000,  0.0000)
   6 Li     1.617037    8.085185   10.000000    ( 0.0000,  0.0000,  0.0000)
   7 Li     4.851111    8.085185   10.000000    ( 0.0000,  0.0000,  0.0000)
   8 Li     8.085185    8.085185   10.000000    ( 0.0000,  0.0000,  0.0000)
   9 Li     0.000000    0.000000   11.617037    ( 0.0000,  0.0000,  0.0000)
  10 Li     3.234074    0.000000   11.617037    ( 0.0000,  0.0000,  0.0000)
  11 Li     6.468148    0.000000   11.617037    ( 0.0000,  0.0000,  0.0000)
  12 Li     0.000000    3.234074   11.617037    ( 0.0000,  0.0000,  0.0000)
  13 Li     3.234074    3.234074   11.617037    ( 0.0000,  0.0000,  0.0000)
  14 Li     6.468148    3.234074   11.617037    ( 0.0000,  0.0000,  0.0000)
  15 Li     0.000000    6.468148   11.617037    ( 0.0000,  0.0000,  0.0000)
  16 Li     3.234074    6.468148   11.617037    ( 0.0000,  0.0000,  0.0000)
  17 Li     6.468148    6.468148   11.617037    ( 0.0000,  0.0000,  0.0000)
  18 Li     1.615407    1.617824   13.475040    ( 0.0000,  0.0000,  0.0000)
  19 Li     4.848253    1.614183   13.487911    ( 0.0000,  0.0000,  0.0000)
  20 Li     8.088672    1.621074   13.485297    ( 0.0000,  0.0000,  0.0000)
  21 Li     1.620908    4.850618   13.477176    ( 0.0000,  0.0000,  0.0000)
  22 Li     4.849213    4.853069   13.487493    ( 0.0000,  0.0000,  0.0000)
  23 Li     8.082690    4.849231   13.478972    ( 0.0000,  0.0000,  0.0000)
  24 Li     1.613128    8.086077   13.493104    ( 0.0000,  0.0000,  0.0000)
  25 Li     4.854181    8.085855   13.480404    ( 0.0000,  0.0000,  0.0000)
  26 Li     8.086124    8.083420   13.486554    ( 0.0000,  0.0000,  0.0000)
  27 Li    -0.018754   -0.020785   15.442580    ( 0.0000,  0.0000,  0.0000)
  28 Li     3.253468   -0.019058   15.410517    ( 0.0000,  0.0000,  0.0000)
  29 Li     6.463822    0.005344   15.439756    ( 0.0000,  0.0000,  0.0000)
  30 Li    -0.065422    3.307295   15.373920    ( 0.0000,  0.0000,  0.0000)
  31 Li     3.290040    3.247096   15.364309    ( 0.0000,  0.0000,  0.0000)
  32 Li     6.451342    3.230229   15.428801    ( 0.0000,  0.0000,  0.0000)
  33 Li     0.001765    6.457148   15.475476    ( 0.0000,  0.0000,  0.0000)
  34 Li     3.240187    6.472954   15.428301    ( 0.0000,  0.0000,  0.0000)
  35 Li     6.462100    6.465674   15.436853    ( 0.0000,  0.0000,  0.0000)
  36 O     -0.007195    1.625520   18.452335    ( 0.0000,  0.0000,  0.0000)
  37 O      0.041099    4.487206   18.142704    ( 0.0000,  0.0000,  0.0000)
  38 C      1.183181    2.342116   18.085108    ( 0.0000,  0.0000,  0.0000)
  39 C      1.187325    3.763918   18.619718    ( 0.0000,  0.0000,  0.0000)
  40 H      2.101092    1.800729   18.331644    ( 0.0000,  0.0000,  0.0000)
  41 H      1.187894    2.334908   16.996318    ( 0.0000,  0.0000,  0.0000)
  42 H      2.069885    4.294860   18.241014    ( 0.0000,  0.0000,  0.0000)
  43 H      1.256396    3.747463   19.723654    ( 0.0000,  0.0000,  0.0000)
  44 H      0.048360    1.406915   19.390285    ( 0.0000,  0.0000,  0.0000)
  45 H     -0.753516    3.962203   18.332087    ( 0.0000,  0.0000,  0.0000)

Unit cell:
           periodic     x           y           z      points  spacing
  1. axis:    yes    9.702222    0.000000    0.000000    60     0.1617
  2. axis:    yes    0.000000    9.702222    0.000000    60     0.1617
  3. axis:    no     0.000000    0.000000   24.851111   156     0.1593

  Lengths:   9.702222   9.702222  24.851111
  Angles:   90.000000  90.000000  90.000000

Effective grid spacing dv^(1/3) = 0.1609

     iter     time        total  log10-change:
                         energy  eigst   dens
iter:   1 03:41:09  -290.711208  -1.44
iter:   2 03:45:36  -290.703544  -2.09  -1.99
iter:   3 03:49:41  -290.701666c -2.68  -2.26
iter:   4 03:55:57  -290.699057c -2.62  -2.37
Writing to output.gpw (mode='')

iter:   5 04:00:11  -290.699002c -3.29  -2.62
iter:   6 04:05:00  -290.698539c -2.80  -2.68
iter:   7 04:09:48  -290.698520c -2.86  -2.84
iter:   8 04:14:01  -290.698487c -3.39  -3.02
iter:   9 04:19:09  -290.698484c -3.45  -3.04
Writing to output.gpw (mode='')

iter:  10 04:23:51  -290.698468c -3.76  -3.17
iter:  11 04:28:44  -290.698449c -4.18  -3.39
iter:  12 04:33:38  -290.698454c -4.22  -3.50
iter:  13 04:37:39  -290.698451c -4.91  -3.63
iter:  14 04:41:23  -290.698450c -4.95  -3.77
Writing to output.gpw (mode='')

iter:  15 04:48:27  -290.698445c -4.87  -3.86
iter:  16 04:52:17  -290.698445c -5.04  -3.91
iter:  17 04:58:00  -290.698443c -5.70  -4.00c
iter:  18 05:02:38  -290.698441c -5.76  -4.07c
iter:  19 05:06:01  -290.698438c -5.66  -4.15c
Writing to output.gpw (mode='')

iter:  20 05:10:32  -290.698438c -6.01  -4.38c
iter:  21 05:15:55  -290.698438c -6.41  -4.47c
iter:  22 05:19:32  -290.698438c -6.37  -4.56c
iter:  23 05:23:07  -290.698439c -6.54  -4.63c
iter:  24 05:26:21  -290.698440c -6.71  -4.79c
Writing to output.gpw (mode='')

iter:  25 05:30:34  -290.698440c -6.67  -4.89c
iter:  26 05:35:19  -290.698440c -6.92  -4.94c
iter:  27 05:40:08  -290.698440c -7.08  -5.19c
iter:  28 05:44:38  -290.698440c -7.00  -5.32c
iter:  29 05:49:07  -290.698440c -7.15  -5.35c
Writing to output.gpw (mode='')

iter:  30 05:54:55  -290.698440c -7.33  -5.40c
iter:  31 05:58:03  -290.698440c -7.30  -5.48c
iter:  32 06:02:51  -290.698440c -7.44c -5.54c

Converged after 32 iterations.

Dipole moment: (-15.118722, -2.833842, 0.428036) |e|*Ang

Energy contributions relative to reference atoms: (reference = -13512.263335)

Kinetic:       +139.843389
Potential:     -131.172353
External:        +0.000000
XC:            -299.901151
Entropy (-ST):   -0.150409
Local:           +0.606879
--------------------------
Free energy:   -290.773644
Extrapolated:  -290.698440

Dipole-layer corrected work functions: 3.386956, 2.564123 eV

Showing only first 2 kpts
 Kpt  Band  Eigenvalues  Occupancy
  0    29     -3.23006    1.98776
  0    30     -3.14546    1.93531
  0    31     -2.80570    0.06479
  0    32     -2.72458    0.01313

  1    29     -2.99722    1.21347
  1    30     -2.96885    0.93324
  1    31     -2.94574    0.71056
  1    32     -2.91738    0.47616


Fermi level: -2.97554

No gap
Writing to output.gpw (mode='')


Forces in eV/Ang:
  0 Li    0.00428   -0.00553   -0.27456
  1 Li    0.00337    0.00200   -0.27664
  2 Li   -0.00738    0.00028   -0.27288
  3 Li    0.00395    0.00807   -0.27460
  4 Li   -0.00002   -0.00484   -0.27409
  5 Li   -0.00372   -0.00038   -0.27293
  6 Li   -0.00080   -0.00276   -0.27220
  7 Li   -0.00392    0.00202   -0.27947
  8 Li    0.00526    0.00056   -0.27158
  9 Li   -0.00446   -0.00715    0.26688
 10 Li   -0.00442   -0.00981    0.27292
 11 Li    0.00789    0.00463    0.27835
 12 Li    0.00061    0.00562    0.29378
 13 Li    0.01548   -0.00139    0.27514
 14 Li   -0.01570   -0.00208    0.26883
 15 Li   -0.00089    0.00038    0.27163
 16 Li    0.00300    0.01231    0.27044
 17 Li   -0.00257   -0.00242    0.27130
 18 Li   -0.01377   -0.00057    0.00367
 19 Li    0.01241   -0.01640   -0.01879
 20 Li   -0.00483   -0.00710   -0.00619
 21 Li    0.00438    0.01786   -0.02095
 22 Li    0.01527    0.02173   -0.01892
 23 Li   -0.02738    0.02915   -0.02646
 24 Li   -0.01431   -0.00732    0.01720
 25 Li    0.01231   -0.00465   -0.00888
 26 Li    0.00132   -0.01021    0.01736
 27 Li   -0.02087   -0.00871    0.01630
 28 Li    0.02251   -0.01942   -0.03540
 29 Li   -0.00988    0.00510   -0.00293
 30 Li   -0.03039    0.06186    0.01267
 31 Li    0.04134    0.01212   -0.08526
 32 Li   -0.02567   -0.00120   -0.01951
 33 Li   -0.00107   -0.00644    0.05742
 34 Li    0.01051    0.00603   -0.01822
 35 Li   -0.00444   -0.00795   -0.00617
 36 O     0.06715    0.00052    0.00024
 37 O     0.08813    0.05821    0.03958
 38 C     0.02379   -0.08049    0.10419
 39 C     0.04234   -0.13960   -0.02760
 40 H     0.05196   -0.07429    0.40196
 41 H    -0.09314    0.14241   -0.31140
 42 H    -0.11280   -0.01356    0.02080
 43 H    -0.18740    0.13656   -0.19316
 44 H    -0.00974   -0.06055    0.05840
 45 H     0.13162    0.00217    0.02596

System changes: positions 
[...]
Writing to output.gpw (mode='')

iter:  20 18:47:36  -291.106885c -7.34  -4.96c
iter:  21 18:50:15  -291.106885c -7.36  -5.13c
iter:  22 18:52:24  -291.106885c -7.91c -5.26c

Converged after 22 iterations.

Dipole moment: (-27.504231, -3.950272, 0.559616) |e|*Ang

Energy contributions relative to reference atoms: (reference = -13512.263335)

Kinetic:       +139.702903
Potential:     -131.432365
External:        +0.000000
XC:            -299.910783
Entropy (-ST):   -0.149709
Local:           +0.608214
--------------------------
Free energy:   -291.181740
Extrapolated:  -291.106885

Dipole-layer corrected work functions: 3.369508, 2.293735 eV

Showing only first 2 kpts
 Kpt  Band  Eigenvalues  Occupancy
  0    29     -3.08417    1.98727
  0    30     -2.99065    1.92020
  0    31     -2.67404    0.08205
  0    32     -2.58160    0.01338

  1    29     -2.87001    1.36610
  1    30     -2.82990    0.98276
  1    31     -2.79556    0.65421
  1    32     -2.75963    0.38315


Fermi level: -2.83162

No gap
Writing to output.gpw (mode='')


Forces in eV/Ang:
  0 Li    0.00479   -0.00914   -0.27300
  1 Li   -0.00162   -0.00165   -0.28194
  2 Li   -0.00624   -0.00158   -0.26729
  3 Li    0.00491    0.00496   -0.27838
  4 Li    0.00231   -0.00281   -0.26812
  5 Li   -0.00883    0.00022   -0.27387
  6 Li   -0.00261    0.00095   -0.26965
  7 Li   -0.00432    0.00269   -0.27623
  8 Li    0.00240   -0.00273   -0.27313
  9 Li   -0.01349   -0.00680    0.24100
 10 Li   -0.03262   -0.01713    0.28622
 11 Li    0.05997   -0.00331    0.26706
 12 Li   -0.00242    0.00977    0.29793
 13 Li    0.01709   -0.02046    0.29904
 14 Li    0.00960   -0.01331    0.26934
 15 Li   -0.01897    0.03553    0.27613
 16 Li   -0.00414    0.05523    0.26712
 17 Li    0.04577    0.03466    0.25720
 18 Li   -0.00758    0.00787    0.00455
 19 Li   -0.00007   -0.00538   -0.01257
 20 Li    0.01793    0.00861    0.01237
 21 Li   -0.00971   -0.00742    0.00796
 22 Li    0.00105    0.00830   -0.00923
 23 Li    0.01534   -0.00844    0.00767
 24 Li   -0.00518   -0.00364   -0.00597
 25 Li    0.00104    0.00313   -0.00315
 26 Li    0.00510   -0.00953   -0.00083
 27 Li    0.00738   -0.00918    0.00537
 28 Li   -0.00936    0.00575    0.00297
 29 Li    0.00936    0.00569   -0.00204
 30 Li    0.01448   -0.01296   -0.02183
 31 Li   -0.00046   -0.00438    0.00139
 32 Li   -0.00056   -0.00387   -0.00983
 33 Li   -0.00093    0.00442    0.01382
 34 Li   -0.00864   -0.00361    0.00130
 35 Li   -0.00059   -0.00440   -0.00123
 36 O     0.01158   -0.00819    0.01130
 37 O    -0.08095   -0.00152    0.02785
 38 C    -0.01306   -0.01562   -0.02184
 39 C    -0.00150   -0.00306    0.00706
 40 H    -0.00392   -0.00303    0.00385
 41 H    -0.00807   -0.00641    0.00908
 42 H     0.00280    0.01617    0.02612
 43 H    -0.01022   -0.01406    0.00271
 44 H    -0.00841    0.01104   -0.04227
 45 H     0.04113    0.00802   -0.00606

System changes: positions 

Initializing position-dependent things.

Density initialized from wave functions
       .-----------------------.  
      /|                       |  
     / |                       |  
    /  |                       |  
   /   |                       |  
  /    |                       |  
 *     |                       |  
 |     |                       |  
 |     |                       |  
 |     |                       |  
 |   H |                       |  
 |     |                       |  
 |    CHH      Li      Li H    |  
 |O O C|                 H     |  
 |   LiH     Li      Li        |  
 |     |  Li      Li      Li   |  
 | Li  |   Li      Li          |  
 |     |Li      Li      LLi    |  
 |     |                       |  
 |   LLi     LLi     LLi       |  
 |     |  Li      Li      Li   |  
 | Li  |   Li      Li          |  
 |     |Li      Li      Li     |  
 Li    | Li      Li            |  
 |    Li      Li      Li       |  
 |     |                       |  
 |     |                       |  
 |     |                       |  
 |     |                       |  
 |     |                       |  
 |     |                       |  
 |     .-----------------------.  
 |    /                       /   
 |   /                       /    
 |  /                       /     
 | /                       /      
 |/                       /       
 *-----------------------*        

Positions:
   0 Li     1.617037    1.617037   10.000000    ( 0.0000,  0.0000,  0.0000)
   1 Li     4.851111    1.617037   10.000000    ( 0.0000,  0.0000,  0.0000)
   2 Li     8.085185    1.617037   10.000000    ( 0.0000,  0.0000,  0.0000)
   3 Li     1.617037    4.851111   10.000000    ( 0.0000,  0.0000,  0.0000)
   4 Li     4.851111    4.851111   10.000000    ( 0.0000,  0.0000,  0.0000)
   5 Li     8.085185    4.851111   10.000000    ( 0.0000,  0.0000,  0.0000)
   6 Li     1.617037    8.085185   10.000000    ( 0.0000,  0.0000,  0.0000)
   7 Li     4.851111    8.085185   10.000000    ( 0.0000,  0.0000,  0.0000)
   8 Li     8.085185    8.085185   10.000000    ( 0.0000,  0.0000,  0.0000)
   9 Li     0.000000    0.000000   11.617037    ( 0.0000,  0.0000,  0.0000)
  10 Li     3.234074    0.000000   11.617037    ( 0.0000,  0.0000,  0.0000)
  11 Li     6.468148    0.000000   11.617037    ( 0.0000,  0.0000,  0.0000)
  12 Li     0.000000    3.234074   11.617037    ( 0.0000,  0.0000,  0.0000)
  13 Li     3.234074    3.234074   11.617037    ( 0.0000,  0.0000,  0.0000)
  14 Li     6.468148    3.234074   11.617037    ( 0.0000,  0.0000,  0.0000)
  15 Li     0.000000    6.468148   11.617037    ( 0.0000,  0.0000,  0.0000)
  16 Li     3.234074    6.468148   11.617037    ( 0.0000,  0.0000,  0.0000)
  17 Li     6.468148    6.468148   11.617037    ( 0.0000,  0.0000,  0.0000)
  18 Li     1.581822    1.607732   13.497948    ( 0.0000,  0.0000,  0.0000)
  19 Li     4.887329    1.578598   13.437889    ( 0.0000,  0.0000,  0.0000)
  20 Li     8.121068    1.625279   13.526213    ( 0.0000,  0.0000,  0.0000)
  21 Li     1.637733    4.891186   13.423774    ( 0.0000,  0.0000,  0.0000)
  22 Li     4.895272    4.880738   13.432594    ( 0.0000,  0.0000,  0.0000)
  23 Li     8.095955    4.869702   13.477131    ( 0.0000,  0.0000,  0.0000)
  24 Li     1.572126    8.116043   13.535738    ( 0.0000,  0.0000,  0.0000)
  25 Li     4.870402    8.083003   13.451093    ( 0.0000,  0.0000,  0.0000)
  26 Li     8.104166    8.124243   13.543917    ( 0.0000,  0.0000,  0.0000)
  27 Li    -0.047611    0.059195   15.658066    ( 0.0000,  0.0000,  0.0000)
  28 Li     3.260853   -0.013874   15.370200    ( 0.0000,  0.0000,  0.0000)
  29 Li     6.404912   -0.005834   15.454075    ( 0.0000,  0.0000,  0.0000)
  30 Li     0.140136    3.397901   15.524029    ( 0.0000,  0.0000,  0.0000)
  31 Li     3.378186    3.239937   15.228963    ( 0.0000,  0.0000,  0.0000)
  32 Li     6.453143    3.236358   15.374018    ( 0.0000,  0.0000,  0.0000)
  33 Li     0.012776    6.512251   15.486180    ( 0.0000,  0.0000,  0.0000)
  34 Li     3.291670    6.481267   15.372011    ( 0.0000,  0.0000,  0.0000)
  35 Li     6.465630    6.467673   15.437824    ( 0.0000,  0.0000,  0.0000)
  36 O      0.133566    1.414524   18.480369    ( 0.0000,  0.0000,  0.0000)
  37 O      0.095034    4.056722   17.379086    ( 0.0000,  0.0000,  0.0000)
  38 C      1.317838    2.235053   18.511923    ( 0.0000,  0.0000,  0.0000)
  39 C      0.987110    3.721456   18.473438    ( 0.0000,  0.0000,  0.0000)
  40 H      1.933822    2.020151   19.392111    ( 0.0000,  0.0000,  0.0000)
  41 H      1.904773    1.972532   17.626120    ( 0.0000,  0.0000,  0.0000)
  42 H      1.906942    4.287034   18.294246    ( 0.0000,  0.0000,  0.0000)
  43 H      0.542486    4.063648   19.411125    ( 0.0000,  0.0000,  0.0000)
  44 H     -0.029310    1.063022   19.363003    ( 0.0000,  0.0000,  0.0000)
  45 H     -0.816361    3.844004   17.644367    ( 0.0000,  0.0000,  0.0000)

Unit cell:
           periodic     x           y           z      points  spacing
  1. axis:    yes    9.702222    0.000000    0.000000    60     0.1617
  2. axis:    yes    0.000000    9.702222    0.000000    60     0.1617
  3. axis:    no     0.000000    0.000000   24.851111   156     0.1593

  Lengths:   9.702222   9.702222  24.851111
  Angles:   90.000000  90.000000  90.000000

Effective grid spacing dv^(1/3) = 0.1609

     iter     time        total  log10-change:
                         energy  eigst   dens
iter:   1 18:57:08  -291.109351  -1.68
iter:   2 18:59:19  -291.108745  -2.46  -2.41
iter:   3 19:03:16  -291.108534c -2.98  -2.53
iter:   4 19:07:43  -291.107796c -3.11  -2.65
Writing to output.gpw (mode='')

iter:   5 19:10:31  -291.107692c -3.51  -2.87
iter:   6 19:13:06  -291.107636c -3.07  -3.03
iter:   7 19:16:08  -291.107595c -3.58  -3.07
iter:   8 19:19:58  -291.107594c -3.87  -3.16
iter:   9 19:25:21  -291.107603c -4.26  -3.51
Writing to output.gpw (mode='')

iter:  10 19:28:15  -291.107597c -4.44  -3.53
iter:  11 19:31:32  -291.107621c -4.48  -3.56
iter:  12 19:34:50  -291.107602c -5.28  -3.71
iter:  13 19:37:13  -291.107604c -5.60  -3.94
iter:  14 19:39:56  -291.107603c -5.58  -3.96
Writing to output.gpw (mode='')

iter:  15 19:42:32  -291.107608c -5.40  -4.07c
iter:  16 19:45:12  -291.107604c -5.58  -4.20c
iter:  17 19:47:39  -291.107603c -6.08  -4.35c
iter:  18 19:50:14  -291.107603c -6.06  -4.50c
iter:  19 19:53:48  -291.107602c -6.08  -4.63c
Writing to output.gpw (mode='')

iter:  20 19:57:24  -291.107603c -6.39  -4.59c
iter:  21 20:00:28  -291.107603c -6.50  -4.71c
iter:  22 20:05:10  -291.107603c -6.69  -4.80c
iter:  23 20:11:12  -291.107604c -6.75  -4.87c
iter:  24 20:15:14  -291.107604c -6.97  -5.05c
Writing to output.gpw (mode='')

iter:  25 20:17:57  -291.107604c -7.18  -5.11c
iter:  26 20:20:19  -291.107604c -7.32  -5.14c
iter:  27 20:23:29  -291.107604c -7.50c -5.26c

Converged after 27 iterations.

Dipole moment: (-27.400343, -3.964892, 0.559228) |e|*Ang

Energy contributions relative to reference atoms: (reference = -13512.263335)

Kinetic:       +139.799270
Potential:     -131.498952
External:        +0.000000
XC:            -299.941500
Entropy (-ST):   -0.149753
Local:           +0.608455
--------------------------
Free energy:   -291.182481
Extrapolated:  -291.107604

Dipole-layer corrected work functions: 3.369515, 2.294486 eV

Showing only first 2 kpts
 Kpt  Band  Eigenvalues  Occupancy
  0    29     -3.08453    1.98727
  0    30     -2.99100    1.92015
  0    31     -2.67429    0.08185
  0    32     -2.58182    0.01334

  1    29     -2.87015    1.36397
  1    30     -2.83026    0.98257
  1    31     -2.79642    0.65851
  1    32     -2.75988    0.38232


Fermi level: -2.83200

No gap
Writing to output.gpw (mode='')


Forces in eV/Ang:
  0 Li    0.00457   -0.00895   -0.27284
  1 Li   -0.00177   -0.00159   -0.28178
  2 Li   -0.00606   -0.00158   -0.26738
  3 Li    0.00479    0.00482   -0.27838
  4 Li    0.00203   -0.00272   -0.26818
  5 Li   -0.00876    0.00018   -0.27408
  6 Li   -0.00276    0.00105   -0.26969
  7 Li   -0.00429    0.00258   -0.27600
  8 Li    0.00230   -0.00247   -0.27330
  9 Li   -0.01252   -0.00728    0.24035
 10 Li   -0.03225   -0.01776    0.28486
 11 Li    0.06014   -0.00304    0.26760
 12 Li   -0.00120    0.00870    0.29736
 13 Li    0.01744   -0.02064    0.29833
 14 Li    0.01056   -0.01405    0.27068
 15 Li   -0.01795    0.03508    0.27768
 16 Li   -0.00453    0.05530    0.26745
 17 Li    0.04685    0.03411    0.25952
 18 Li   -0.00663    0.00722    0.00445
 19 Li    0.00031   -0.00460   -0.01167
 20 Li    0.01630    0.00774    0.01134
 21 Li   -0.00677   -0.00546    0.00500
 22 Li    0.00049    0.00761   -0.00695
 23 Li    0.01138   -0.00596    0.00345
 24 Li   -0.00495   -0.00381   -0.00685
 25 Li    0.00165    0.00283   -0.00305
 26 Li    0.00359   -0.00962   -0.00120
 27 Li    0.00730   -0.01016    0.00667
 28 Li   -0.00952    0.00509    0.00161
 29 Li    0.00955    0.00618   -0.00325
 30 Li    0.00958   -0.00596   -0.01543
 31 Li    0.00468   -0.00362   -0.00176
 32 Li   -0.00433   -0.00492   -0.00814
 33 Li    0.00023    0.00417    0.01878
 34 Li   -0.00958   -0.00383    0.00072
 35 Li   -0.00072   -0.00442   -0.00296
 36 O    -0.00336   -0.00851   -0.01905
 37 O    -0.02378    0.00304    0.01325
 38 C     0.00597    0.00485   -0.00214
 39 C     0.03385   -0.01040    0.02306
 40 H    -0.01558    0.00550    0.01089
 41 H    -0.00653   -0.00813   -0.03457
 42 H    -0.03283    0.00694    0.01162
 43 H    -0.03614   -0.00054    0.02469
 44 H    -0.01529   -0.00012   -0.01560
 45 H    -0.00491    0.00103    0.01227

Timing:                                      incl.     excl.
-------------------------------------------------------------------
Density initialized from wave functions:   968.751   968.748   0.2% |
 Symmetrize density:                         0.004     0.004   0.0% |
Forces:                                    513.558   513.558   0.1% |
Hamiltonian:                             13544.135     0.012   0.0% |
 Atomic:                                     6.100     0.065   0.0% |
  XC Correction:                             6.035     6.035   0.0% |
 Calculate atomic Hamiltonians:              6.370     6.370   0.0% |
 Communicate:                              322.703   322.703   0.1% |
 Hartree integrate/restrict:                 3.018     3.018   0.0% |
 Initialize Hamiltonian:                     0.000     0.000   0.0% |
 Poisson:                                  131.242    67.489   0.0% |
  Communicate from 1D:                      11.174    11.174   0.0% |
  Communicate from 2D:                      20.157    20.157   0.0% |
  Communicate to 1D:                         1.806     1.806   0.0% |
  Communicate to 2D:                        14.097    14.097   0.0% |
  FFT 1D:                                    8.621     8.621   0.0% |
  FFT 2D:                                    7.897     7.897   0.0% |
 XC 3D grid:                             13074.340   545.233   0.1% |
  VdW-DF integral:                       12529.107     6.184   0.0% |
   Convolution:                             73.954    73.954   0.0% |
   FFT:                                     27.972    27.972   0.0% |
   gather:                               11158.879 11158.879   2.1% ||
   hmm1:                                    23.754    23.754   0.0% |
   hmm2:                                    23.656    23.656   0.0% |
   iFFT:                                    32.683    32.683   0.0% |
   potential:                             1172.992     3.364   0.0% |
    collect:                                47.124    47.124   0.0% |
    p1:                                    104.515   104.515   0.0% |
    p2:                                     35.066    35.066   0.0% |
    sum:                                   982.922   982.922   0.2% |
   splines:                                  9.034     9.034   0.0% |
 vbar:                                       0.350     0.350   0.0% |
LCAO initialization:                         3.659     0.290   0.0% |
 LCAO eigensolver:                           1.545     0.001   0.0% |
  Calculate projections:                     0.000     0.000   0.0% |
  DenseAtomicCorrection:                     0.000     0.000   0.0% |
  Distribute overlap matrix:                 1.516     1.516   0.0% |
  Orbital Layouts:                           0.026     0.026   0.0% |
  Potential matrix:                          0.001     0.001   0.0% |
  Sum over cells:                            0.001     0.001   0.0% |
 LCAO to grid:                               1.192     1.192   0.0% |
 Set positions (LCAO WFS):                   0.632     0.407   0.0% |
  Basic WFS set positions:                   0.015     0.015   0.0% |
  Basis functions set positions:             0.000     0.000   0.0% |
  P tci:                                     0.001     0.001   0.0% |
  ST tci:                                    0.123     0.123   0.0% |
  mktci:                                     0.085     0.085   0.0% |
Redistribute:                                0.073     0.073   0.0% |
SCF-cycle:                               527413.502 86343.174  15.9% |-----|
 Davidson:                               26347.804 10059.433   1.9% ||
  Apply hamiltonian:                      2172.195  2172.195   0.4% |
  Subspace diag:                          3359.199     0.631   0.0% |
   calc_h_matrix:                         2255.403   318.508   0.1% |
    Apply hamiltonian:                    1936.895  1936.895   0.4% |
   diagonalize:                            377.469   377.469   0.1% |
   rotate_psi:                             725.695   725.695   0.1% |
  calc. matrices:                         8971.492  4005.158   0.7% |
   Apply hamiltonian:                     4966.335  4966.335   0.9% |
  diagonalize:                              14.180    14.180   0.0% |
  rotate_psi:                             1771.305  1771.305   0.3% |
 Density:                                 2495.469     0.073   0.0% |
  Atomic density matrices:                1736.404  1736.404   0.3% |
  Mix:                                     194.129   194.129   0.0% |
  Multipole moments:                         6.527     6.527   0.0% |
  Pseudo density:                          558.335   558.216   0.1% |
   Symmetrize density:                       0.119     0.119   0.0% |
 Hamiltonian:                            412184.343     0.483   0.0% |
  Atomic:                                  197.408     2.399   0.0% |
   XC Correction:                          195.010   195.010   0.0% |
  Calculate atomic Hamiltonians:           167.856   167.856   0.0% |
  Communicate:                           10855.566 10855.566   2.0% ||
  Hartree integrate/restrict:               90.724    90.724   0.0% |
  Poisson:                                4105.872  2097.129   0.4% |
   Communicate from 1D:                    333.684   333.684   0.1% |
   Communicate from 2D:                    627.405   627.405   0.1% |
   Communicate to 1D:                       56.744    56.744   0.0% |
   Communicate to 2D:                      449.564   449.564   0.1% |
   FFT 1D:                                 285.872   285.872   0.1% |
   FFT 2D:                                 255.476   255.476   0.0% |
  XC 3D grid:                            396756.350 15483.614   2.9% ||
   VdW-DF integral:                      381272.736   194.505   0.0% |
    Convolution:                          2421.479  2421.479   0.4% |
    FFT:                                   936.968   936.968   0.2% |
    gather:                              334718.315 334718.315  61.6% |------------------------|
    hmm1:                                  786.840   786.840   0.1% |
    hmm2:                                  785.225   785.225   0.1% |
    iFFT:                                 1054.223  1054.223   0.2% |
    potential:                           40375.154   106.737   0.0% |
     collect:                             1460.752  1460.752   0.3% |
     p1:                                  3375.735  3375.735   0.6% |
     p2:                                  1137.570  1137.570   0.2% |
     sum:                                34294.359 34294.359   6.3% |--|
    splines:                                 0.027     0.027   0.0% |
  vbar:                                     10.083    10.083   0.0% |
 Orthonormalize:                            42.712     0.014   0.0% |
  calc_s_matrix:                             5.843     5.843   0.0% |
  inverse-cholesky:                         25.340    25.340   0.0% |
  projections:                               0.005     0.005   0.0% |
  rotate_psi_s:                             11.510    11.510   0.0% |
Set symmetry:                                0.002     0.002   0.0% |
Other:                                     666.202   666.202   0.1% |
-------------------------------------------------------------------
Total:                                             543109.881 100.0%

Memory usage: 1.41 GiB
Date: Tue Mar 14 20:23:36 2023
