
  ___ ___ ___ _ _ _  
 |   |   |_  | | | | 
 | | | | | . | | | | 
 |__ |  _|___|_____|  22.8.0
 |___|_|             

User:   vazumah@f012
Date:   Wed Mar  8 12:31:46 2023
Arch:   x86_64
Pid:    56904
CWD:    /home/vazumah/Research_Projects/LiMEAS/LiNRR_proton_donors/on_pure_surface/Li_BCC100/adsorbates/ethanediol_y/bridge/0.0_1.617
Python: 3.10.6
gpaw:   /home/vazumah/anaconda3/envs/NAME/lib/python3.10/site-packages/gpaw
_gpaw:  /home/vazumah/anaconda3/envs/NAME/lib/python3.10/site-packages/
        _gpaw.cpython-310-x86_64-linux-gnu.so
ase:    /home/vazumah/anaconda3/envs/NAME/lib/python3.10/site-packages/ase (version 3.22.1)
numpy:  /home/vazumah/anaconda3/envs/NAME/lib/python3.10/site-packages/numpy (version 1.23.3)
scipy:  /home/vazumah/anaconda3/envs/NAME/lib/python3.10/site-packages/scipy (version 1.9.1)
libxc:  5.2.3
units:  Angstrom and eV
cores: 32
OpenMP: True
OMP_NUM_THREADS: 1

Input parameters:
  h: 0.16
  kpts: {size: [4, 4, 1]}
  occupations: {name: fermi-dirac,
                width: 0.05}
  poissonsolver: {dipolelayer: xy}
  xc: BEEF-vdW

System changes: positions, numbers, cell, pbc, initial_charges, initial_magmoms 

Initialize ...

species:
  Li:
    name: Lithium
    id: 830b4218f175192f93f959cfc0aad614
    Z: 3.0
    valence: 1
    core: 2
    charge: 0.0
    file: /home/vazumah/anaconda3/envs/NAME/share/gpaw/Li.PBE.gz
    compensation charges: {type: gauss,
                           rc: 0.33,
                           lmax: 2}
    cutoffs: {filter: 1.91,
              core: 2.55}
    valence states:
      #              energy  rcut
      - 2s(1.00)    -2.874   1.058
      - 2p(0.00)    -1.090   1.058
      -  s          24.337   1.058
  
    # Using partial waves for Li as LCAO basis

  O:
    name: Oxygen
    id: 32ecd46bf208036f09c70b0ec9a88b78
    Z: 8.0
    valence: 6
    core: 2
    charge: 0.0
    file: /home/vazumah/anaconda3/envs/NAME/share/gpaw/O.PBE.gz
    compensation charges: {type: gauss,
                           rc: 0.21,
                           lmax: 2}
    cutoffs: {filter: 1.17,
              core: 0.83}
    valence states:
      #              energy  rcut
      - 2s(2.00)   -23.961   0.688
      - 2p(4.00)    -9.029   0.598
      -  s           3.251   0.688
      -  p          18.182   0.598
      -  d           0.000   0.619
  
    # Using partial waves for O as LCAO basis

  C:
    name: Carbon
    id: 4aa54d4b901d75f77cc0ea3eec22967b
    Z: 6.0
    valence: 4
    core: 2
    charge: 0.0
    file: /home/vazumah/anaconda3/envs/NAME/share/gpaw/C.PBE.gz
    compensation charges: {type: gauss,
                           rc: 0.20,
                           lmax: 2}
    cutoffs: {filter: 1.14,
              core: 1.14}
    valence states:
      #              energy  rcut
      - 2s(2.00)   -13.751   0.635
      - 2p(2.00)    -5.284   0.635
      -  s          13.461   0.635
      -  p          21.927   0.635
      -  d           0.000   0.635
  
    # Using partial waves for C as LCAO basis

  H:
    name: Hydrogen
    id: d65de229564ff8ea4db303e23b6d1ecf
    Z: 1.0
    valence: 1
    core: 0
    charge: 0.0
    file: /home/vazumah/anaconda3/envs/NAME/share/gpaw/H.PBE.gz
    compensation charges: {type: gauss,
                           rc: 0.15,
                           lmax: 2}
    cutoffs: {filter: 0.85,
              core: 0.53}
    valence states:
      #              energy  rcut
      - 1s(1.00)    -6.494   0.476
      -  s          20.717   0.476
      -  p           0.000   0.476
  
    # Using partial waves for H as LCAO basis

Reference energy: -13512.263335  # eV

Spin-paired calculation

Convergence criteria:
 Maximum [total energy] change in last 3 cyles: 0.0005 eV / electron
 Maximum integral of absolute [dens]ity change: 0.0001 electrons / valence electron
 Maximum integral of absolute [eigenst]ate change: 4e-08 eV^2 / valence electron
 Maximum number of scf [iter]ations: 333
 (Square brackets indicate name in SCF output, whereas a 'c' in
 the SCF output indicates the quantity has converged.)

Symmetries present (total): 1

  ( 1  0  0)
  ( 0  1  0)
  ( 0  0  1)

16 k-points: 4 x 4 x 1 Monkhorst-Pack grid
8 k-points in the irreducible part of the Brillouin zone
       k-points in crystal coordinates                weights
   0:     0.12500000   -0.37500000    0.00000000          2/16
   1:     0.12500000   -0.12500000    0.00000000          2/16
   2:     0.12500000    0.12500000    0.00000000          2/16
   3:     0.12500000    0.37500000    0.00000000          2/16
   4:     0.37500000   -0.37500000    0.00000000          2/16
   5:     0.37500000   -0.12500000    0.00000000          2/16
   6:     0.37500000    0.12500000    0.00000000          2/16
   7:     0.37500000    0.37500000    0.00000000          2/16

Wave functions: Uniform real-space grid
  Kinetic energy operator: 6*3+1=19 point O(h^6) finite-difference Laplacian
  ScaLapack parameters: grid=1x1, blocksize=None
  Wavefunction extrapolation:
    Improved wavefunction reuse through dual PAW basis 

Occupation numbers: Fermi-Dirac:
  width: 0.0500  # eV
 

Eigensolver
   Davidson(niter=2) 

Densities:
  Coarse grid: 60*60*156 grid
  Fine grid: 120*120*312 grid
  Total Charge: 0.000000 

Density mixing:
  Method: separate
  Backend: pulay
  Linear mixing parameter: 0.05
  old densities: 5
  Damping of long wavelength oscillations: 50 

Hamiltonian:
  XC and Coulomb potentials evaluated on a 120*120*312 grid
  Using the BEEF-vdW Exchange-Correlation functional
  Interpolation: tri-quintic (5. degree polynomial)
  Poisson solver: FastPoissonSolver using
    Stencil: 6*3+1=19 point O(h^6) finite-difference Laplacian
    FFT axes: [0, 1]
    FST axes: [2]

Dipole correction along z-axis 

XC parameters: BEEF-vdW with 2 nearest neighbor stencil

Memory estimate:
  Process memory now: 211.77 MiB
  Calculator: 298.81 MiB
    Density: 88.21 MiB
      Arrays: 27.47 MiB
      Localized functions: 50.30 MiB
      Mixer: 10.44 MiB
    Hamiltonian: 21.93 MiB
      Arrays: 17.96 MiB
      XC: 0.00 MiB
      Poisson: 0.00 MiB
      vbar: 3.97 MiB
    Wavefunctions: 188.67 MiB
      Arrays psit_nG: 87.67 MiB
      Eigensolver: 98.38 MiB
      Projections: 0.04 MiB
      Projectors: 2.58 MiB

Total number of cores used: 32
Parallelization over k-points: 8
Domain decomposition: 1 x 1 x 4

Number of atoms: 46
Number of atomic orbitals: 166
Number of bands in calculation: 42
Number of valence electrons: 62
Bands to converge: occupied

... initialized

Initializing position-dependent things.

Density initialized from atomic densities
Creating initial wave functions:
  42 bands from LCAO basis set

       .-----------------------.  
      /|                       |  
     / |                       |  
    /  |                       |  
   /   |                       |  
  /    |                       |  
 *     |                       |  
 |     |                       |  
 |     |                       |  
 |     |                       |  
 |    H|                       |  
 |  O C|                       |  
 |H    | H                H    |  
 |O  C H                       |  
 |   Hi|     Li      Li        |  
 |     |  Li      Li      Li   |  
 | Li  |   Li      Li          |  
 |     |Li      Li      Li     |  
 Li    | Li      Li            |  
 |   LLi     LLi     LLi       |  
 |     |  Li      Li      Li   |  
 | Li  |   Li      Li          |  
 |     |Li      Li      Li     |  
 Li    | Li      Li            |  
 |    Li      Li      Li       |  
 |     |                       |  
 |     |                       |  
 |     |                       |  
 |     |                       |  
 |     |                       |  
 |     |                       |  
 |     .-----------------------.  
 |    /                       /   
 |   /                       /    
 |  /                       /     
 | /                       /      
 |/                       /       
 *-----------------------*        

Positions:
   0 Li     1.617037    1.617037   10.000000    ( 0.0000,  0.0000,  0.0000)
   1 Li     4.851111    1.617037   10.000000    ( 0.0000,  0.0000,  0.0000)
   2 Li     8.085185    1.617037   10.000000    ( 0.0000,  0.0000,  0.0000)
   3 Li     1.617037    4.851111   10.000000    ( 0.0000,  0.0000,  0.0000)
   4 Li     4.851111    4.851111   10.000000    ( 0.0000,  0.0000,  0.0000)
   5 Li     8.085185    4.851111   10.000000    ( 0.0000,  0.0000,  0.0000)
   6 Li     1.617037    8.085185   10.000000    ( 0.0000,  0.0000,  0.0000)
   7 Li     4.851111    8.085185   10.000000    ( 0.0000,  0.0000,  0.0000)
   8 Li     8.085185    8.085185   10.000000    ( 0.0000,  0.0000,  0.0000)
   9 Li     0.000000    0.000000   11.617037    ( 0.0000,  0.0000,  0.0000)
  10 Li     3.234074    0.000000   11.617037    ( 0.0000,  0.0000,  0.0000)
  11 Li     6.468148    0.000000   11.617037    ( 0.0000,  0.0000,  0.0000)
  12 Li     0.000000    3.234074   11.617037    ( 0.0000,  0.0000,  0.0000)
  13 Li     3.234074    3.234074   11.617037    ( 0.0000,  0.0000,  0.0000)
  14 Li     6.468148    3.234074   11.617037    ( 0.0000,  0.0000,  0.0000)
  15 Li     0.000000    6.468148   11.617037    ( 0.0000,  0.0000,  0.0000)
  16 Li     3.234074    6.468148   11.617037    ( 0.0000,  0.0000,  0.0000)
  17 Li     6.468148    6.468148   11.617037    ( 0.0000,  0.0000,  0.0000)
  18 Li     1.617038    1.617038   13.469728    ( 0.0000,  0.0000,  0.0000)
  19 Li     4.851111    1.617038   13.469729    ( 0.0000,  0.0000,  0.0000)
  20 Li     8.085184    1.617038   13.469728    ( 0.0000,  0.0000,  0.0000)
  21 Li     1.617038    4.851111   13.469729    ( 0.0000,  0.0000,  0.0000)
  22 Li     4.851111    4.851111   13.469730    ( 0.0000,  0.0000,  0.0000)
  23 Li     8.085184    4.851111   13.469729    ( 0.0000,  0.0000,  0.0000)
  24 Li     1.617038    8.085184   13.469728    ( 0.0000,  0.0000,  0.0000)
  25 Li     4.851111    8.085184   13.469729    ( 0.0000,  0.0000,  0.0000)
  26 Li     8.085184    8.085184   13.469728    ( 0.0000,  0.0000,  0.0000)
  27 Li    -0.000000   -0.000000   15.445939    ( 0.0000,  0.0000,  0.0000)
  28 Li     3.234074    0.000000   15.445939    ( 0.0000,  0.0000,  0.0000)
  29 Li     6.468148    0.000000   15.445939    ( 0.0000,  0.0000,  0.0000)
  30 Li     0.000000    3.234074   15.445939    ( 0.0000,  0.0000,  0.0000)
  31 Li     3.234076    3.234076   15.445938    ( 0.0000,  0.0000,  0.0000)
  32 Li     6.468146    3.234076   15.445938    ( 0.0000,  0.0000,  0.0000)
  33 Li     0.000000    6.468148   15.445939    ( 0.0000,  0.0000,  0.0000)
  34 Li     3.234076    6.468146   15.445938    ( 0.0000,  0.0000,  0.0000)
  35 Li     6.468146    6.468146   15.445938    ( 0.0000,  0.0000,  0.0000)
  36 O      0.000000    1.617037   18.445939    ( 0.0000,  0.0000,  0.0000)
  37 O      0.043994    4.515235   18.213250    ( 0.0000,  0.0000,  0.0000)
  38 C      1.171212    2.345598   18.033562    ( 0.0000,  0.0000,  0.0000)
  39 C      1.184902    3.754783   18.602713    ( 0.0000,  0.0000,  0.0000)
  40 H      2.085602    1.817472   18.326395    ( 0.0000,  0.0000,  0.0000)
  41 H      1.123914    2.378347   16.943996    ( 0.0000,  0.0000,  0.0000)
  42 H      2.059168    4.291502   18.226232    ( 0.0000,  0.0000,  0.0000)
  43 H      1.260403    3.705053   19.701774    ( 0.0000,  0.0000,  0.0000)
  44 H      0.074515    1.447612   19.393261    ( 0.0000,  0.0000,  0.0000)
  45 H     -0.723127    3.935769   18.309689    ( 0.0000,  0.0000,  0.0000)

Unit cell:
           periodic     x           y           z      points  spacing
  1. axis:    yes    9.702222    0.000000    0.000000    60     0.1617
  2. axis:    yes    0.000000    9.702222    0.000000    60     0.1617
  3. axis:    no     0.000000    0.000000   24.851111   156     0.1593

  Lengths:   9.702222   9.702222  24.851111
  Angles:   90.000000  90.000000  90.000000

Effective grid spacing dv^(1/3) = 0.1609

     iter     time        total  log10-change:
                         energy  eigst   dens
iter:   1 12:33:24  -487.276105
iter:   2 12:34:50  -127.694881  +2.43  -0.06
iter:   3 12:36:41   -81.689602  +3.25  -0.19
iter:   4 12:38:05  -141.967992  +2.89  -0.21
Writing to output.gpw (mode='')

iter:   5 12:39:20  -230.367168  +2.85  -0.34
iter:   6 12:40:33  -269.035514  +2.80  -0.41
iter:   7 12:42:06  -328.328106  +2.60  -0.58
iter:   8 12:43:36  -340.212088  +2.32  -0.48
iter:   9 12:46:34  -317.067470  +2.00  -0.48
Writing to output.gpw (mode='')

iter:  10 12:48:13  -321.262700  +1.64  -0.49
iter:  11 12:49:43  -393.816524  +2.25  -0.45
iter:  12 12:51:44  -354.931236  +1.44  -0.38
iter:  13 12:54:26  -295.350671  +1.38  -0.40
iter:  14 12:56:01  -295.455492  +0.85  -0.72
Writing to output.gpw (mode='')

iter:  15 12:57:31  -292.965513  +0.48  -0.73
iter:  16 12:59:55  -293.601123  +0.60  -0.79
iter:  17 13:01:22  -294.486855  +0.94  -0.78
iter:  18 13:04:23  -291.094544  +0.56  -0.85
iter:  19 13:08:47  -291.500182  +0.39  -1.11
Writing to output.gpw (mode='')

iter:  20 13:14:16  -291.289470  +0.27  -1.08
iter:  21 13:19:29  -290.853474  +0.31  -1.21
iter:  22 13:23:24  -290.997609  +0.08  -1.27
iter:  23 13:26:41  -290.769370  -0.80  -1.40
iter:  24 13:30:09  -290.738918  -0.98  -1.48
Writing to output.gpw (mode='')

iter:  25 13:33:57  -290.619630  -0.86  -1.52
iter:  26 13:36:27  -290.620993  -0.64  -1.71
iter:  27 13:40:44  -290.611479c -1.23  -1.92
iter:  28 13:44:16  -290.611882c -1.46  -2.03
iter:  29 13:49:02  -290.610900c -1.43  -2.10
Writing to output.gpw (mode='')

iter:  30 13:55:07  -290.613157c -1.72  -2.23
iter:  31 13:59:18  -290.614017c -1.90  -2.35
iter:  32 14:05:02  -290.613485c -1.79  -2.43
iter:  33 14:09:13  -290.614764c -2.16  -2.62
iter:  34 14:12:24  -290.615815c -2.13  -2.68
Writing to output.gpw (mode='')

iter:  35 14:15:22  -290.616669c -2.20  -2.78
iter:  36 14:18:14  -290.617233c -2.41  -2.82
iter:  37 14:23:40  -290.617606c -2.48  -2.85
iter:  38 14:30:16  -290.617991c -2.75  -2.98
iter:  39 14:34:07  -290.618655c -2.54  -3.03
Writing to output.gpw (mode='')

iter:  40 14:42:28  -290.618682c -2.83  -3.03
iter:  41 14:46:11  -290.618924c -2.83  -3.21
iter:  42 14:53:46  -290.619071c -3.04  -3.29
iter:  43 14:59:13  -290.619234c -3.02  -3.42
iter:  44 15:05:13  -290.619323c -3.26  -3.42
Writing to output.gpw (mode='')

iter:  45 15:10:48  -290.619430c -3.07  -3.46
iter:  46 15:13:47  -290.619549c -3.47  -3.49
iter:  47 15:19:35  -290.619596c -3.49  -3.65
iter:  48 15:23:35  -290.619643c -3.50  -3.73
iter:  49 15:26:02  -290.619694c -3.57  -3.76
Writing to output.gpw (mode='')

iter:  50 15:30:06  -290.619739c -3.57  -3.89
iter:  51 15:33:01  -290.619767c -3.79  -4.00
iter:  52 15:39:27  -290.619792c -3.81  -4.11c
iter:  53 15:43:43  -290.619816c -3.83  -4.16c
iter:  54 15:50:14  -290.619832c -4.03  -4.21c
Writing to output.gpw (mode='')

iter:  55 15:57:20  -290.619846c -4.04  -4.28c
iter:  56 16:01:20  -290.619856c -4.23  -4.38c
iter:  57 16:05:02  -290.619867c -4.27  -4.47c
iter:  58 16:09:33  -290.619874c -4.41  -4.45c
iter:  59 16:15:38  -290.619879c -4.36  -4.45c
Writing to output.gpw (mode='')

iter:  60 16:18:34  -290.619884c -4.51  -4.49c
iter:  61 16:21:38  -290.619889c -4.48  -4.46c
iter:  62 16:25:37  -290.619893c -4.51  -4.38c
iter:  63 16:28:53  -290.619896c -4.60  -4.51c
iter:  64 16:32:36  -290.619899c -4.71  -4.51c
Writing to output.gpw (mode='')

iter:  65 16:36:16  -290.619902c -4.77  -4.69c
iter:  66 16:40:19  -290.619904c -4.85  -4.94c
iter:  67 16:43:57  -290.619905c -4.91  -4.99c
