
  ___ ___ ___ _ _ _  
 |   |   |_  | | | | 
 | | | | | . | | | | 
 |__ |  _|___|_____|  22.8.0
 |___|_|             

User:   vazumah@r422.ib.bridges2.psc.edu
Date:   Fri Mar 10 12:22:51 2023
Arch:   x86_64
Pid:    86716
CWD:    /jet/home/vazumah/Calcs/LiMEAS/proton_donors/ethanediol_y/bridge/8.085_1.617/N2_x
Python: 3.11.0
gpaw:   /jet/home/vazumah/.conda/envs/GPAW_mpich/lib/python3.11/site-packages/gpaw
_gpaw:  /jet/home/vazumah/.conda/envs/GPAW_mpich/lib/python3.11/site-packages/
        _gpaw.cpython-311-x86_64-linux-gnu.so
ase:    /jet/home/vazumah/.conda/envs/GPAW_mpich/lib/python3.11/site-packages/ase (version 3.22.1)
numpy:  /jet/home/vazumah/.conda/envs/GPAW_mpich/lib/python3.11/site-packages/numpy (version 1.24.2)
scipy:  /jet/home/vazumah/.conda/envs/GPAW_mpich/lib/python3.11/site-packages/scipy (version 1.10.1)
libxc:  5.2.3
units:  Angstrom and eV
cores: 128
OpenMP: True
OMP_NUM_THREADS: 1

Input parameters:
  h: 0.16
  kpts: {size: [4, 4, 1]}
  occupations: {name: fermi-dirac,
                width: 0.05}
  poissonsolver: {dipolelayer: xy}
  xc: BEEF-vdW

System changes: positions, numbers, cell, pbc, initial_charges, initial_magmoms 

Initialize ...

species:
  Li:
    name: Lithium
    id: 830b4218f175192f93f959cfc0aad614
    Z: 3.0
    valence: 1
    core: 2
    charge: 0.0
    file: /jet/home/vazumah/datasets/gpaw-setups-0.9.20000/Li.PBE.gz
    compensation charges: {type: gauss,
                           rc: 0.33,
                           lmax: 2}
    cutoffs: {filter: 1.91,
              core: 2.55}
    valence states:
      #              energy  rcut
      - 2s(1.00)    -2.874   1.058
      - 2p(0.00)    -1.090   1.058
      -  s          24.337   1.058
  
    # Using partial waves for Li as LCAO basis

  O:
    name: Oxygen
    id: 32ecd46bf208036f09c70b0ec9a88b78
    Z: 8.0
    valence: 6
    core: 2
    charge: 0.0
    file: /jet/home/vazumah/datasets/gpaw-setups-0.9.20000/O.PBE.gz
    compensation charges: {type: gauss,
                           rc: 0.21,
                           lmax: 2}
    cutoffs: {filter: 1.17,
              core: 0.83}
    valence states:
      #              energy  rcut
      - 2s(2.00)   -23.961   0.688
      - 2p(4.00)    -9.029   0.598
      -  s           3.251   0.688
      -  p          18.182   0.598
      -  d           0.000   0.619
  
    # Using partial waves for O as LCAO basis

  C:
    name: Carbon
    id: 4aa54d4b901d75f77cc0ea3eec22967b
    Z: 6.0
    valence: 4
    core: 2
    charge: 0.0
    file: /jet/home/vazumah/datasets/gpaw-setups-0.9.20000/C.PBE.gz
    compensation charges: {type: gauss,
                           rc: 0.20,
                           lmax: 2}
    cutoffs: {filter: 1.14,
              core: 1.14}
    valence states:
      #              energy  rcut
      - 2s(2.00)   -13.751   0.635
      - 2p(2.00)    -5.284   0.635
      -  s          13.461   0.635
      -  p          21.927   0.635
      -  d           0.000   0.635
  
    # Using partial waves for C as LCAO basis

  H:
    name: Hydrogen
    id: d65de229564ff8ea4db303e23b6d1ecf
    Z: 1.0
    valence: 1
    core: 0
    charge: 0.0
    file: /jet/home/vazumah/datasets/gpaw-setups-0.9.20000/H.PBE.gz
    compensation charges: {type: gauss,
                           rc: 0.15,
                           lmax: 2}
    cutoffs: {filter: 0.85,
              core: 0.53}
    valence states:
      #              energy  rcut
      - 1s(1.00)    -6.494   0.476
      -  s          20.717   0.476
      -  p           0.000   0.476
  
    # Using partial waves for H as LCAO basis

  N:
    name: Nitrogen
    id: f7500608b86eaa90eef8b1d9a670dc53
    Z: 7.0
    valence: 5
    core: 2
    charge: 0.0
    file: /jet/home/vazumah/datasets/gpaw-setups-0.9.20000/N.PBE.gz
    compensation charges: {type: gauss,
                           rc: 0.18,
                           lmax: 2}
    cutoffs: {filter: 1.11,
              core: 0.96}
    valence states:
      #              energy  rcut
      - 2s(2.00)   -18.583   0.603
      - 2p(3.00)    -7.089   0.529
      -  s           8.629   0.603
      -  p          20.123   0.529
      -  d           0.000   0.577
  
    # Using partial waves for N as LCAO basis

Reference energy: -16475.706344  # eV

Spin-paired calculation

Convergence criteria:
 Maximum [total energy] change in last 3 cyles: 0.0005 eV / electron
 Maximum integral of absolute [dens]ity change: 0.0001 electrons / valence electron
 Maximum integral of absolute [eigenst]ate change: 4e-08 eV^2 / valence electron
 Maximum number of scf [iter]ations: 333
 (Square brackets indicate name in SCF output, whereas a 'c' in
 the SCF output indicates the quantity has converged.)

Symmetries present (total): 1

  ( 1  0  0)
  ( 0  1  0)
  ( 0  0  1)

16 k-points: 4 x 4 x 1 Monkhorst-Pack grid
8 k-points in the irreducible part of the Brillouin zone
       k-points in crystal coordinates                weights
   0:     0.12500000   -0.37500000    0.00000000          2/16
   1:     0.12500000   -0.12500000    0.00000000          2/16
   2:     0.12500000    0.12500000    0.00000000          2/16
   3:     0.12500000    0.37500000    0.00000000          2/16
   4:     0.37500000   -0.37500000    0.00000000          2/16
   5:     0.37500000   -0.12500000    0.00000000          2/16
   6:     0.37500000    0.12500000    0.00000000          2/16
   7:     0.37500000    0.37500000    0.00000000          2/16

Wave functions: Uniform real-space grid
  Kinetic energy operator: 6*3+1=19 point O(h^6) finite-difference Laplacian
  ScaLapack parameters: grid=1x1, blocksize=None
  Wavefunction extrapolation:
    Improved wavefunction reuse through dual PAW basis 

Occupation numbers: Fermi-Dirac:
  width: 0.0500  # eV
 

Eigensolver
   Davidson(niter=2) 

Densities:
  Coarse grid: 60*60*164 grid
  Fine grid: 120*120*328 grid
  Total Charge: 0.000000 

Density mixing:
  Method: separate
  Backend: pulay
  Linear mixing parameter: 0.05
  old densities: 5
  Damping of long wavelength oscillations: 50 

Hamiltonian:
  XC and Coulomb potentials evaluated on a 120*120*328 grid
  Using the BEEF-vdW Exchange-Correlation functional
  Interpolation: tri-quintic (5. degree polynomial)
  Poisson solver: FastPoissonSolver using
    Stencil: 6*3+1=19 point O(h^6) finite-difference Laplacian
    FFT axes: [0, 1]
    FST axes: [2]

Dipole correction along z-axis 

XC parameters: BEEF-vdW with 2 nearest neighbor stencil

Memory estimate:
  Process memory now: 127.91 MiB
  Calculator: 84.78 MiB
    Density: 22.56 MiB
      Arrays: 7.22 MiB
      Localized functions: 12.59 MiB
      Mixer: 2.75 MiB
    Hamiltonian: 5.72 MiB
      Arrays: 4.72 MiB
      XC: 0.00 MiB
      Poisson: 0.00 MiB
      vbar: 0.99 MiB
    Wavefunctions: 56.50 MiB
      Arrays psit_nG: 26.37 MiB
      Eigensolver: 29.47 MiB
      Projections: 0.01 MiB
      Projectors: 0.66 MiB

Total number of cores used: 128
Parallelization over k-points: 8
Domain decomposition: 2 x 2 x 4

Number of atoms: 48
Number of atomic orbitals: 174
Number of bands in calculation: 48
Number of valence electrons: 72
Bands to converge: occupied

... initialized

Initializing position-dependent things.

Density initialized from atomic densities
Creating initial wave functions:
  48 bands from LCAO basis set

       .-----------------------.  
      /|                       |  
     / |                       |  
    /  |                       |  
   /   |                       |  
  /    |                       |  
 *     |                       |  
 |     |                       |  
 |     |                       |  
 |     |                       |  
 |     |                       |  
 |     |                  H    |  
 |   H |              H O C    |  
 | H   |              O  C     |  
 |     |                       |  
 |   Li|     Li      Li  H     |  
 |     |           N  N        |  
 | Li  |  LLi     LLi     Li   |  
 |     |                       |  
 Li    |LLi     LLi     Li     |  
 |   Li|     Li      Li        |  
 |    Li  Li  Li  Li  Li  Li   |  
 | Li  |   Li      Li          |  
 |     |Li      Li      Li     |  
 Li    | Li      Li            |  
 |    Li      Li      Li       |  
 |     |                       |  
 |     |                       |  
 |     |                       |  
 |     |                       |  
 |     |                       |  
 |     |                       |  
 |     .-----------------------.  
 |    /                       /   
 |   /                       /    
 |  /                       /     
 | /                       /      
 |/                       /       
 *-----------------------*        

Positions:
   0 Li     1.617037    1.617037   10.000000    ( 0.0000,  0.0000,  0.0000)
   1 Li     4.851111    1.617037   10.000000    ( 0.0000,  0.0000,  0.0000)
   2 Li     8.085185    1.617037   10.000000    ( 0.0000,  0.0000,  0.0000)
   3 Li     1.617037    4.851111   10.000000    ( 0.0000,  0.0000,  0.0000)
   4 Li     4.851111    4.851111   10.000000    ( 0.0000,  0.0000,  0.0000)
   5 Li     8.085185    4.851111   10.000000    ( 0.0000,  0.0000,  0.0000)
   6 Li     1.617037    8.085185   10.000000    ( 0.0000,  0.0000,  0.0000)
   7 Li     4.851111    8.085185   10.000000    ( 0.0000,  0.0000,  0.0000)
   8 Li     8.085185    8.085185   10.000000    ( 0.0000,  0.0000,  0.0000)
   9 Li     0.000000    0.000000   11.617037    ( 0.0000,  0.0000,  0.0000)
  10 Li     3.234074    0.000000   11.617037    ( 0.0000,  0.0000,  0.0000)
  11 Li     6.468148    0.000000   11.617037    ( 0.0000,  0.0000,  0.0000)
  12 Li     0.000000    3.234074   11.617037    ( 0.0000,  0.0000,  0.0000)
  13 Li     3.234074    3.234074   11.617037    ( 0.0000,  0.0000,  0.0000)
  14 Li     6.468148    3.234074   11.617037    ( 0.0000,  0.0000,  0.0000)
  15 Li     0.000000    6.468148   11.617037    ( 0.0000,  0.0000,  0.0000)
  16 Li     3.234074    6.468148   11.617037    ( 0.0000,  0.0000,  0.0000)
  17 Li     6.468148    6.468148   11.617037    ( 0.0000,  0.0000,  0.0000)
  18 Li     1.617038    1.617038   13.469728    ( 0.0000,  0.0000,  0.0000)
  19 Li     4.851111    1.617038   13.469729    ( 0.0000,  0.0000,  0.0000)
  20 Li     8.085184    1.617038   13.469728    ( 0.0000,  0.0000,  0.0000)
  21 Li     1.617038    4.851111   13.469729    ( 0.0000,  0.0000,  0.0000)
  22 Li     4.851111    4.851111   13.469730    ( 0.0000,  0.0000,  0.0000)
  23 Li     8.085184    4.851111   13.469729    ( 0.0000,  0.0000,  0.0000)
  24 Li     1.617038    8.085184   13.469728    ( 0.0000,  0.0000,  0.0000)
  25 Li     4.851111    8.085184   13.469729    ( 0.0000,  0.0000,  0.0000)
  26 Li     8.085184    8.085184   13.469728    ( 0.0000,  0.0000,  0.0000)
  27 Li    -0.000000   -0.000000   15.445939    ( 0.0000,  0.0000,  0.0000)
  28 Li     3.234074    0.000000   15.445939    ( 0.0000,  0.0000,  0.0000)
  29 Li     6.468148    0.000000   15.445939    ( 0.0000,  0.0000,  0.0000)
  30 Li     0.000000    3.234074   15.445939    ( 0.0000,  0.0000,  0.0000)
  31 Li     3.234076    3.234076   15.445938    ( 0.0000,  0.0000,  0.0000)
  32 Li     6.468146    3.234076   15.445938    ( 0.0000,  0.0000,  0.0000)
  33 Li     0.000000    6.468148   15.445939    ( 0.0000,  0.0000,  0.0000)
  34 Li     3.234076    6.468146   15.445938    ( 0.0000,  0.0000,  0.0000)
  35 Li     6.468146    6.468146   15.445938    ( 0.0000,  0.0000,  0.0000)
  36 O      8.085185    1.617037   19.445939    ( 0.0000,  0.0000,  0.0000)
  37 O      8.129179    4.515235   19.213250    ( 0.0000,  0.0000,  0.0000)
  38 C      9.256397    2.345598   19.033562    ( 0.0000,  0.0000,  0.0000)
  39 C      9.270087    3.754783   19.602713    ( 0.0000,  0.0000,  0.0000)
  40 H     10.170788    1.817472   19.326395    ( 0.0000,  0.0000,  0.0000)
  41 H      9.209099    2.378347   17.943996    ( 0.0000,  0.0000,  0.0000)
  42 H     10.144353    4.291502   19.226232    ( 0.0000,  0.0000,  0.0000)
  43 H      9.345589    3.705053   20.701774    ( 0.0000,  0.0000,  0.0000)
  44 H      8.159700    1.447612   20.393261    ( 0.0000,  0.0000,  0.0000)
  45 H      7.362058    3.935769   19.309689    ( 0.0000,  0.0000,  0.0000)
  46 N      8.085000    1.617000   16.945939    ( 0.0000,  0.0000,  0.0000)
  47 N      6.988378    1.617000   16.945939    ( 0.0000,  0.0000,  0.0000)

Unit cell:
           periodic     x           y           z      points  spacing
  1. axis:    yes    9.702222    0.000000    0.000000    60     0.1617
  2. axis:    yes    0.000000    9.702222    0.000000    60     0.1617
  3. axis:    no     0.000000    0.000000   26.351111   164     0.1607

  Lengths:   9.702222   9.702222  26.351111
  Angles:   90.000000  90.000000  90.000000

Effective grid spacing dv^(1/3) = 0.1614

     iter     time        total  log10-change:
                         energy  eigst   dens
iter:   1 12:23:06  -644.942481
iter:   2 12:23:13   -23.713508  +2.62  +0.02
iter:   3 12:23:21   -10.608601  +3.28  -0.15
iter:   4 12:23:28  -183.132804  +3.12  -0.24
Writing to output.gpw (mode='')

iter:   5 12:23:35  -253.223421  +2.85  -0.30
iter:   6 12:23:43  -313.149469  +2.51  -0.56
iter:   7 12:23:50  -329.196545  +2.17  -0.58
iter:   8 12:23:57  -330.717270  +1.91  -0.59
iter:   9 12:24:04  -382.910551  +2.10  -0.65
Writing to output.gpw (mode='')

iter:  10 12:24:12  -349.571311  +1.54  -0.48
iter:  11 12:24:19  -348.910290  +1.25  -0.65
iter:  12 12:24:26  -351.190931  +1.51  -0.67
iter:  13 12:24:34  -345.075187  +0.94  -0.56
iter:  14 12:24:46  -352.460305  +1.50  -0.57
Writing to output.gpw (mode='')

iter:  15 12:24:53  -330.960384  +0.73  -0.51
iter:  16 12:25:00  -330.171824  +0.46  -0.79
iter:  17 12:25:10  -328.526787  +0.44  -0.81
iter:  18 12:25:17  -327.528199  +0.34  -0.86
iter:  19 12:25:25  -327.304021  +0.85  -0.89
Writing to output.gpw (mode='')

iter:  20 12:25:32  -326.395674  +0.06  -0.91
iter:  21 12:25:39  -326.659830  +0.40  -1.09
iter:  22 12:25:47  -326.717620  -0.09  -1.28
iter:  23 12:25:54  -326.780058  +0.02  -1.27
iter:  24 12:26:01  -326.247976  -0.26  -1.28
Writing to output.gpw (mode='')

iter:  25 12:26:09  -325.958018  -0.42  -1.37
iter:  26 12:26:16  -325.962760  -0.56  -1.61
iter:  27 12:26:23  -325.928085c -1.25  -1.70
iter:  28 12:26:31  -325.900539  -1.29  -1.75
iter:  29 12:26:38  -325.846656  -0.95  -1.79
Writing to output.gpw (mode='')

iter:  30 12:26:45  -325.839009  -1.23  -1.98
iter:  31 12:26:53  -325.836598c -1.49  -1.99
iter:  32 12:27:00  -325.836872c -1.64  -2.02
iter:  33 12:27:07  -325.841163c -1.36  -2.02
iter:  34 12:27:15  -325.843884c -1.83  -2.08
Writing to output.gpw (mode='')

iter:  35 12:27:22  -325.842599c -2.00  -2.12
iter:  36 12:27:29  -325.840743c -1.82  -2.23
iter:  37 12:27:37  -325.839789c -2.36  -2.49
iter:  38 12:27:44  -325.841032c -2.51  -2.63
iter:  39 12:27:51  -325.841562c -2.66  -2.63
Writing to output.gpw (mode='')

iter:  40 12:27:59  -325.841872c -2.43  -2.63
iter:  41 12:28:06  -325.842325c -2.46  -2.62
iter:  42 12:28:13  -325.842707c -2.86  -2.62
iter:  43 12:28:20  -325.842912c -2.87  -2.62
iter:  44 12:28:28  -325.843165c -2.77  -2.60
Writing to output.gpw (mode='')

iter:  45 12:28:35  -325.842910c -2.80  -2.67
iter:  46 12:28:42  -325.842353c -2.86  -2.77
iter:  47 12:28:49  -325.842540c -3.07  -2.92
iter:  48 12:28:57  -325.843354c -2.79  -3.01
iter:  49 12:29:04  -325.843281c -3.37  -3.27
Writing to output.gpw (mode='')

iter:  50 12:29:12  -325.843406c -3.39  -3.34
iter:  51 12:29:19  -325.843550c -3.13  -3.35
iter:  52 12:29:26  -325.843572c -3.42  -3.32
iter:  53 12:29:34  -325.843522c -3.40  -3.29
iter:  54 12:29:47  -325.843619c -3.47  -3.36
Writing to output.gpw (mode='')

iter:  55 12:29:54  -325.843743c -3.35  -3.42
iter:  56 12:30:01  -325.843881c -3.43  -3.51
iter:  57 12:30:09  -325.843975c -3.35  -3.57
iter:  58 12:30:16  -325.844161c -3.31  -3.58
iter:  59 12:30:23  -325.844126c -3.86  -3.57
Writing to output.gpw (mode='')

iter:  60 12:30:31  -325.844214c -3.77  -3.73
iter:  61 12:30:38  -325.844180c -3.85  -3.77
iter:  62 12:30:45  -325.844227c -3.88  -3.82
iter:  63 12:30:53  -325.844240c -3.84  -3.94
iter:  64 12:31:00  -325.844246c -4.08  -4.00
Writing to output.gpw (mode='')

iter:  65 12:31:07  -325.844292c -3.95  -4.07c
iter:  66 12:31:15  -325.844295c -4.08  -4.17c
iter:  67 12:31:22  -325.844306c -3.92  -4.25c
iter:  68 12:31:29  -325.844317c -4.25  -4.30c
iter:  69 12:31:37  -325.844315c -4.34  -4.30c
Writing to output.gpw (mode='')

iter:  70 12:31:44  -325.844325c -4.37  -4.25c
iter:  71 12:31:51  -325.844330c -4.38  -4.31c
iter:  72 12:31:58  -325.844336c -4.18  -4.30c
iter:  73 12:32:06  -325.844335c -4.46  -4.26c
iter:  74 12:32:13  -325.844349c -4.51  -4.22c
Writing to output.gpw (mode='')

iter:  75 12:32:20  -325.844352c -4.49  -4.26c
iter:  76 12:32:27  -325.844362c -4.55  -4.26c
iter:  77 12:32:35  -325.844376c -4.58  -4.28c
iter:  78 12:32:42  -325.844389c -4.72  -4.33c
iter:  79 12:32:49  -325.844360c -4.94  -4.35c
Writing to output.gpw (mode='')

iter:  80 12:32:57  -325.844385c -4.94  -4.20c
iter:  81 12:33:04  -325.844375c -4.94  -4.30c
iter:  82 12:33:11  -325.844396c -4.93  -4.23c
iter:  83 12:33:19  -325.844400c -5.16  -4.33c
iter:  84 12:33:26  -325.844409c -4.91  -4.34c
Writing to output.gpw (mode='')

iter:  85 12:33:33  -325.844408c -5.32  -4.41c
iter:  86 12:33:40  -325.844407c -5.19  -4.40c
iter:  87 12:33:47  -325.844409c -5.20  -4.39c
iter:  88 12:33:55  -325.844414c -5.35  -4.41c
iter:  89 12:34:02  -325.844417c -5.49  -4.46c
Writing to output.gpw (mode='')

iter:  90 12:34:09  -325.844422c -5.49  -4.53c
iter:  91 12:34:17  -325.844420c -5.73  -4.58c
iter:  92 12:34:24  -325.844420c -5.77  -4.61c
iter:  93 12:34:31  -325.844420c -5.74  -4.72c
iter:  94 12:34:42  -325.844417c -5.77  -4.79c
Writing to output.gpw (mode='')

iter:  95 12:34:50  -325.844420c -5.75  -4.91c
iter:  96 12:34:57  -325.844421c -6.00  -5.02c
iter:  97 12:35:05  -325.844422c -5.96  -5.12c
iter:  98 12:35:12  -325.844421c -5.87  -5.29c
iter:  99 12:35:19  -325.844422c -5.83  -5.49c
Writing to output.gpw (mode='')

iter: 100 12:35:27  -325.844422c -5.99  -5.54c
iter: 101 12:35:34  -325.844422c -6.11  -5.53c
iter: 102 12:35:41  -325.844422c -5.99  -5.51c
iter: 103 12:35:48  -325.844421c -6.36  -5.44c
iter: 104 12:35:56  -325.844421c -6.46  -5.35c
Writing to output.gpw (mode='')

iter: 105 12:36:03  -325.844421c -6.54  -5.35c
iter: 106 12:36:10  -325.844421c -6.17  -5.31c
iter: 107 12:36:17  -325.844421c -6.27  -5.30c
iter: 108 12:36:25  -325.844421c -6.57  -5.29c
iter: 109 12:36:32  -325.844422c -6.62  -5.25c
Writing to output.gpw (mode='')

iter: 110 12:36:39  -325.844422c -6.82  -5.35c
iter: 111 12:36:47  -325.844423c -6.81  -5.33c
iter: 112 12:36:54  -325.844424c -6.87  -5.36c
iter: 113 12:37:01  -325.844423c -6.96  -5.53c
iter: 114 12:37:09  -325.844424c -6.99  -5.50c
Writing to output.gpw (mode='')

iter: 115 12:37:16  -325.844423c -6.98  -5.49c
iter: 116 12:37:23  -325.844424c -7.03  -5.48c
iter: 117 12:37:31  -325.844424c -7.13  -5.58c
iter: 118 12:37:38  -325.844424c -7.10  -5.59c
iter: 119 12:37:45  -325.844424c -7.14  -5.59c
Writing to output.gpw (mode='')

iter: 120 12:37:53  -325.844425c -6.94  -5.62c
iter: 121 12:38:00  -325.844425c -7.22  -5.66c
iter: 122 12:38:07  -325.844425c -7.29  -5.75c
iter: 123 12:38:15  -325.844425c -7.42c -5.85c

Converged after 123 iterations.

Dipole moment: (14.676447, -3.541620, 0.333678) |e|*Ang

Energy contributions relative to reference atoms: (reference = -16475.706344)

Kinetic:       +172.688359
Potential:     -163.811411
External:        +0.000000
XC:            -335.765476
Entropy (-ST):   -0.164514
Local:           +1.126359
--------------------------
Free energy:   -325.926682
Extrapolated:  -325.844425

Dipole-layer corrected work functions: 3.397507, 2.756064 eV

Showing only first 2 kpts
 Kpt  Band  Eigenvalues  Occupancy
  0    34     -3.32462    1.98603
  0    35     -3.17751    1.76460
  0    36     -2.95753    0.16864
  0    37     -2.83886    0.01701

  1    34     -3.12778    1.46988
  1    35     -3.07839    1.01609
  1    36     -3.04195    0.66506
  1    37     -2.97246    0.22084


Fermi level: -3.07679

Gap: 0.003 eV
Transition (v -> c):
  (s=0, k=2, n=35, [0.12, 0.12, 0.00]) -> (s=0, k=7, n=36, [0.38, 0.38, 0.00])
Writing to output.gpw (mode='')


Forces in eV/Ang:
  0 Li    0.01834    0.00119   -0.26730
  1 Li   -0.02457    0.00027   -0.27470
  2 Li    0.01029   -0.00064   -0.27925
  3 Li   -0.00152   -0.00237   -0.27843
  4 Li   -0.00186    0.00829   -0.27494
  5 Li   -0.00502    0.02616   -0.27432
  6 Li   -0.00268    0.00177   -0.27781
  7 Li   -0.00034   -0.00872   -0.27577
  8 Li   -0.00647   -0.02572   -0.27419
  9 Li    0.00497    0.00401    0.28033
 10 Li   -0.01732    0.00370    0.24398
 11 Li    0.00375    0.01334    0.31955
 12 Li    0.00584   -0.00274    0.27879
 13 Li   -0.01865   -0.00464    0.24157
 14 Li    0.00115   -0.01382    0.31925
 15 Li   -0.01283   -0.00148    0.24774
 16 Li    0.01569    0.00015    0.26366
 17 Li    0.00993    0.00112    0.22843
 18 Li   -0.00668    0.00004    0.05687
 19 Li   -0.02393    0.00023   -0.03235
 20 Li    0.02665    0.00332   -0.18982
 21 Li   -0.00697    0.00106    0.04631
 22 Li    0.02958   -0.02740    0.06415
 23 Li   -0.00752   -0.01461    0.03781
 24 Li   -0.00934   -0.00054    0.04624
 25 Li    0.02878    0.02716    0.06105
 26 Li   -0.00603    0.01234    0.04534
 27 Li    0.10833   -0.03373   -0.01859
 28 Li   -0.02940   -0.01239   -0.03944
 29 Li   -0.09128   -0.06859   -0.01141
 30 Li    0.14215    0.06667   -0.12285
 31 Li   -0.02642    0.01680   -0.04015
 32 Li   -0.06807    0.06767   -0.02649
 33 Li   -0.02186   -0.00030   -0.00055
 34 Li    0.00720   -0.00465   -0.01171
 35 Li    0.00506   -0.00270   -0.01054
 36 O     0.12594    0.08239    0.34829
 37 O    -0.07646    0.05954   -0.11704
 38 C     0.49653    0.42955    0.78669
 39 C     0.08115   -0.05803    0.17767
 40 H     0.04337   -0.06198   -0.00258
 41 H     0.54160    0.31353    0.87212
 42 H     0.04200    0.01303    0.00956
 43 H     0.00851    0.06988   -0.00328
 44 H     0.03051   -0.02286   -0.00113
 45 H    -0.07751    0.00550    0.03312
 46 N     3.86610   -0.87030   -2.08955
 47 N    -5.08777    0.02783    0.20853

System changes: positions 

Initializing position-dependent things.

Density initialized from wave functions
       .-----------------------.  
      /|                       |  
     / |                       |  
    /  |                       |  
   /   |                       |  
  /    |                       |  
 *     |                       |  
 |     |                       |  
 |     |                       |  
 |     |                       |  
 |     |                       |  
 |     |                  H    |  
 |   H |              H O C    |  
 | H   Li      Li     OLiC     |  
 |     |                       |  
 |     |     Li      Li  H   Li|  
 |     |           N  N        |  
 | Li  |  LLi     LLi     Li   |  
 |     |                       |  
 |     |Li      Li      Li     |  
 |   Li|     Li      Li        |  
 |    Li  Li  Li  Li  Li  Li   |  
 | Li  |   Li      Li          |  
 |     |Li      Li      Li     |  
 Li    | Li      Li            |  
 |    Li      Li      Li       |  
 |     |                       |  
 |     |                       |  
 |     |                       |  
 |     |                       |  
 |     |                       |  
 |     |                       |  
 |     .-----------------------.  
 |    /                       /   
 |   /                       /    
 |  /                       /     
 | /                       /      
 |/                       /       
 *-----------------------*        

Positions:
   0 Li     1.617037    1.617037   10.000000    ( 0.0000,  0.0000,  0.0000)
   1 Li     4.851111    1.617037   10.000000    ( 0.0000,  0.0000,  0.0000)
   2 Li     8.085185    1.617037   10.000000    ( 0.0000,  0.0000,  0.0000)
   3 Li     1.617037    4.851111   10.000000    ( 0.0000,  0.0000,  0.0000)
   4 Li     4.851111    4.851111   10.000000    ( 0.0000,  0.0000,  0.0000)
   5 Li     8.085185    4.851111   10.000000    ( 0.0000,  0.0000,  0.0000)
   6 Li     1.617037    8.085185   10.000000    ( 0.0000,  0.0000,  0.0000)
   7 Li     4.851111    8.085185   10.000000    ( 0.0000,  0.0000,  0.0000)
   8 Li     8.085185    8.085185   10.000000    ( 0.0000,  0.0000,  0.0000)
   9 Li     0.000000    0.000000   11.617037    ( 0.0000,  0.0000,  0.0000)
  10 Li     3.234074    0.000000   11.617037    ( 0.0000,  0.0000,  0.0000)
  11 Li     6.468148    0.000000   11.617037    ( 0.0000,  0.0000,  0.0000)
  12 Li     0.000000    3.234074   11.617037    ( 0.0000,  0.0000,  0.0000)
  13 Li     3.234074    3.234074   11.617037    ( 0.0000,  0.0000,  0.0000)
  14 Li     6.468148    3.234074   11.617037    ( 0.0000,  0.0000,  0.0000)
  15 Li     0.000000    6.468148   11.617037    ( 0.0000,  0.0000,  0.0000)
  16 Li     3.234074    6.468148   11.617037    ( 0.0000,  0.0000,  0.0000)
  17 Li     6.468148    6.468148   11.617037    ( 0.0000,  0.0000,  0.0000)
  18 Li     1.616986    1.617038   13.470175    ( 0.0000,  0.0000,  0.0000)
  19 Li     4.850923    1.617040   13.469475    ( 0.0000,  0.0000,  0.0000)
  20 Li     8.085393    1.617064   13.468237    ( 0.0000,  0.0000,  0.0000)
  21 Li     1.616984    4.851119   13.470093    ( 0.0000,  0.0000,  0.0000)
  22 Li     4.851343    4.850896   13.470234    ( 0.0000,  0.0000,  0.0000)
  23 Li     8.085124    4.850996   13.470026    ( 0.0000,  0.0000,  0.0000)
  24 Li     1.616965    8.085180   13.470091    ( 0.0000,  0.0000,  0.0000)
  25 Li     4.851337    8.085397   13.470209    ( 0.0000,  0.0000,  0.0000)
  26 Li     8.085137    8.085281   13.470084    ( 0.0000,  0.0000,  0.0000)
  27 Li     0.000851   -0.000265   15.445793    ( 0.0000,  0.0000,  0.0000)
  28 Li     3.233843   -0.000097   15.445629    ( 0.0000,  0.0000,  0.0000)
  29 Li     6.467431   -0.000539   15.445849    ( 0.0000,  0.0000,  0.0000)
  30 Li     0.001117    3.234597   15.444974    ( 0.0000,  0.0000,  0.0000)
  31 Li     3.233869    3.234208   15.445623    ( 0.0000,  0.0000,  0.0000)
  32 Li     6.467611    3.234608   15.445730    ( 0.0000,  0.0000,  0.0000)
  33 Li    -0.000172    6.468146   15.445934    ( 0.0000,  0.0000,  0.0000)
  34 Li     3.234133    6.468109   15.445846    ( 0.0000,  0.0000,  0.0000)
  35 Li     6.468185    6.468124   15.445855    ( 0.0000,  0.0000,  0.0000)
  36 O      8.086174    1.617684   19.448675    ( 0.0000,  0.0000,  0.0000)
  37 O      8.128578    4.515703   19.212331    ( 0.0000,  0.0000,  0.0000)
  38 C      9.260297    2.348972   19.039742    ( 0.0000,  0.0000,  0.0000)
  39 C      9.270725    3.754328   19.604109    ( 0.0000,  0.0000,  0.0000)
  40 H     10.171128    1.816985   19.326375    ( 0.0000,  0.0000,  0.0000)
  41 H      9.213353    2.380810   17.950846    ( 0.0000,  0.0000,  0.0000)
  42 H     10.144683    4.291604   19.226307    ( 0.0000,  0.0000,  0.0000)
  43 H      9.345655    3.705602   20.701748    ( 0.0000,  0.0000,  0.0000)
  44 H      8.159940    1.447433   20.393252    ( 0.0000,  0.0000,  0.0000)
  45 H      7.361450    3.935812   19.309949    ( 0.0000,  0.0000,  0.0000)
  46 N      8.115369    1.610164   16.929525    ( 0.0000,  0.0000,  0.0000)
  47 N      6.948412    1.617219   16.947577    ( 0.0000,  0.0000,  0.0000)

Unit cell:
           periodic     x           y           z      points  spacing
  1. axis:    yes    9.702222    0.000000    0.000000    60     0.1617
  2. axis:    yes    0.000000    9.702222    0.000000    60     0.1617
  3. axis:    no     0.000000    0.000000   26.351111   164     0.1607

  Lengths:   9.702222   9.702222  26.351111
  Angles:   90.000000  90.000000  90.000000

Effective grid spacing dv^(1/3) = 0.1614

     iter     time        total  log10-change:
                         energy  eigst   dens
iter:   1 12:38:24  -331.719599  +0.31
iter:   2 12:38:31  -327.435650  +0.27  -1.00
iter:   3 12:38:38  -326.533941  -0.51  -1.08
iter:   4 12:38:46  -326.099014  -0.73  -1.27
Writing to output.gpw (mode='')

iter:   5 12:38:53  -326.065119  -1.39  -1.54
iter:   6 12:39:00  -326.172316  -0.98  -1.63
iter:   7 12:39:08  -326.001384  -1.13  -1.43
iter:   8 12:39:15  -325.981274  -1.83  -1.94
iter:   9 12:39:22  -325.967746c -2.02  -2.03
Writing to output.gpw (mode='')

iter:  10 12:39:30  -325.961978c -2.02  -2.15
iter:  11 12:39:43  -325.966365c -1.96  -2.37
iter:  12 12:39:52  -325.962098c -2.63  -2.44
iter:  13 12:39:59  -325.962959c -2.56  -2.60
iter:  14 12:40:07  -325.963354c -2.70  -2.79
Writing to output.gpw (mode='')

iter:  15 12:40:14  -325.963528c -2.92  -2.82
iter:  16 12:40:22  -325.962987c -2.95  -2.94
iter:  17 12:40:29  -325.963229c -3.53  -3.09
iter:  18 12:40:36  -325.963348c -3.33  -3.15
iter:  19 12:40:44  -325.963187c -3.83  -3.39
Writing to output.gpw (mode='')

iter:  20 12:40:51  -325.963412c -3.80  -3.38
iter:  21 12:40:59  -325.963358c -3.93  -3.52
iter:  22 12:41:09  -325.963386c -4.04  -3.54
iter:  23 12:41:17  -325.963400c -4.09  -3.63
iter:  24 12:41:24  -325.963408c -4.47  -3.78
Writing to output.gpw (mode='')

iter:  25 12:41:31  -325.963444c -4.47  -3.80
iter:  26 12:41:39  -325.963415c -4.36  -3.91
iter:  27 12:41:46  -325.963404c -4.43  -3.93
iter:  28 12:41:53  -325.963407c -4.85  -3.99
iter:  29 12:42:01  -325.963419c -5.08  -4.03c
Writing to output.gpw (mode='')

iter:  30 12:42:08  -325.963414c -5.06  -4.16c
iter:  31 12:42:16  -325.963426c -5.03  -4.25c
iter:  32 12:42:26  -325.963417c -4.95  -4.28c
iter:  33 12:42:37  -325.963401c -5.26  -4.40c
iter:  34 12:42:48  -325.963415c -5.50  -4.45c
Writing to output.gpw (mode='')

iter:  35 12:42:55  -325.963418c -5.54  -4.59c
iter:  36 12:43:03  -325.963415c -5.56  -4.62c
iter:  37 12:43:10  -325.963409c -5.56  -4.65c
iter:  38 12:43:17  -325.963410c -5.84  -4.70c
iter:  39 12:43:25  -325.963417c -5.79  -4.82c
Writing to output.gpw (mode='')

iter:  40 12:43:32  -325.963409c -5.95  -4.84c
iter:  41 12:43:39  -325.963413c -6.09  -4.91c
iter:  42 12:43:47  -325.963410c -6.20  -5.14c
iter:  43 12:43:54  -325.963412c -6.12  -5.21c
iter:  44 12:44:02  -325.963413c -6.41  -5.25c
Writing to output.gpw (mode='')

iter:  45 12:44:09  -325.963412c -6.52  -5.20c
iter:  46 12:44:16  -325.963414c -6.29  -5.21c
iter:  47 12:44:24  -325.963413c -6.82  -5.07c
iter:  48 12:44:31  -325.963414c -6.72  -5.07c
iter:  49 12:44:44  -325.963414c -6.68  -5.05c
Writing to output.gpw (mode='')

iter:  50 12:44:52  -325.963412c -6.80  -5.00c
iter:  51 12:44:59  -325.963413c -6.82  -5.06c
iter:  52 12:45:07  -325.963414c -6.75  -4.97c
iter:  53 12:45:14  -325.963410c -7.16  -4.98c
iter:  54 12:45:22  -325.963410c -7.28  -5.01c
Writing to output.gpw (mode='')

iter:  55 12:45:29  -325.963409c -7.26  -5.07c
iter:  56 12:45:37  -325.963410c -6.87  -5.08c
iter:  57 12:45:44  -325.963406c -7.26  -5.14c
iter:  58 12:45:51  -325.963407c -7.52c -5.14c

Converged after 58 iterations.

Dipole moment: (14.593500, -3.270262, 0.261553) |e|*Ang

Energy contributions relative to reference atoms: (reference = -16475.706344)

Kinetic:       +163.505368
Potential:     -156.259081
External:        +0.000000
XC:            -334.247098
Entropy (-ST):   -0.175149
Local:           +1.124978
--------------------------
Free energy:   -326.050981
Extrapolated:  -325.963407

Dipole-layer corrected work functions: 3.403491, 2.900697 eV

Showing only first 2 kpts
 Kpt  Band  Eigenvalues  Occupancy
  0    34     -3.39702    1.98519
  0    35     -3.23688    1.68995
  0    36     -3.06124    0.27958
  0    37     -2.92441    0.02084

  1    34     -3.20991    1.52131
  1    35     -3.14299    0.90920
  1    36     -3.11391    0.63568
  1    37     -3.04024    0.19295


Fermi level: -3.15209

No gap
Writing to output.gpw (mode='')


Forces in eV/Ang:
  0 Li    0.01787    0.00105   -0.26784
  1 Li   -0.02265    0.00004   -0.27609
  2 Li    0.00924   -0.00056   -0.28090
  3 Li   -0.00155   -0.00023   -0.27965
  4 Li   -0.00357    0.00954   -0.27621
  5 Li   -0.00485    0.02586   -0.27623
  6 Li   -0.00227   -0.00045   -0.27891
  7 Li   -0.00214   -0.00990   -0.27703
  8 Li   -0.00625   -0.02544   -0.27587
  9 Li    0.00325    0.00496    0.28480
 10 Li   -0.01713    0.00353    0.24483
 11 Li    0.00373    0.01276    0.32342
 12 Li    0.00408   -0.00316    0.28283
 13 Li   -0.01834   -0.00457    0.24250
 14 Li    0.00136   -0.01349    0.32345
 15 Li   -0.01098   -0.00209    0.24690
 16 Li    0.01617    0.00051    0.26121
 17 Li    0.00938    0.00120    0.22849
 18 Li   -0.00026    0.00026    0.04592
 19 Li   -0.03042   -0.00001   -0.04598
 20 Li    0.02340    0.00259   -0.16925
 21 Li   -0.00721   -0.00153    0.04763
 22 Li    0.03088   -0.02498    0.05905
 23 Li   -0.00622   -0.00482    0.02207
 24 Li   -0.01014    0.00239    0.04681
 25 Li    0.02985    0.02525    0.05690
 26 Li   -0.00491    0.00342    0.03046
 27 Li    0.04859    0.02068    0.05789
 28 Li   -0.02527   -0.01901   -0.03887
 29 Li   -0.01635    0.03900    0.13175
 30 Li    0.08143    0.01414   -0.04814
 31 Li   -0.02310    0.02269   -0.04035
 32 Li    0.00796   -0.04178    0.11965
 33 Li   -0.01430   -0.00066   -0.00361
 34 Li    0.00446   -0.00436   -0.01390
 35 Li   -0.00100   -0.00296   -0.01534
 36 O     0.18373    0.15351    0.22190
 37 O    -0.05087    0.03445   -0.10027
 38 C     0.28168    0.26831    0.70313
 39 C     0.07674    0.04609    0.18388
 40 H     0.12316   -0.07817    0.06234
 41 H     0.42610    0.27227    0.73201
 42 H     0.03637    0.01692    0.02452
 43 H     0.00659    0.09655    0.04307
 44 H     0.04525   -0.04220    0.14196
 45 H    -0.05558   -0.00457    0.01636
 46 N    -2.80385   -0.78704   -2.20248
 47 N     1.57637    0.01721   -0.06295

System changes: positions 

Initializing position-dependent things.

Density initialized from wave functions
       .-----------------------.  
      /|                       |  
     / |                       |  
    /  |                       |  
   /   |                       |  
  /    |                       |  
 *     |                       |  
 |     |                       |  
 |     |                       |  
 |     |                       |  
 |     |                       |  
 |     |                  H    |  
 |   H |              H O C    |  
 | H   Li      Li     OLiC     |  
 |     |                       |  
 |     |     Li      Li  H   Li|  
 |     |           N  N        |  
 | Li  |  LLi     LLi     Li   |  
 |     |                       |  
 |     |Li      Li      Li     |  
 |   Li|     Li      Li        |  
 |    Li  Li  Li  Li  Li  Li   |  
 | Li  |   Li      Li          |  
 |     |Li      Li      Li     |  
 Li    | Li      Li            |  
 |    Li      Li      Li       |  
 |     |                       |  
 |     |                       |  
 |     |                       |  
 |     |                       |  
 |     |                       |  
 |     |                       |  
 |     .-----------------------.  
 |    /                       /   
 |   /                       /    
 |  /                       /     
 | /                       /      
 |/                       /       
 *-----------------------*        

Positions:
   0 Li     1.617037    1.617037   10.000000    ( 0.0000,  0.0000,  0.0000)
   1 Li     4.851111    1.617037   10.000000    ( 0.0000,  0.0000,  0.0000)
   2 Li     8.085185    1.617037   10.000000    ( 0.0000,  0.0000,  0.0000)
   3 Li     1.617037    4.851111   10.000000    ( 0.0000,  0.0000,  0.0000)
   4 Li     4.851111    4.851111   10.000000    ( 0.0000,  0.0000,  0.0000)
   5 Li     8.085185    4.851111   10.000000    ( 0.0000,  0.0000,  0.0000)
   6 Li     1.617037    8.085185   10.000000    ( 0.0000,  0.0000,  0.0000)
   7 Li     4.851111    8.085185   10.000000    ( 0.0000,  0.0000,  0.0000)
   8 Li     8.085185    8.085185   10.000000    ( 0.0000,  0.0000,  0.0000)
   9 Li     0.000000    0.000000   11.617037    ( 0.0000,  0.0000,  0.0000)
  10 Li     3.234074    0.000000   11.617037    ( 0.0000,  0.0000,  0.0000)
  11 Li     6.468148    0.000000   11.617037    ( 0.0000,  0.0000,  0.0000)
  12 Li     0.000000    3.234074   11.617037    ( 0.0000,  0.0000,  0.0000)
  13 Li     3.234074    3.234074   11.617037    ( 0.0000,  0.0000,  0.0000)
  14 Li     6.468148    3.234074   11.617037    ( 0.0000,  0.0000,  0.0000)
  15 Li     0.000000    6.468148   11.617037    ( 0.0000,  0.0000,  0.0000)
  16 Li     3.234074    6.468148   11.617037    ( 0.0000,  0.0000,  0.0000)
  17 Li     6.468148    6.468148   11.617037    ( 0.0000,  0.0000,  0.0000)
  18 Li     1.616955    1.617042   13.470937    ( 0.0000,  0.0000,  0.0000)
  19 Li     4.850474    1.617041   13.468813    ( 0.0000,  0.0000,  0.0000)
  20 Li     8.085772    1.617108   13.465508    ( 0.0000,  0.0000,  0.0000)
  21 Li     1.616872    4.851106   13.470832    ( 0.0000,  0.0000,  0.0000)
  22 Li     4.851821    4.850496   13.471178    ( 0.0000,  0.0000,  0.0000)
  23 Li     8.085022    4.850881   13.470436    ( 0.0000,  0.0000,  0.0000)
  24 Li     1.616810    8.085205   13.470820    ( 0.0000,  0.0000,  0.0000)
  25 Li     4.851799    8.085799   13.471115    ( 0.0000,  0.0000,  0.0000)
  26 Li     8.085055    8.085371   13.470621    ( 0.0000,  0.0000,  0.0000)
  27 Li     0.001854   -0.000164   15.446385    ( 0.0000,  0.0000,  0.0000)
  28 Li     3.233431   -0.000367   15.445019    ( 0.0000,  0.0000,  0.0000)
  29 Li     6.466870   -0.000369   15.447323    ( 0.0000,  0.0000,  0.0000)
  30 Li     0.002637    3.235033   15.443916    ( 0.0000,  0.0000,  0.0000)
  31 Li     3.233494    3.234539   15.444993    ( 0.0000,  0.0000,  0.0000)
  32 Li     6.467425    3.234402   15.447003    ( 0.0000,  0.0000,  0.0000)
  33 Li    -0.000426    6.468137   15.445891    ( 0.0000,  0.0000,  0.0000)
  34 Li     3.234214    6.468040   15.445638    ( 0.0000,  0.0000,  0.0000)
  35 Li     6.468194    6.468079   15.445635    ( 0.0000,  0.0000,  0.0000)
  36 O      8.088809    1.619792   19.452659    ( 0.0000,  0.0000,  0.0000)
  37 O      8.127679    4.516343   19.210696    ( 0.0000,  0.0000,  0.0000)
  38 C      9.265576    2.353823   19.051069    ( 0.0000,  0.0000,  0.0000)
  39 C      9.271942    3.754622   19.606957    ( 0.0000,  0.0000,  0.0000)
  40 H     10.172727    1.815830   19.327084    ( 0.0000,  0.0000,  0.0000)
  41 H      9.220483    2.385232   17.962856    ( 0.0000,  0.0000,  0.0000)
  42 H     10.145274    4.291852   19.226629    ( 0.0000,  0.0000,  0.0000)
  43 H      9.345766    3.707002   20.702232    ( 0.0000,  0.0000,  0.0000)
  44 H      8.160587    1.446852   20.394885    ( 0.0000,  0.0000,  0.0000)
  45 H      7.360492    3.935782   19.310273    ( 0.0000,  0.0000,  0.0000)
  46 N      8.098804    1.597526   16.895574    ( 0.0000,  0.0000,  0.0000)
  47 N      6.945822    1.617531   16.947703    ( 0.0000,  0.0000,  0.0000)

Unit cell:
           periodic     x           y           z      points  spacing
  1. axis:    yes    9.702222    0.000000    0.000000    60     0.1617
  2. axis:    yes    0.000000    9.702222    0.000000    60     0.1617
  3. axis:    no     0.000000    0.000000   26.351111   164     0.1607

  Lengths:   9.702222   9.702222  26.351111
  Angles:   90.000000  90.000000  90.000000

Effective grid spacing dv^(1/3) = 0.1614

     iter     time        total  log10-change:
                         energy  eigst   dens
iter:   1 12:46:00  -326.288869  -1.14
iter:   2 12:46:08  -326.162413  -1.00  -1.62
iter:   3 12:46:15  -326.129330  -2.00  -1.71
iter:   4 12:46:22  -326.106873  -1.48  -2.06
Writing to output.gpw (mode='')

iter:   5 12:46:30  -326.102728c -2.62  -2.12
iter:   6 12:46:37  -326.119619c -2.23  -2.54
iter:   7 12:46:45  -326.101898c -2.57  -2.19
iter:   8 12:46:52  -326.099715c -2.72  -2.69
iter:   9 12:46:59  -326.101101c -3.37  -2.81
Writing to output.gpw (mode='')

iter:  10 12:47:07  -326.100917c -3.23  -2.83
iter:  11 12:47:14  -326.100002c -3.29  -2.99
iter:  12 12:47:22  -326.100264c -3.62  -3.13
iter:  13 12:47:29  -326.100484c -4.06  -3.25
iter:  14 12:47:36  -326.100135c -3.93  -3.30
Writing to output.gpw (mode='')

iter:  15 12:47:44  -326.100481c -4.36  -3.40
iter:  16 12:47:51  -326.100353c -4.31  -3.51
iter:  17 12:47:58  -326.100377c -4.77  -3.75
iter:  18 12:48:06  -326.100380c -4.49  -3.80
iter:  19 12:48:13  -326.100413c -4.97  -3.87
Writing to output.gpw (mode='')

iter:  20 12:48:20  -326.100402c -5.23  -3.96
iter:  21 12:48:28  -326.100406c -5.29  -4.00
iter:  22 12:48:35  -326.100412c -5.33  -4.12c
iter:  23 12:48:43  -326.100408c -5.63  -4.27c
iter:  24 12:48:50  -326.100401c -5.51  -4.34c
Writing to output.gpw (mode='')

iter:  25 12:48:57  -326.100411c -5.90  -4.55c
iter:  26 12:49:05  -326.100409c -5.83  -4.63c
iter:  27 12:49:12  -326.100414c -5.82  -4.73c
iter:  28 12:49:19  -326.100413c -5.87  -4.77c
iter:  29 12:49:27  -326.100416c -6.17  -4.73c
Writing to output.gpw (mode='')

iter:  30 12:49:34  -326.100419c -6.15  -4.86c
iter:  31 12:49:48  -326.100417c -6.34  -4.88c
iter:  32 12:49:55  -326.100417c -6.62  -5.05c
iter:  33 12:50:02  -326.100419c -6.38  -5.10c
iter:  34 12:50:10  -326.100419c -6.63  -5.19c
Writing to output.gpw (mode='')

iter:  35 12:50:17  -326.100420c -6.77  -5.23c
iter:  36 12:50:24  -326.100421c -6.79  -5.26c
iter:  37 12:50:32  -326.100421c -6.96  -5.30c
iter:  38 12:50:39  -326.100424c -7.25  -5.32c
iter:  39 12:50:46  -326.100423c -7.35  -5.34c
Writing to output.gpw (mode='')

iter:  40 12:50:54  -326.100422c -7.17  -5.49c
iter:  41 12:51:01  -326.100422c -7.15  -5.63c
iter:  42 12:51:08  -326.100423c -7.54c -5.61c

Converged after 42 iterations.

Dipole moment: (14.729662, -3.312494, 0.278869) |e|*Ang

Energy contributions relative to reference atoms: (reference = -16475.706344)

Kinetic:       +164.801386
Potential:     -157.425570
External:        +0.000000
XC:            -334.515060
Entropy (-ST):   -0.172665
Local:           +1.125154
--------------------------
Free energy:   -326.186755
Extrapolated:  -326.100423

Dipole-layer corrected work functions: 3.402984, 2.866903 eV

Showing only first 2 kpts
 Kpt  Band  Eigenvalues  Occupancy
  0    34     -3.38022    1.98530
  0    35     -3.21991    1.69087
  0    36     -3.03999    0.26042
  0    37     -2.89923    0.01777

  1    34     -3.18940    1.49641
  1    35     -3.12958    0.94638
  1    36     -3.09706    0.63833
  1    37     -3.02147    0.18736


Fermi level: -3.13494

No gap
Writing to output.gpw (mode='')


Forces in eV/Ang:
  0 Li    0.01841    0.00092   -0.26728
  1 Li   -0.02264   -0.00026   -0.27622
  2 Li    0.00884   -0.00071   -0.28010
  3 Li   -0.00189   -0.00021   -0.27986
  4 Li   -0.00360    0.00911   -0.27646
  5 Li   -0.00496    0.02583   -0.27584
  6 Li   -0.00260   -0.00065   -0.27905
  7 Li   -0.00223   -0.00968   -0.27702
  8 Li   -0.00629   -0.02509   -0.27559
  9 Li    0.00406    0.00463    0.28448
 10 Li   -0.01805    0.00299    0.24392
 11 Li    0.00310    0.01223    0.32289
 12 Li    0.00492   -0.00290    0.28227
 13 Li   -0.01868   -0.00358    0.24217
 14 Li    0.00048   -0.01314    0.32296
 15 Li   -0.01153   -0.00256    0.24737
 16 Li    0.01661    0.00073    0.26314
 17 Li    0.01063    0.00115    0.22893
 18 Li    0.00076    0.00022    0.04274
 19 Li   -0.03072   -0.00050   -0.04269
 20 Li    0.02310    0.00195   -0.16509
 21 Li   -0.00723   -0.00159    0.04680
 22 Li    0.03131   -0.02406    0.05800
 23 Li   -0.00623   -0.00783    0.02446
 24 Li   -0.00950    0.00294    0.04546
 25 Li    0.03006    0.02513    0.05590
 26 Li   -0.00484    0.00622    0.03358
 27 Li    0.04435    0.02094    0.05001
 28 Li   -0.02170   -0.01616   -0.03845
 29 Li   -0.01403    0.01987    0.10632
 30 Li    0.08397    0.01937   -0.05757
 31 Li   -0.02157    0.01956   -0.03975
 32 Li   -0.00291   -0.02613    0.09599
 33 Li   -0.01495    0.00027   -0.00265
 34 Li    0.00397   -0.00445   -0.01275
 35 Li   -0.00045   -0.00324   -0.01494
 36 O     0.19231    0.17818    0.10642
 37 O    -0.00615   -0.03818   -0.07332
 38 C     0.08445    0.06089    0.35521
 39 C     0.06179    0.21134    0.18518
 40 H     0.19667   -0.08182    0.14096
 41 H     0.36275    0.22962    0.61798
 42 H     0.02755    0.01839    0.04121
 43 H     0.00579    0.13055    0.11558
 44 H     0.03766   -0.06818    0.24105
 45 H    -0.03249    0.01276    0.01222
 46 N    -1.61630   -0.70542   -1.85466
 47 N     0.55281    0.02376   -0.04964

System changes: positions 

Initializing position-dependent things.

Density initialized from wave functions
       .-----------------------.  
      /|                       |  
     / |                       |  
    /  |                       |  
   /   |                       |  
  /    |                       |  
 *     |                       |  
 |     |                       |  
 |     |                       |  
 |     |                       |  
 |     |                       |  
 |     |                  H    |  
 |   H |              H O C    |  
 | H   |       Li     OLiC     |  
 |     |                       |  
 |     |     Li      Li  H   Li|  
 |     |           N           |  
 | Li  |  LLi     LLi N   Li   |  
 |     |                       |  
 Li    |Li      Li      Li     |  
 |   Li|     Li      Li        |  
 |    Li  Li  Li  Li  Li  Li   |  
 | Li  |   Li      Li          |  
 |     |Li      Li      Li     |  
 Li    | Li      Li            |  
 |    Li      Li      Li       |  
 |     |                       |  
 |     |                       |  
 |     |                       |  
 |     |                       |  
 |     |                       |  
 |     |                       |  
 |     .-----------------------.  
 |    /                       /   
 |   /                       /    
 |  /                       /     
 | /                       /      
 |/                       /       
 *-----------------------*        

Positions:
   0 Li     1.617037    1.617037   10.000000    ( 0.0000,  0.0000,  0.0000)
   1 Li     4.851111    1.617037   10.000000    ( 0.0000,  0.0000,  0.0000)
   2 Li     8.085185    1.617037   10.000000    ( 0.0000,  0.0000,  0.0000)
   3 Li     1.617037    4.851111   10.000000    ( 0.0000,  0.0000,  0.0000)
   4 Li     4.851111    4.851111   10.000000    ( 0.0000,  0.0000,  0.0000)
   5 Li     8.085185    4.851111   10.000000    ( 0.0000,  0.0000,  0.0000)
   6 Li     1.617037    8.085185   10.000000    ( 0.0000,  0.0000,  0.0000)
   7 Li     4.851111    8.085185   10.000000    ( 0.0000,  0.0000,  0.0000)
   8 Li     8.085185    8.085185   10.000000    ( 0.0000,  0.0000,  0.0000)
   9 Li     0.000000    0.000000   11.617037    ( 0.0000,  0.0000,  0.0000)
  10 Li     3.234074    0.000000   11.617037    ( 0.0000,  0.0000,  0.0000)
  11 Li     6.468148    0.000000   11.617037    ( 0.0000,  0.0000,  0.0000)
  12 Li     0.000000    3.234074   11.617037    ( 0.0000,  0.0000,  0.0000)
  13 Li     3.234074    3.234074   11.617037    ( 0.0000,  0.0000,  0.0000)
  14 Li     6.468148    3.234074   11.617037    ( 0.0000,  0.0000,  0.0000)
  15 Li     0.000000    6.468148   11.617037    ( 0.0000,  0.0000,  0.0000)
  16 Li     3.234074    6.468148   11.617037    ( 0.0000,  0.0000,  0.0000)
  17 Li     6.468148    6.468148   11.617037    ( 0.0000,  0.0000,  0.0000)
  18 Li     1.616943    1.617045   13.471770    ( 0.0000,  0.0000,  0.0000)
  19 Li     4.849935    1.617035   13.468061    ( 0.0000,  0.0000,  0.0000)
  20 Li     8.086207    1.617149   13.462401    ( 0.0000,  0.0000,  0.0000)
  21 Li     1.616741    4.851086   13.471688    ( 0.0000,  0.0000,  0.0000)
  22 Li     4.852387    4.850043   13.472261    ( 0.0000,  0.0000,  0.0000)
  23 Li     8.084904    4.850720   13.470923    ( 0.0000,  0.0000,  0.0000)
  24 Li     1.616635    8.085246   13.471656    ( 0.0000,  0.0000,  0.0000)
  25 Li     4.852344    8.086266   13.472156    ( 0.0000,  0.0000,  0.0000)
  26 Li     8.084963    8.085500   13.471269    ( 0.0000,  0.0000,  0.0000)
  27 Li     0.002883    0.000038   15.447085    ( 0.0000,  0.0000,  0.0000)
  28 Li     3.233003   -0.000655   15.444312    ( 0.0000,  0.0000,  0.0000)
  29 Li     6.466354   -0.000269   15.448917    ( 0.0000,  0.0000,  0.0000)
  30 Li     0.004361    3.235536   15.442662    ( 0.0000,  0.0000,  0.0000)
  31 Li     3.233082    3.234892   15.444264    ( 0.0000,  0.0000,  0.0000)
  32 Li     6.467172    3.234211   15.448389    ( 0.0000,  0.0000,  0.0000)
  33 Li    -0.000721    6.468139   15.445848    ( 0.0000,  0.0000,  0.0000)
  34 Li     3.234298    6.467958   15.445406    ( 0.0000,  0.0000,  0.0000)
  35 Li     6.468204    6.468022   15.445376    ( 0.0000,  0.0000,  0.0000)
  36 O      8.092094    1.622697   19.455580    ( 0.0000,  0.0000,  0.0000)
  37 O      8.127266    4.516078   19.209169    ( 0.0000,  0.0000,  0.0000)
  38 C      9.268782    2.356469   19.059519    ( 0.0000,  0.0000,  0.0000)
  39 C      9.273159    3.757347   19.610317    ( 0.0000,  0.0000,  0.0000)
  40 H     10.175706    1.814404   19.329069    ( 0.0000,  0.0000,  0.0000)
  41 H      9.227805    2.389774   17.975172    ( 0.0000,  0.0000,  0.0000)
  42 H     10.145839    4.292169   19.227253    ( 0.0000,  0.0000,  0.0000)
  43 H      9.345882    3.709138   20.703843    ( 0.0000,  0.0000,  0.0000)
  44 H      8.161263    1.445795   20.398343    ( 0.0000,  0.0000,  0.0000)
  45 H      7.359714    3.935965   19.310572    ( 0.0000,  0.0000,  0.0000)
  46 N      8.085574    1.583955   16.860349    ( 0.0000,  0.0000,  0.0000)
  47 N      6.938830    1.617969   16.947628    ( 0.0000,  0.0000,  0.0000)

Unit cell:
           periodic     x           y           z      points  spacing
  1. axis:    yes    9.702222    0.000000    0.000000    60     0.1617
  2. axis:    yes    0.000000    9.702222    0.000000    60     0.1617
  3. axis:    no     0.000000    0.000000   26.351111   164     0.1607

  Lengths:   9.702222   9.702222  26.351111
  Angles:   90.000000  90.000000  90.000000

Effective grid spacing dv^(1/3) = 0.1614

     iter     time        total  log10-change:
                         energy  eigst   dens
iter:   1 12:51:17  -326.253041  -1.24
iter:   2 12:51:25  -326.229799  -1.45  -1.86
iter:   3 12:51:32  -326.210593  -2.37  -1.85
iter:   4 12:51:40  -326.207186c -2.49  -2.45
Writing to output.gpw (mode='')

iter:   5 12:51:47  -326.204851c -2.30  -2.57
iter:   6 12:51:55  -326.205846c -2.84  -2.42
iter:   7 12:52:02  -326.204649c -3.10  -2.84
iter:   8 12:52:09  -326.204543c -3.43  -3.00
iter:   9 12:52:17  -326.205064c -3.67  -3.13
Writing to output.gpw (mode='')

iter:  10 12:52:24  -326.205146c -3.94  -3.25
iter:  11 12:52:32  -326.204787c -4.15  -3.25
iter:  12 12:52:39  -326.204977c -4.56  -3.37
iter:  13 12:52:47  -326.204845c -4.61  -3.44
iter:  14 12:52:54  -326.204896c -4.75  -3.61
Writing to output.gpw (mode='')

iter:  15 12:53:01  -326.204858c -5.22  -3.80
iter:  16 12:53:09  -326.204890c -5.19  -3.84
iter:  17 12:53:16  -326.204907c -5.02  -3.95
iter:  18 12:53:24  -326.204893c -5.66  -4.23c
iter:  19 12:53:31  -326.204895c -5.88  -4.37c
Writing to output.gpw (mode='')

iter:  20 12:53:38  -326.204896c -5.86  -4.42c
iter:  21 12:53:46  -326.204901c -6.01  -4.46c
iter:  22 12:53:53  -326.204899c -6.24  -4.63c
iter:  23 12:54:01  -326.204900c -6.14  -4.65c
iter:  24 12:54:08  -326.204898c -6.59  -4.82c
Writing to output.gpw (mode='')

iter:  25 12:54:15  -326.204901c -6.29  -4.90c
iter:  26 12:54:23  -326.204900c -6.68  -4.83c
iter:  27 12:54:30  -326.204899c -6.62  -4.93c
iter:  28 12:54:41  -326.204900c -6.88  -5.13c
iter:  29 12:54:51  -326.204901c -6.94  -5.15c
Writing to output.gpw (mode='')

iter:  30 12:54:58  -326.204899c -7.14  -5.34c
iter:  31 12:55:05  -326.204900c -7.24  -5.53c
iter:  32 12:55:13  -326.204900c -7.23  -5.58c
iter:  33 12:55:20  -326.204900c -7.25  -5.66c
iter:  34 12:55:27  -326.204900c -7.55c -5.88c

Converged after 34 iterations.

Dipole moment: (14.822531, -3.322358, 0.286502) |e|*Ang

Energy contributions relative to reference atoms: (reference = -16475.706344)

Kinetic:       +165.031448
Potential:     -157.682288
External:        +0.000000
XC:            -334.594150
Entropy (-ST):   -0.171276
Local:           +1.125727
--------------------------
Free energy:   -326.290538
Extrapolated:  -326.204900

Dipole-layer corrected work functions: 3.403034, 2.852279 eV

Showing only first 2 kpts
 Kpt  Band  Eigenvalues  Occupancy
  0    34     -3.37298    1.98531
  0    35     -3.21104    1.68254
  0    36     -3.03149    0.25498
  0    37     -2.88660    0.01599

  1    34     -3.17993    1.47980
  1    35     -3.12506    0.97408
  1    36     -3.08940    0.63506
  1    37     -3.01125    0.17765


Fermi level: -3.12766

No gap
Writing to output.gpw (mode='')


Forces in eV/Ang:
  0 Li    0.01886    0.00074   -0.26676
  1 Li   -0.02242   -0.00063   -0.27645
  2 Li    0.00824   -0.00081   -0.27947
  3 Li   -0.00210    0.00011   -0.28021
  4 Li   -0.00367    0.00885   -0.27688
  5 Li   -0.00499    0.02579   -0.27572
  6 Li   -0.00271   -0.00116   -0.27922
  7 Li   -0.00245   -0.00969   -0.27727
  8 Li   -0.00628   -0.02475   -0.27540
  9 Li    0.00479    0.00438    0.28494
 10 Li   -0.01866    0.00238    0.24312
 11 Li    0.00252    0.01148    0.32268
 12 Li    0.00564   -0.00267    0.28245
 13 Li   -0.01881   -0.00255    0.24200
 14 Li   -0.00037   -0.01258    0.32275
 15 Li   -0.01190   -0.00316    0.24769
 16 Li    0.01677    0.00109    0.26490
 17 Li    0.01171    0.00107    0.22943
 18 Li    0.00270    0.00015    0.03821
 19 Li   -0.03161   -0.00091   -0.04118
 20 Li    0.02219    0.00099   -0.15829
 21 Li   -0.00736   -0.00185    0.04573
 22 Li    0.03159   -0.02289    0.05627
 23 Li   -0.00619   -0.00951    0.02470
 24 Li   -0.00928    0.00397    0.04419
 25 Li    0.03015    0.02480    0.05411
 26 Li   -0.00464    0.00800    0.03489
 27 Li    0.03071    0.02901    0.05212
 28 Li   -0.01812   -0.01398   -0.03751
 29 Li   -0.00377    0.01468    0.09848
 30 Li    0.07875    0.01868   -0.05799
 31 Li   -0.01996    0.01688   -0.03872
 32 Li   -0.00531   -0.02345    0.08989
 33 Li   -0.01466    0.00123   -0.00206
 34 Li    0.00336   -0.00444   -0.01187
 35 Li   -0.00049   -0.00346   -0.01494
 36 O     0.16846    0.15065    0.16147
 37 O     0.02190   -0.04686   -0.05597
 38 C     0.06846   -0.02559    0.26704
 39 C     0.03277    0.20929    0.16020
 40 H     0.19652   -0.05407    0.18230
 41 H     0.28073    0.18393    0.39073
 42 H     0.04068    0.04359    0.04715
 43 H     0.00589    0.16246    0.16828
 44 H     0.02960   -0.05937    0.18643
 45 H    -0.01716    0.01075    0.01205
 46 N    -1.09907   -0.63016   -1.58850
 47 N     0.21044    0.03524   -0.04186

System changes: positions 

Initializing position-dependent things.

Density initialized from wave functions
       .-----------------------.  
      /|                       |  
     / |                       |  
    /  |                       |  
   /   |                       |  
  /    |                       |  
 *     |                       |  
 |     |                       |  
 |     |                       |  
 |     |                       |  
 |     |                       |  
 |     |                  H    |  
 |   H |              H O C    |  
 | H   |       Li     OLiC     |  
 |     |                       |  
 |     |     Li      Li  H   Li|  
 |     |           N           |  
 | Li  |  LLi     LLi N   Li   |  
 |     |                       |  
 Li    |Li      Li      Li     |  
 |   Li|     Li      Li        |  
 |    Li  Li  Li  Li  Li  Li   |  
 | Li  |   Li      Li          |  
 |     |Li      Li      Li     |  
 Li    | Li      Li            |  
 |    Li      Li      Li       |  
 |     |                       |  
 |     |                       |  
 |     |                       |  
 |     |                       |  
 |     |                       |  
 |     |                       |  
 |     .-----------------------.  
 |    /                       /   
 |   /                       /    
 |  /                       /     
 | /                       /      
 |/                       /       
 *-----------------------*        

Positions:
   0 Li     1.617037    1.617037   10.000000    ( 0.0000,  0.0000,  0.0000)
   1 Li     4.851111    1.617037   10.000000    ( 0.0000,  0.0000,  0.0000)
   2 Li     8.085185    1.617037   10.000000    ( 0.0000,  0.0000,  0.0000)
   3 Li     1.617037    4.851111   10.000000    ( 0.0000,  0.0000,  0.0000)
   4 Li     4.851111    4.851111   10.000000    ( 0.0000,  0.0000,  0.0000)
   5 Li     8.085185    4.851111   10.000000    ( 0.0000,  0.0000,  0.0000)
   6 Li     1.617037    8.085185   10.000000    ( 0.0000,  0.0000,  0.0000)
   7 Li     4.851111    8.085185   10.000000    ( 0.0000,  0.0000,  0.0000)
   8 Li     8.085185    8.085185   10.000000    ( 0.0000,  0.0000,  0.0000)
   9 Li     0.000000    0.000000   11.617037    ( 0.0000,  0.0000,  0.0000)
  10 Li     3.234074    0.000000   11.617037    ( 0.0000,  0.0000,  0.0000)
  11 Li     6.468148    0.000000   11.617037    ( 0.0000,  0.0000,  0.0000)
  12 Li     0.000000    3.234074   11.617037    ( 0.0000,  0.0000,  0.0000)
  13 Li     3.234074    3.234074   11.617037    ( 0.0000,  0.0000,  0.0000)
  14 Li     6.468148    3.234074   11.617037    ( 0.0000,  0.0000,  0.0000)
  15 Li     0.000000    6.468148   11.617037    ( 0.0000,  0.0000,  0.0000)
  16 Li     3.234074    6.468148   11.617037    ( 0.0000,  0.0000,  0.0000)
  17 Li     6.468148    6.468148   11.617037    ( 0.0000,  0.0000,  0.0000)
  18 Li     1.616964    1.617048   13.472628    ( 0.0000,  0.0000,  0.0000)
  19 Li     4.849312    1.617022   13.467231    ( 0.0000,  0.0000,  0.0000)
  20 Li     8.086678    1.617179   13.459034    ( 0.0000,  0.0000,  0.0000)
  21 Li     1.616591    4.851057   13.472632    ( 0.0000,  0.0000,  0.0000)
  22 Li     4.853027    4.849555   13.473445    ( 0.0000,  0.0000,  0.0000)
  23 Li     8.084773    4.850521   13.471463    ( 0.0000,  0.0000,  0.0000)
  24 Li     1.616443    8.085311   13.472575    ( 0.0000,  0.0000,  0.0000)
  25 Li     4.852958    8.086783   13.473293    ( 0.0000,  0.0000,  0.0000)
  26 Li     8.084863    8.085667   13.472005    ( 0.0000,  0.0000,  0.0000)
  27 Li     0.003785    0.000428   15.447959    ( 0.0000,  0.0000,  0.0000)
  28 Li     3.232581   -0.000949   15.443534    ( 0.0000,  0.0000,  0.0000)
  29 Li     6.465987   -0.000157   15.450691    ( 0.0000,  0.0000,  0.0000)
  30 Li     0.006171    3.236051   15.441303    ( 0.0000,  0.0000,  0.0000)
  31 Li     3.232645    3.235252   15.443462    ( 0.0000,  0.0000,  0.0000)
  32 Li     6.466909    3.233957   15.449959    ( 0.0000,  0.0000,  0.0000)
  33 Li    -0.001043    6.468155   15.445806    ( 0.0000,  0.0000,  0.0000)
  34 Li     3.234381    6.467866   15.445158    ( 0.0000,  0.0000,  0.0000)
  35 Li     6.468209    6.467955   15.445082    ( 0.0000,  0.0000,  0.0000)
  36 O      8.095444    1.625567   19.459664    ( 0.0000,  0.0000,  0.0000)
  37 O      8.127244    4.515652   19.207731    ( 0.0000,  0.0000,  0.0000)
  38 C      9.272043    2.358045   19.067678    ( 0.0000,  0.0000,  0.0000)
  39 C      9.274073    3.760389   19.613700    ( 0.0000,  0.0000,  0.0000)
  40 H     10.179076    1.813228   19.331959    ( 0.0000,  0.0000,  0.0000)
  41 H      9.234678    2.394141   17.985381    ( 0.0000,  0.0000,  0.0000)
  42 H     10.146676    4.292919   19.228051    ( 0.0000,  0.0000,  0.0000)
  43 H      9.346013    3.712038   20.706481    ( 0.0000,  0.0000,  0.0000)
  44 H      8.161909    1.444741   20.401437    ( 0.0000,  0.0000,  0.0000)
  45 H      7.359088    3.936126   19.310894    ( 0.0000,  0.0000,  0.0000)
  46 N      8.073756    1.569939   16.824798    ( 0.0000,  0.0000,  0.0000)
  47 N      6.930635    1.618630   16.947472    ( 0.0000,  0.0000,  0.0000)

Unit cell:
           periodic     x           y           z      points  spacing
  1. axis:    yes    9.702222    0.000000    0.000000    60     0.1617
  2. axis:    yes    0.000000    9.702222    0.000000    60     0.1617
  3. axis:    no     0.000000    0.000000   26.351111   164     0.1607

  Lengths:   9.702222   9.702222  26.351111
  Angles:   90.000000  90.000000  90.000000

Effective grid spacing dv^(1/3) = 0.1614

     iter     time        total  log10-change:
                         energy  eigst   dens
iter:   1 12:55:37  -326.303428  -1.26
iter:   2 12:55:44  -326.299163  -1.79  -2.08
iter:   3 12:55:51  -326.293260c -2.40  -2.09
iter:   4 12:55:59  -326.293154c -2.53  -2.58
Writing to output.gpw (mode='')

iter:   5 12:56:06  -326.292328c -2.39  -2.69
iter:   6 12:56:13  -326.292221c -3.20  -2.81
iter:   7 12:56:21  -326.292057c -3.07  -3.00
iter:   8 12:56:28  -326.292199c -3.16  -2.98
iter:   9 12:56:35  -326.292094c -3.82  -3.19
Writing to output.gpw (mode='')

iter:  10 12:56:43  -326.292063c -3.84  -3.22
iter:  11 12:56:50  -326.292026c -4.47  -3.38
iter:  12 12:56:57  -326.292139c -4.37  -3.40
iter:  13 12:57:06  -326.292067c -4.56  -3.58
iter:  14 12:57:14  -326.291994c -4.38  -3.75
Writing to output.gpw (mode='')

iter:  15 12:57:21  -326.292027c -4.45  -3.62
iter:  16 12:57:29  -326.292037c -5.28  -3.89
iter:  17 12:57:36  -326.292053c -5.26  -3.94
iter:  18 12:57:43  -326.292067c -5.50  -4.09c
iter:  19 12:57:51  -326.292062c -5.51  -4.21c
Writing to output.gpw (mode='')

iter:  20 12:57:58  -326.292065c -5.53  -4.37c
iter:  21 12:58:05  -326.292054c -5.88  -4.36c
iter:  22 12:58:13  -326.292063c -6.19  -4.47c
iter:  23 12:58:20  -326.292065c -6.08  -4.73c
iter:  24 12:58:27  -326.292067c -6.29  -4.81c
Writing to output.gpw (mode='')

iter:  25 12:58:35  -326.292065c -6.42  -4.87c
iter:  26 12:58:42  -326.292064c -6.64  -4.98c
iter:  27 12:58:49  -326.292064c -6.80  -5.11c
iter:  28 12:58:57  -326.292065c -6.67  -5.15c
iter:  29 12:59:04  -326.292063c -6.87  -5.24c
Writing to output.gpw (mode='')

iter:  30 12:59:12  -326.292065c -6.80  -5.28c
iter:  31 12:59:19  -326.292064c -7.25  -5.43c
iter:  32 12:59:26  -326.292064c -7.16  -5.48c
iter:  33 12:59:34  -326.292064c -7.32  -5.54c
iter:  34 12:59:46  -326.292064c -7.56c -5.58c

Converged after 34 iterations.

Dipole moment: (14.914254, -3.319479, 0.288753) |e|*Ang

Energy contributions relative to reference atoms: (reference = -16475.706344)

Kinetic:       +164.781037
Potential:     -157.525215
External:        +0.000000
XC:            -334.588573
Entropy (-ST):   -0.170325
Local:           +1.125851
--------------------------
Free energy:   -326.377226
Extrapolated:  -326.292064

Dipole-layer corrected work functions: 3.403247, 2.848164 eV

Showing only first 2 kpts
 Kpt  Band  Eigenvalues  Occupancy
  0    34     -3.37100    1.98530
  0    35     -3.20688    1.67055
  0    36     -3.02944    0.25453
  0    37     -2.88122    0.01494

  1    34     -3.17664    1.46943
  1    35     -3.12544    0.99729
  1    36     -3.08673    0.62884
  1    37     -3.00566    0.16621


Fermi level: -3.12571

No gap
Writing to output.gpw (mode='')


Forces in eV/Ang:
  0 Li    0.01926    0.00053   -0.26626
  1 Li   -0.02216   -0.00106   -0.27665
  2 Li    0.00754   -0.00087   -0.27891
  3 Li   -0.00219    0.00053   -0.28063
  4 Li   -0.00365    0.00869   -0.27740
  5 Li   -0.00493    0.02577   -0.27576
  6 Li   -0.00262   -0.00183   -0.27939
  7 Li   -0.00267   -0.00986   -0.27768
  8 Li   -0.00623   -0.02449   -0.27522
  9 Li    0.00554    0.00410    0.28583
 10 Li   -0.01900    0.00176    0.24237
 11 Li    0.00199    0.01060    0.32259
 12 Li    0.00638   -0.00243    0.28310
 13 Li   -0.01881   -0.00151    0.24196
 14 Li   -0.00119   -0.01185    0.32261
 15 Li   -0.01226   -0.00383    0.24794
 16 Li    0.01672    0.00154    0.26670
 17 Li    0.01261    0.00094    0.22995
 18 Li    0.00506    0.00001    0.03319
 19 Li   -0.03261   -0.00122   -0.04047
 20 Li    0.02092   -0.00015   -0.15018
 21 Li   -0.00759   -0.00208    0.04432
 22 Li    0.03166   -0.02168    0.05426
 23 Li   -0.00621   -0.01052    0.02394
 24 Li   -0.00942    0.00526    0.04295
 25 Li    0.03008    0.02444    0.05189
 26 Li   -0.00439    0.00925    0.03534
 27 Li    0.01180    0.04104    0.05864
 28 Li   -0.01483   -0.01203   -0.03615
 29 Li    0.00945    0.01642    0.09881
 30 Li    0.07042    0.01587   -0.05461
 31 Li   -0.01847    0.01429   -0.03732
 32 Li   -0.00415   -0.02649    0.09153
 33 Li   -0.01394    0.00222   -0.00160
 34 Li    0.00280   -0.00439   -0.01108
 35 Li   -0.00075   -0.00367   -0.01504
 36 O     0.15041    0.14388    0.14060
 37 O     0.03128   -0.05045   -0.04276
 38 C     0.03612   -0.06784    0.15922
 39 C     0.03189    0.18106    0.15118
 40 H     0.19640   -0.03140    0.21762
 41 H     0.20613    0.13726    0.23268
 42 H     0.04283    0.06113    0.05675
 43 H     0.00388    0.19118    0.19216
 44 H     0.03180   -0.06255    0.20573
 45 H     0.00220    0.01101    0.01099
 46 N    -0.91363   -0.55215   -1.41097
 47 N     0.13332    0.04226   -0.06454

System changes: positions 

Initializing position-dependent things.

Density initialized from wave functions
       .-----------------------.  
      /|                       |  
     / |                       |  
    /  |                       |  
   /   |                       |  
  /    |                       |  
 *     |                       |  
 |     |                       |  
 |     |                       |  
 |     |                       |  
 |     |                       |  
 |     |                  H    |  
 |   H |              H O C    |  
 | H   |       Li     O  C     |  
 |     |                       |  
 |     |     Li      Li  H   Li|  
 |     |           N           |  
 | Li  |  LLi     LLi N   Li   |  
 |     |                       |  
 Li    |Li      LLi     Li     |  
 |   Li|     Li      Li        |  
 |    Li  Li  Li  Li  Li  Li   |  
 | Li  |   Li      Li          |  
 |     |Li      Li      Li     |  
 Li    | Li      Li            |  
 |    Li      Li      Li       |  
 |     |                       |  
 |     |                       |  
 |     |                       |  
 |     |                       |  
 |     |                       |  
 |     |                       |  
 |     .-----------------------.  
 |    /                       /   
 |   /                       /    
 |  /                       /     
 | /                       /      
 |/                       /       
 *-----------------------*        

Positions:
   0 Li     1.617037    1.617037   10.000000    ( 0.0000,  0.0000,  0.0000)
   1 Li     4.851111    1.617037   10.000000    ( 0.0000,  0.0000,  0.0000)
   2 Li     8.085185    1.617037   10.000000    ( 0.0000,  0.0000,  0.0000)
   3 Li     1.617037    4.851111   10.000000    ( 0.0000,  0.0000,  0.0000)
   4 Li     4.851111    4.851111   10.000000    ( 0.0000,  0.0000,  0.0000)
   5 Li     8.085185    4.851111   10.000000    ( 0.0000,  0.0000,  0.0000)
   6 Li     1.617037    8.085185   10.000000    ( 0.0000,  0.0000,  0.0000)
   7 Li     4.851111    8.085185   10.000000    ( 0.0000,  0.0000,  0.0000)
   8 Li     8.085185    8.085185   10.000000    ( 0.0000,  0.0000,  0.0000)
   9 Li     0.000000    0.000000   11.617037    ( 0.0000,  0.0000,  0.0000)
  10 Li     3.234074    0.000000   11.617037    ( 0.0000,  0.0000,  0.0000)
  11 Li     6.468148    0.000000   11.617037    ( 0.0000,  0.0000,  0.0000)
  12 Li     0.000000    3.234074   11.617037    ( 0.0000,  0.0000,  0.0000)
  13 Li     3.234074    3.234074   11.617037    ( 0.0000,  0.0000,  0.0000)
  14 Li     6.468148    3.234074   11.617037    ( 0.0000,  0.0000,  0.0000)
  15 Li     0.000000    6.468148   11.617037    ( 0.0000,  0.0000,  0.0000)
  16 Li     3.234074    6.468148   11.617037    ( 0.0000,  0.0000,  0.0000)
  17 Li     6.468148    6.468148   11.617037    ( 0.0000,  0.0000,  0.0000)
  18 Li     1.617026    1.617049   13.473473    ( 0.0000,  0.0000,  0.0000)
  19 Li     4.848619    1.617003   13.466339    ( 0.0000,  0.0000,  0.0000)
  20 Li     8.087168    1.617195   13.455521    ( 0.0000,  0.0000,  0.0000)
  21 Li     1.616426    4.851022   13.473633    ( 0.0000,  0.0000,  0.0000)
  22 Li     4.853723    4.849047   13.474694    ( 0.0000,  0.0000,  0.0000)
  23 Li     8.084631    4.850292   13.472031    ( 0.0000,  0.0000,  0.0000)
  24 Li     1.616232    8.085402   13.473551    ( 0.0000,  0.0000,  0.0000)
  25 Li     4.853622    8.087336   13.474489    ( 0.0000,  0.0000,  0.0000)
  26 Li     8.084759    8.085864   13.472807    ( 0.0000,  0.0000,  0.0000)
  27 Li     0.004444    0.001057   15.449030    ( 0.0000,  0.0000,  0.0000)
  28 Li     3.232178   -0.001238   15.442712    ( 0.0000,  0.0000,  0.0000)
  29 Li     6.465823    0.000021   15.452655    ( 0.0000,  0.0000,  0.0000)
  30 Li     0.007982    3.236549   15.439905    ( 0.0000,  0.0000,  0.0000)
  31 Li     3.232198    3.235602   15.442614    ( 0.0000,  0.0000,  0.0000)
  32 Li     6.466662    3.233603   15.451725    ( 0.0000,  0.0000,  0.0000)
  33 Li    -0.001377    6.468188   15.445768    ( 0.0000,  0.0000,  0.0000)
  34 Li     3.234461    6.467768   15.444902    ( 0.0000,  0.0000,  0.0000)
  35 Li     6.468209    6.467878   15.444760    ( 0.0000,  0.0000,  0.0000)
  36 O      8.098809    1.628596   19.463703    ( 0.0000,  0.0000,  0.0000)
  37 O      8.127391    4.515105   19.206393    ( 0.0000,  0.0000,  0.0000)
  38 C      9.274949    2.358972   19.074704    ( 0.0000,  0.0000,  0.0000)
  39 C      9.275039    3.763322   19.617223    ( 0.0000,  0.0000,  0.0000)
  40 H     10.182771    1.812306   19.335690    ( 0.0000,  0.0000,  0.0000)
  41 H      9.240896    2.398113   17.993865    ( 0.0000,  0.0000,  0.0000)
  42 H     10.147616    4.294011   19.229074    ( 0.0000,  0.0000,  0.0000)
  43 H      9.346123    3.715652   20.709754    ( 0.0000,  0.0000,  0.0000)
  44 H      8.162645    1.443537   20.405154    ( 0.0000,  0.0000,  0.0000)
  45 H      7.358727    3.936306   19.311221    ( 0.0000,  0.0000,  0.0000)
  46 N      8.062124    1.556028   16.789144    ( 0.0000,  0.0000,  0.0000)
  47 N      6.922341    1.619456   16.946868    ( 0.0000,  0.0000,  0.0000)

Unit cell:
           periodic     x           y           z      points  spacing
  1. axis:    yes    9.702222    0.000000    0.000000    60     0.1617
  2. axis:    yes    0.000000    9.702222    0.000000    60     0.1617
  3. axis:    no     0.000000    0.000000   26.351111   164     0.1607

  Lengths:   9.702222   9.702222  26.351111
  Angles:   90.000000  90.000000  90.000000

Effective grid spacing dv^(1/3) = 0.1614

     iter     time        total  log10-change:
                         energy  eigst   dens
iter:   1 12:59:55  -326.370262  -1.30
iter:   2 13:00:02  -326.368923  -1.95  -2.26
iter:   3 13:00:10  -326.368791c -2.40  -2.36
iter:   4 13:00:17  -326.368834c -2.53  -2.50
Writing to output.gpw (mode='')

iter:   5 13:00:25  -326.369010c -2.49  -2.73
iter:   6 13:00:32  -326.367529c -2.96  -2.75
iter:   7 13:00:39  -326.367621c -3.08  -2.99
iter:   8 13:00:47  -326.367820c -3.64  -3.06
iter:   9 13:00:54  -326.367718c -3.87  -3.21
Writing to output.gpw (mode='')

iter:  10 13:01:02  -326.368053c -3.99  -3.26
iter:  11 13:01:09  -326.367889c -3.97  -3.30
iter:  12 13:01:17  -326.367747c -4.13  -3.34
iter:  13 13:01:24  -326.367792c -4.64  -3.57
iter:  14 13:01:32  -326.367809c -4.87  -3.76
Writing to output.gpw (mode='')

iter:  15 13:01:39  -326.367792c -5.03  -3.77
iter:  16 13:01:46  -326.367834c -4.84  -3.83
iter:  17 13:01:54  -326.367807c -5.15  -4.02c
iter:  18 13:02:01  -326.367812c -5.59  -4.21c
iter:  19 13:02:09  -326.367804c -5.72  -4.26c
Writing to output.gpw (mode='')

iter:  20 13:02:16  -326.367818c -5.72  -4.31c
iter:  21 13:02:23  -326.367818c -5.85  -4.44c
iter:  22 13:02:31  -326.367818c -6.00  -4.56c
iter:  23 13:02:38  -326.367817c -6.17  -4.57c
iter:  24 13:02:45  -326.367817c -6.24  -4.63c
Writing to output.gpw (mode='')

iter:  25 13:02:53  -326.367814c -6.31  -4.67c
iter:  26 13:03:00  -326.367816c -6.56  -4.69c
iter:  27 13:03:07  -326.367814c -6.56  -4.75c
iter:  28 13:03:15  -326.367813c -7.09  -4.99c
iter:  29 13:03:22  -326.367813c -6.84  -5.06c
Writing to output.gpw (mode='')

iter:  30 13:03:30  -326.367814c -7.01  -5.22c
iter:  31 13:03:37  -326.367814c -7.17  -5.42c
iter:  32 13:03:44  -326.367814c -7.23  -5.41c
iter:  33 13:03:52  -326.367814c -7.30  -5.38c
iter:  34 13:03:59  -326.367814c -7.34  -5.57c
Writing to output.gpw (mode='')

iter:  35 13:04:07  -326.367814c -7.22  -5.68c
iter:  36 13:04:14  -326.367814c -7.68c -5.67c

Converged after 36 iterations.

Dipole moment: (15.006225, -3.314484, 0.288810) |e|*Ang

Energy contributions relative to reference atoms: (reference = -16475.706344)

Kinetic:       +164.288464
Potential:     -157.162471
External:        +0.000000
XC:            -334.535562
Entropy (-ST):   -0.169497
Local:           +1.126504
--------------------------
Free energy:   -326.452562
Extrapolated:  -326.367814

Dipole-layer corrected work functions: 3.403467, 2.848275 eV

Showing only first 2 kpts
 Kpt  Band  Eigenvalues  Occupancy
  0    34     -3.37115    1.98530
  0    35     -3.20469    1.65737
  0    36     -3.02975    0.25518
  0    37     -2.87907    0.01426

  1    34     -3.17628    1.46536
  1    35     -3.12753    1.01661
  1    36     -3.08604    0.62152
  1    37     -3.00179    0.15432


Fermi level: -3.12587

No gap
Writing to output.gpw (mode='')


Forces in eV/Ang:
  0 Li    0.01959    0.00030   -0.26580
  1 Li   -0.02189   -0.00151   -0.27680
  2 Li    0.00680   -0.00090   -0.27841
  3 Li   -0.00217    0.00099   -0.28106
  4 Li   -0.00351    0.00859   -0.27797
  5 Li   -0.00480    0.02578   -0.27590
  6 Li   -0.00240   -0.00257   -0.27953
  7 Li   -0.00284   -0.01014   -0.27821
  8 Li   -0.00616   -0.02429   -0.27503
  9 Li    0.00635    0.00378    0.28697
 10 Li   -0.01909    0.00111    0.24167
 11 Li    0.00155    0.00966    0.32253
 12 Li    0.00719   -0.00219    0.28404
 13 Li   -0.01871   -0.00049    0.24200
 14 Li   -0.00199   -0.01100    0.32242
 15 Li   -0.01268   -0.00454    0.24814
 16 Li    0.01645    0.00208    0.26854
 17 Li    0.01336    0.00077    0.23050
 18 Li    0.00755   -0.00022    0.02816
 19 Li   -0.03349   -0.00143   -0.04013
 20 Li    0.01947   -0.00137   -0.14146
 21 Li   -0.00789   -0.00218    0.04261
 22 Li    0.03149   -0.02056    0.05218
 23 Li   -0.00632   -0.01121    0.02277
 24 Li   -0.00987    0.00669    0.04180
 25 Li    0.02984    0.02412    0.04946
 26 Li   -0.00417    0.01024    0.03538
 27 Li   -0.00995    0.05488    0.06663
 28 Li   -0.01203   -0.01018   -0.03446
 29 Li    0.02285    0.02112    0.10228
 30 Li    0.06102    0.01254   -0.04988
 31 Li   -0.01720    0.01173   -0.03563
 32 Li   -0.00168   -0.03150    0.09594
 33 Li   -0.01302    0.00323   -0.00123
 34 Li    0.00239   -0.00432   -0.01031
 35 Li   -0.00103   -0.00385   -0.01510
 36 O     0.12596    0.12023    0.15536
 37 O     0.04364   -0.04670   -0.02966
 38 C     0.03324   -0.08273    0.09964
 39 C     0.03533    0.15083    0.13801
 40 H     0.18121   -0.00522    0.23817
 41 H     0.14582    0.09580    0.10605
 42 H     0.04024    0.07328    0.06795
 43 H     0.00169    0.20984    0.19860
 44 H     0.03530   -0.05637    0.18704
 45 H     0.01530    0.00643    0.01085
 46 N    -0.86479   -0.44452   -1.22340
 47 N     0.11713    0.04080   -0.09720

System changes: positions 

Initializing position-dependent things.

Density initialized from wave functions
       .-----------------------.  
      /|                       |  
     / |                       |  
    /  |                       |  
   /   |                       |  
  /    |                       |  
 *     |                       |  
 |     |                       |  
 |     |                       |  
 |     |                       |  
 |     |                       |  
 |     |                  H    |  
 |   H |              H O C    |  
 | H   |       Li     O  C     |  
 |     |                       |  
 |     |     Li      Li  H   Li|  
 |     |           N           |  
 | Li  |  LLi     LLi N   Li   |  
 |     |                       |  
 Li    |Li      LLi     Li     |  
 |   Li|     Li      Li        |  
 |    Li  Li  Li  Li  Li  Li   |  
 | Li  |   Li      Li          |  
 |     |Li      Li      Li     |  
 Li    | Li      Li            |  
 |    Li      Li      Li       |  
 |     |                       |  
 |     |                       |  
 |     |                       |  
 |     |                       |  
 |     |                       |  
 |     |                       |  
 |     .-----------------------.  
 |    /                       /   
 |   /                       /    
 |  /                       /     
 | /                       /      
 |/                       /       
 *-----------------------*        

Positions:
   0 Li     1.617037    1.617037   10.000000    ( 0.0000,  0.0000,  0.0000)
   1 Li     4.851111    1.617037   10.000000    ( 0.0000,  0.0000,  0.0000)
   2 Li     8.085185    1.617037   10.000000    ( 0.0000,  0.0000,  0.0000)
   3 Li     1.617037    4.851111   10.000000    ( 0.0000,  0.0000,  0.0000)
   4 Li     4.851111    4.851111   10.000000    ( 0.0000,  0.0000,  0.0000)
   5 Li     8.085185    4.851111   10.000000    ( 0.0000,  0.0000,  0.0000)
   6 Li     1.617037    8.085185   10.000000    ( 0.0000,  0.0000,  0.0000)
   7 Li     4.851111    8.085185   10.000000    ( 0.0000,  0.0000,  0.0000)
   8 Li     8.085185    8.085185   10.000000    ( 0.0000,  0.0000,  0.0000)
   9 Li     0.000000    0.000000   11.617037    ( 0.0000,  0.0000,  0.0000)
  10 Li     3.234074    0.000000   11.617037    ( 0.0000,  0.0000,  0.0000)
  11 Li     6.468148    0.000000   11.617037    ( 0.0000,  0.0000,  0.0000)
  12 Li     0.000000    3.234074   11.617037    ( 0.0000,  0.0000,  0.0000)
  13 Li     3.234074    3.234074   11.617037    ( 0.0000,  0.0000,  0.0000)
  14 Li     6.468148    3.234074   11.617037    ( 0.0000,  0.0000,  0.0000)
  15 Li     0.000000    6.468148   11.617037    ( 0.0000,  0.0000,  0.0000)
  16 Li     3.234074    6.468148   11.617037    ( 0.0000,  0.0000,  0.0000)
  17 Li     6.468148    6.468148   11.617037    ( 0.0000,  0.0000,  0.0000)
  18 Li     1.617136    1.617047   13.474309    ( 0.0000,  0.0000,  0.0000)
  19 Li     4.847847    1.616978   13.465371    ( 0.0000,  0.0000,  0.0000)
  20 Li     8.087677    1.617190   13.451837    ( 0.0000,  0.0000,  0.0000)
  21 Li     1.616240    4.850981   13.474698    ( 0.0000,  0.0000,  0.0000)
  22 Li     4.854480    4.848511   13.476023    ( 0.0000,  0.0000,  0.0000)
  23 Li     8.084474    4.850030   13.472630    ( 0.0000,  0.0000,  0.0000)
  24 Li     1.615994    8.085526   13.474596    ( 0.0000,  0.0000,  0.0000)
  25 Li     4.854344    8.087935   13.475752    ( 0.0000,  0.0000,  0.0000)
  26 Li     8.084649    8.086097   13.473681    ( 0.0000,  0.0000,  0.0000)
  27 Li     0.004791    0.001983   15.450341    ( 0.0000,  0.0000,  0.0000)
  28 Li     3.231788   -0.001522   15.441843    ( 0.0000,  0.0000,  0.0000)
  29 Li     6.465882    0.000300   15.454869    ( 0.0000,  0.0000,  0.0000)
  30 Li     0.009793    3.237031   15.438466    ( 0.0000,  0.0000,  0.0000)
  31 Li     3.231732    3.235941   15.441718    ( 0.0000,  0.0000,  0.0000)
  32 Li     6.466442    3.233123   15.453739    ( 0.0000,  0.0000,  0.0000)
  33 Li    -0.001726    6.468242   15.445732    ( 0.0000,  0.0000,  0.0000)
  34 Li     3.234541    6.467662   15.444635    ( 0.0000,  0.0000,  0.0000)
  35 Li     6.468203    6.467791   15.444406    ( 0.0000,  0.0000,  0.0000)
  36 O      8.102100    1.631549   19.468254    ( 0.0000,  0.0000,  0.0000)
  37 O      8.127796    4.514509   19.205173    ( 0.0000,  0.0000,  0.0000)
  38 C      9.277879    2.359529   19.081112    ( 0.0000,  0.0000,  0.0000)
  39 C      9.276127    3.766170   19.620852    ( 0.0000,  0.0000,  0.0000)
  40 H     10.186632    1.811725   19.340182    ( 0.0000,  0.0000,  0.0000)
  41 H      9.246605    2.401722   18.000882    ( 0.0000,  0.0000,  0.0000)
[...]
iter:  21 19:29:23  -328.197615c -6.83  -4.75c
iter:  22 19:29:30  -328.197615c -6.97  -4.83c
iter:  23 19:29:43  -328.197615c -7.06  -4.93c
iter:  24 19:29:51  -328.197615c -7.21  -5.07c
Writing to output.gpw (mode='')

iter:  25 19:29:58  -328.197615c -7.65c -5.10c

Converged after 25 iterations.

Dipole moment: (21.346405, -2.905956, 0.366928) |e|*Ang

Energy contributions relative to reference atoms: (reference = -16475.706344)

Kinetic:       +158.321905
Potential:     -150.912225
External:        +0.000000
XC:            -336.674857
Entropy (-ST):   -0.161760
Local:           +1.148443
--------------------------
Free energy:   -328.278495
Extrapolated:  -328.197615

Dipole-layer corrected work functions: 3.396417, 2.691056 eV

Showing only first 2 kpts
 Kpt  Band  Eigenvalues  Occupancy
  0    34     -3.23236    1.95504
  0    35     -3.05921    1.15349
  0    36     -3.03257    0.88878
  0    37     -2.94092    0.22684

  1    34     -3.35483    1.99604
  1    35     -2.99811    0.57293
  1    36     -2.93940    0.22081
  1    37     -2.92243    0.16241


Fermi level: -3.04374

No gap

Forces in eV/Ang:
  0 Li   -0.00198   -0.00982   -0.29348
  1 Li    0.01164    0.00953   -0.29731
  2 Li    0.00173    0.00033   -0.25545
  3 Li    0.01962    0.01467   -0.28116
  4 Li   -0.00438    0.00854   -0.29181
  5 Li   -0.00799   -0.00550   -0.29297
  6 Li    0.01005   -0.00715   -0.29160
  7 Li   -0.01103   -0.01485   -0.28594
  8 Li    0.01186    0.00854   -0.29095
  9 Li   -0.05629    0.02609    0.33650
 10 Li   -0.00291    0.01383    0.31544
 11 Li    0.02512    0.03150    0.28001
 12 Li   -0.06428   -0.05072    0.28931
 13 Li   -0.03275   -0.02585    0.29754
 14 Li    0.01194   -0.04170    0.33695
 15 Li   -0.02993   -0.01614    0.27805
 16 Li   -0.02273    0.01294    0.28408
 17 Li    0.01016    0.01676    0.28524
 18 Li    0.01606    0.00333   -0.00702
 19 Li   -0.00842   -0.01014   -0.01790
 20 Li    0.00118   -0.00056   -0.03722
 21 Li    0.00180    0.01136    0.00886
 22 Li    0.01834   -0.02034    0.01895
 23 Li    0.00415    0.01361   -0.00367
 24 Li   -0.00152    0.00883    0.01269
 25 Li   -0.00217    0.00382    0.00039
 26 Li   -0.01160    0.00402   -0.00013
 27 Li    0.01696   -0.00447    0.00923
 28 Li    0.00209   -0.00050   -0.00471
 29 Li    0.01204    0.00583    0.00552
 30 Li    0.00665   -0.01147    0.00200
 31 Li    0.02103    0.00108   -0.01236
 32 Li   -0.01153    0.02954    0.01746
 33 Li    0.00096    0.02460   -0.00272
 34 Li   -0.00400    0.00080    0.00373
 35 Li   -0.00025   -0.00738   -0.00972
 36 O     0.01716   -0.02511    0.00421
 37 O    -0.01229   -0.01033   -0.01247
 38 C     0.00433   -0.00978   -0.00713
 39 C     0.00994    0.00164   -0.01901
 40 H    -0.01112    0.00352    0.01790
 41 H     0.00415    0.00292   -0.02914
 42 H     0.03695    0.01219    0.01097
 43 H    -0.00046   -0.02230   -0.00632
 44 H    -0.02780   -0.01153    0.03603
 45 H    -0.01614   -0.01704   -0.01998
 46 N     0.06160   -0.03284    0.01061
 47 N    -0.04865    0.01991   -0.02278

System changes: positions 

Initializing position-dependent things.

Density initialized from wave functions
       .-----------------------.  
      /|                       |  
     / |                       |  
    /  |                       |  
   /   |                       |  
  /    |                       |  
 *     |                       |  
 |     |                       |  
 |     |                       |  
 |     |                       |  
 |     |                  H    |  
 |     |                       |  
 |   H |              H O C    |  
 |  H  Li      Li     O   C    |  
 |     |                  H    |  
 |   Li|     Li      Li        |  
 |     |                       |  
 |     |  Li      LLi     Li   |  
 |     |             N N       |  
 |     |Li      LiLi    Li     |  
 |   Li|     Li      LLi       |  
 |    Li  Li  Li  Li      Li   |  
 | Li  |   Li      Li          |  
 |     |Li      Li      Li     |  
 Li    | Li      Li            |  
 |    Li      Li      Li       |  
 |     |                       |  
 |     |                       |  
 |     |                       |  
 |     |                       |  
 |     |                       |  
 |     |                       |  
 |     .-----------------------.  
 |    /                       /   
 |   /                       /    
 |  /                       /     
 | /                       /      
 |/                       /       
 *-----------------------*        

Positions:
   0 Li     1.617037    1.617037   10.000000    ( 0.0000,  0.0000,  0.0000)
   1 Li     4.851111    1.617037   10.000000    ( 0.0000,  0.0000,  0.0000)
   2 Li     8.085185    1.617037   10.000000    ( 0.0000,  0.0000,  0.0000)
   3 Li     1.617037    4.851111   10.000000    ( 0.0000,  0.0000,  0.0000)
   4 Li     4.851111    4.851111   10.000000    ( 0.0000,  0.0000,  0.0000)
   5 Li     8.085185    4.851111   10.000000    ( 0.0000,  0.0000,  0.0000)
   6 Li     1.617037    8.085185   10.000000    ( 0.0000,  0.0000,  0.0000)
   7 Li     4.851111    8.085185   10.000000    ( 0.0000,  0.0000,  0.0000)
   8 Li     8.085185    8.085185   10.000000    ( 0.0000,  0.0000,  0.0000)
   9 Li     0.000000    0.000000   11.617037    ( 0.0000,  0.0000,  0.0000)
  10 Li     3.234074    0.000000   11.617037    ( 0.0000,  0.0000,  0.0000)
  11 Li     6.468148    0.000000   11.617037    ( 0.0000,  0.0000,  0.0000)
  12 Li     0.000000    3.234074   11.617037    ( 0.0000,  0.0000,  0.0000)
  13 Li     3.234074    3.234074   11.617037    ( 0.0000,  0.0000,  0.0000)
  14 Li     6.468148    3.234074   11.617037    ( 0.0000,  0.0000,  0.0000)
  15 Li     0.000000    6.468148   11.617037    ( 0.0000,  0.0000,  0.0000)
  16 Li     3.234074    6.468148   11.617037    ( 0.0000,  0.0000,  0.0000)
  17 Li     6.468148    6.468148   11.617037    ( 0.0000,  0.0000,  0.0000)
  18 Li     1.552639    1.566059   13.521498    ( 0.0000,  0.0000,  0.0000)
  19 Li     4.829209    1.666401   13.527973    ( 0.0000,  0.0000,  0.0000)
  20 Li     8.029305    1.593022   13.609877    ( 0.0000,  0.0000,  0.0000)
  21 Li     1.521859    4.781144   13.493376    ( 0.0000,  0.0000,  0.0000)
  22 Li     4.778811    4.907071   13.481455    ( 0.0000,  0.0000,  0.0000)
  23 Li     8.012801    4.837070   13.505298    ( 0.0000,  0.0000,  0.0000)
  24 Li     1.631943    8.034340   13.504317    ( 0.0000,  0.0000,  0.0000)
  25 Li     4.917450    8.145863   13.514216    ( 0.0000,  0.0000,  0.0000)
  26 Li     8.128559    8.077808   13.525056    ( 0.0000,  0.0000,  0.0000)
  27 Li     0.048618   -0.110984   15.523828    ( 0.0000,  0.0000,  0.0000)
  28 Li     3.324823   -0.056258   15.449051    ( 0.0000,  0.0000,  0.0000)
  29 Li     6.642929    0.235077   15.647601    ( 0.0000,  0.0000,  0.0000)
  30 Li    -0.350571    3.010528   15.574933    ( 0.0000,  0.0000,  0.0000)
  31 Li     2.985611    3.286630   15.460129    ( 0.0000,  0.0000,  0.0000)
  32 Li     6.253055    3.353349   15.491003    ( 0.0000,  0.0000,  0.0000)
  33 Li     0.054534    6.274132   15.493315    ( 0.0000,  0.0000,  0.0000)
  34 Li     3.240070    6.453002   15.449597    ( 0.0000,  0.0000,  0.0000)
  35 Li     6.418387    6.611392   15.489894    ( 0.0000,  0.0000,  0.0000)
  36 O      8.210104    1.631508   19.680871    ( 0.0000,  0.0000,  0.0000)
  37 O      8.203205    4.473434   19.047236    ( 0.0000,  0.0000,  0.0000)
  38 C      9.402127    2.346528   19.310021    ( 0.0000,  0.0000,  0.0000)
  39 C      9.311383    3.821924   19.671562    ( 0.0000,  0.0000,  0.0000)
  40 H     10.295108    1.899345   19.764832    ( 0.0000,  0.0000,  0.0000)
  41 H      9.483283    2.223533   18.229560    ( 0.0000,  0.0000,  0.0000)
  42 H     10.208767    4.337481   19.318585    ( 0.0000,  0.0000,  0.0000)
  43 H      9.259436    3.934150   20.765919    ( 0.0000,  0.0000,  0.0000)
  44 H      8.244614    1.465109   20.629906    ( 0.0000,  0.0000,  0.0000)
  45 H      7.430152    3.909664   19.189842    ( 0.0000,  0.0000,  0.0000)
  46 N      8.444454    1.179481   15.649829    ( 0.0000,  0.0000,  0.0000)
  47 N      7.546066    2.059249   15.627971    ( 0.0000,  0.0000,  0.0000)

Unit cell:
           periodic     x           y           z      points  spacing
  1. axis:    yes    9.702222    0.000000    0.000000    60     0.1617
  2. axis:    yes    0.000000    9.702222    0.000000    60     0.1617
  3. axis:    no     0.000000    0.000000   26.351111   164     0.1607

  Lengths:   9.702222   9.702222  26.351111
  Angles:   90.000000  90.000000  90.000000

Effective grid spacing dv^(1/3) = 0.1614

     iter     time        total  log10-change:
                         energy  eigst   dens
iter:   1 19:30:07  -328.199546  -2.80
iter:   2 19:30:15  -328.198522  -3.39  -2.63
iter:   3 19:30:22  -328.198339c -4.16  -2.80
iter:   4 19:30:30  -328.198230c -4.32  -3.15
Writing to output.gpw (mode='')

iter:   5 19:30:37  -328.198169c -4.21  -3.27
iter:   6 19:30:44  -328.198155c -4.06  -3.48
iter:   7 19:30:52  -328.198158c -4.89  -3.57
iter:   8 19:30:59  -328.198168c -5.01  -3.76
iter:   9 19:31:06  -328.198160c -5.30  -3.86
Writing to output.gpw (mode='')

iter:  10 19:31:14  -328.198170c -5.60  -3.96
iter:  11 19:31:21  -328.198165c -5.62  -4.12c
iter:  12 19:31:29  -328.198166c -6.07  -4.20c
iter:  13 19:31:36  -328.198159c -6.23  -4.23c
iter:  14 19:31:43  -328.198159c -6.40  -4.43c
Writing to output.gpw (mode='')

iter:  15 19:31:50  -328.198161c -6.81  -4.51c
iter:  16 19:31:58  -328.198162c -7.06  -4.64c
iter:  17 19:32:05  -328.198163c -6.91  -4.67c
iter:  18 19:32:13  -328.198164c -7.01  -4.84c
iter:  19 19:32:20  -328.198164c -7.36  -4.86c
Writing to output.gpw (mode='')

iter:  20 19:32:27  -328.198164c -7.73c -4.96c

Converged after 20 iterations.

Dipole moment: (21.313077, -2.910405, 0.366506) |e|*Ang

Energy contributions relative to reference atoms: (reference = -16475.706344)

Kinetic:       +158.188770
Potential:     -150.813072
External:        +0.000000
XC:            -336.641100
Entropy (-ST):   -0.161709
Local:           +1.148093
--------------------------
Free energy:   -328.279018
Extrapolated:  -328.198164

Dipole-layer corrected work functions: 3.396443, 2.691893 eV

Showing only first 2 kpts
 Kpt  Band  Eigenvalues  Occupancy
  0    34     -3.23308    1.95530
  0    35     -3.05938    1.15092
  0    36     -3.03292    0.88799
  0    37     -2.94142    0.22710

  1    34     -3.35539    1.99605
  1    35     -2.99868    0.57409
  1    36     -2.93982    0.22076
  1    37     -2.92263    0.16171


Fermi level: -3.04417

No gap

Forces in eV/Ang:
  0 Li   -0.00203   -0.00987   -0.29347
  1 Li    0.01167    0.00962   -0.29709
  2 Li    0.00167    0.00028   -0.25519
  3 Li    0.01959    0.01465   -0.28134
  4 Li   -0.00438    0.00854   -0.29182
  5 Li   -0.00809   -0.00556   -0.29287
  6 Li    0.01004   -0.00715   -0.29165
  7 Li   -0.01105   -0.01491   -0.28610
  8 Li    0.01187    0.00856   -0.29085
  9 Li   -0.05565    0.02578    0.33604
 10 Li   -0.00302    0.01331    0.31469
 11 Li    0.02456    0.03076    0.27901
 12 Li   -0.06330   -0.04987    0.28925
 13 Li   -0.03263   -0.02509    0.29737
 14 Li    0.01170   -0.04093    0.33580
 15 Li   -0.02929   -0.01535    0.27801
 16 Li   -0.02277    0.01281    0.28461
 17 Li    0.00974    0.01694    0.28471
 18 Li    0.01522    0.00329   -0.00692
 19 Li   -0.00697   -0.00985   -0.01597
 20 Li    0.00208   -0.00065   -0.01931
 21 Li    0.00146    0.01058    0.00801
 22 Li    0.01728   -0.01922    0.01767
 23 Li    0.00432    0.01161   -0.00211
 24 Li   -0.00093    0.00770    0.01116
 25 Li   -0.00156    0.00418    0.00092
 26 Li   -0.01097    0.00443    0.00009
 27 Li    0.01222   -0.00119    0.01043
 28 Li    0.00270   -0.00030   -0.00467
 29 Li    0.00690    0.00109    0.00477
 30 Li    0.00023   -0.01682    0.00188
 31 Li    0.02033    0.00094   -0.01211
 32 Li   -0.00214    0.01943    0.01598
 33 Li    0.00089    0.02358   -0.00263
 34 Li   -0.00386    0.00067    0.00389
 35 Li   -0.00056   -0.00626   -0.00960
 36 O     0.02303   -0.03423    0.01051
 37 O    -0.00011   -0.01115   -0.00523
 38 C     0.00811   -0.01242   -0.02231
 39 C     0.01356   -0.00481   -0.01542
 40 H    -0.02506    0.00324    0.03331
 41 H    -0.00476    0.00254   -0.04387
 42 H     0.02501    0.01700    0.01940
 43 H    -0.00021   -0.00626   -0.01189
 44 H    -0.02436   -0.00833    0.03008
 45 H    -0.00792   -0.01805   -0.01631
 46 N     0.03812    0.00432   -0.01378
 47 N    -0.02543    0.00380   -0.02145

Timing:                                      incl.     excl.
-------------------------------------------------------------------
Density initialized from wave functions:     3.096     3.094   0.0% |
 Symmetrize density:                         0.002     0.002   0.0% |
Forces:                                     42.359    42.359   0.2% |
Hamiltonian:                               566.699     0.014   0.0% |
 Atomic:                                     0.023     0.022   0.0% |
  XC Correction:                             0.000     0.000   0.0% |
 Calculate atomic Hamiltonians:              0.040     0.040   0.0% |
 Communicate:                                7.488     7.488   0.0% |
 Hartree integrate/restrict:                 1.866     1.866   0.0% |
 Initialize Hamiltonian:                     0.000     0.000   0.0% |
 Poisson:                                   26.963     9.979   0.0% |
  Communicate from 1D:                       2.565     2.565   0.0% |
  Communicate from 2D:                       3.103     3.103   0.0% |
  Communicate to 1D:                         1.461     1.461   0.0% |
  Communicate to 2D:                         3.146     3.146   0.0% |
  FFT 1D:                                    3.429     3.429   0.0% |
  FFT 2D:                                    3.279     3.279   0.0% |
 XC 3D grid:                               529.817    81.755   0.3% |
  VdW-DF integral:                         448.062     3.713   0.0% |
   Convolution:                             40.531    40.531   0.2% |
   FFT:                                     17.389    17.389   0.1% |
   gather:                                 153.611   153.611   0.6% |
   hmm1:                                    14.240    14.240   0.1% |
   hmm2:                                    18.931    18.931   0.1% |
   iFFT:                                    18.116    18.116   0.1% |
   potential:                              178.001     4.810   0.0% |
    collect:                                27.570    27.570   0.1% |
    p1:                                     77.876    77.876   0.3% |
    p2:                                     28.623    28.623   0.1% |
    sum:                                    39.122    39.122   0.2% |
   splines:                                  3.532     3.532   0.0% |
 vbar:                                       0.489     0.489   0.0% |
LCAO initialization:                         1.140     0.184   0.0% |
 LCAO eigensolver:                           0.220     0.000   0.0% |
  Calculate projections:                     0.000     0.000   0.0% |
  DenseAtomicCorrection:                     0.000     0.000   0.0% |
  Distribute overlap matrix:                 0.205     0.205   0.0% |
  Orbital Layouts:                           0.013     0.013   0.0% |
  Potential matrix:                          0.001     0.001   0.0% |
  Sum over cells:                            0.001     0.001   0.0% |
 LCAO to grid:                               0.623     0.623   0.0% |
 Set positions (LCAO WFS):                   0.113     0.070   0.0% |
  Basic WFS set positions:                   0.001     0.001   0.0% |
  Basis functions set positions:             0.000     0.000   0.0% |
  P tci:                                     0.000     0.000   0.0% |
  ST tci:                                    0.012     0.012   0.0% |
  mktci:                                     0.030     0.030   0.0% |
Redistribute:                                0.091     0.091   0.0% |
SCF-cycle:                               25045.429   292.801   1.1% |
 Davidson:                                6813.602  2036.269   7.9% |--|
  Apply hamiltonian:                       426.433   426.433   1.7% ||
  Subspace diag:                          1268.870     0.389   0.0% |
   calc_h_matrix:                          628.743   193.686   0.8% |
    Apply hamiltonian:                     435.057   435.057   1.7% ||
   diagonalize:                             76.414    76.414   0.3% |
   rotate_psi:                             563.323   563.323   2.2% ||
  calc. matrices:                         2179.322  1140.711   4.4% |-|
   Apply hamiltonian:                     1038.611  1038.611   4.0% |-|
  diagonalize:                              20.126    20.126   0.1% |
  rotate_psi:                              882.583   882.583   3.4% ||
 Density:                                  126.033     0.201   0.0% |
  Atomic density matrices:                  14.523    14.523   0.1% |
  Mix:                                      52.877    52.877   0.2% |
  Multipole moments:                         8.731     8.731   0.0% |
  Pseudo density:                           49.700    49.640   0.2% |
   Symmetrize density:                       0.059     0.059   0.0% |
 Hamiltonian:                            17793.483     0.418   0.0% |
  Atomic:                                    0.782     0.774   0.0% |
   XC Correction:                            0.008     0.008   0.0% |
  Calculate atomic Hamiltonians:             1.257     1.257   0.0% |
  Communicate:                             248.890   248.890   1.0% |
  Hartree integrate/restrict:               63.093    63.093   0.2% |
  Poisson:                                 853.194   319.796   1.2% |
   Communicate from 1D:                     82.714    82.714   0.3% |
   Communicate from 2D:                     87.069    87.069   0.3% |
   Communicate to 1D:                       46.988    46.988   0.2% |
   Communicate to 2D:                      102.282   102.282   0.4% |
   FFT 1D:                                 109.243   109.243   0.4% |
   FFT 2D:                                 105.103   105.103   0.4% |
  XC 3D grid:                            16612.201  2549.343   9.9% |---|
   VdW-DF integral:                      14062.857   117.777   0.5% |
    Convolution:                          1285.824  1285.824   5.0% |-|
    FFT:                                   550.978   550.978   2.1% ||
    gather:                               4943.567  4943.567  19.2% |-------|
    hmm1:                                  454.333   454.333   1.8% ||
    hmm2:                                  606.275   606.275   2.4% ||
    iFFT:                                  574.649   574.649   2.2% ||
    potential:                            5529.426   154.993   0.6% |
     collect:                              862.124   862.124   3.3% ||
     p1:                                  2470.855  2470.855   9.6% |---|
     p2:                                   922.962   922.962   3.6% ||
     sum:                                 1118.492  1118.492   4.3% |-|
    splines:                                 0.029     0.029   0.0% |
  vbar:                                     13.649    13.649   0.1% |
 Orthonormalize:                            19.510     0.014   0.0% |
  calc_s_matrix:                             2.791     2.791   0.0% |
  inverse-cholesky:                          6.179     6.179   0.0% |
  projections:                               0.002     0.002   0.0% |
  rotate_psi_s:                             10.524    10.524   0.0% |
Set symmetry:                                0.002     0.002   0.0% |
Other:                                     117.499   117.499   0.5% |
-------------------------------------------------------------------
Total:                                             25776.316 100.0%

Memory usage: 1.12 GiB
Date: Fri Mar 10 19:32:28 2023
