
  ___ ___ ___ _ _ _  
 |   |   |_  | | | | 
 | | | | | . | | | | 
 |__ |  _|___|_____|  22.8.0
 |___|_|             

User:   vazumah@r181.ib.bridges2.psc.edu
Date:   Fri Mar 10 18:31:41 2023
Arch:   x86_64
Pid:    9927
CWD:    /jet/home/vazumah/Calcs/LiMEAS/proton_donors/propan_1_ol_z/bridge/0.0_1.617/N2_y
Python: 3.11.0
gpaw:   /jet/home/vazumah/.conda/envs/GPAW_mpich/lib/python3.11/site-packages/gpaw
_gpaw:  /jet/home/vazumah/.conda/envs/GPAW_mpich/lib/python3.11/site-packages/
        _gpaw.cpython-311-x86_64-linux-gnu.so
ase:    /jet/home/vazumah/.conda/envs/GPAW_mpich/lib/python3.11/site-packages/ase (version 3.22.1)
numpy:  /jet/home/vazumah/.conda/envs/GPAW_mpich/lib/python3.11/site-packages/numpy (version 1.24.2)
scipy:  /jet/home/vazumah/.conda/envs/GPAW_mpich/lib/python3.11/site-packages/scipy (version 1.10.1)
libxc:  5.2.3
units:  Angstrom and eV
cores: 128
OpenMP: True
OMP_NUM_THREADS: 1

Input parameters:
  h: 0.16
  kpts: {size: [4, 4, 1]}
  occupations: {name: fermi-dirac,
                width: 0.05}
  poissonsolver: {dipolelayer: xy}
  xc: BEEF-vdW

System changes: positions, numbers, cell, pbc, initial_charges, initial_magmoms 

Initialize ...

species:
  Li:
    name: Lithium
    id: 830b4218f175192f93f959cfc0aad614
    Z: 3.0
    valence: 1
    core: 2
    charge: 0.0
    file: /jet/home/vazumah/datasets/gpaw-setups-0.9.20000/Li.PBE.gz
    compensation charges: {type: gauss,
                           rc: 0.33,
                           lmax: 2}
    cutoffs: {filter: 1.91,
              core: 2.55}
    valence states:
      #              energy  rcut
      - 2s(1.00)    -2.874   1.058
      - 2p(0.00)    -1.090   1.058
      -  s          24.337   1.058
  
    # Using partial waves for Li as LCAO basis

  O:
    name: Oxygen
    id: 32ecd46bf208036f09c70b0ec9a88b78
    Z: 8.0
    valence: 6
    core: 2
    charge: 0.0
    file: /jet/home/vazumah/datasets/gpaw-setups-0.9.20000/O.PBE.gz
    compensation charges: {type: gauss,
                           rc: 0.21,
                           lmax: 2}
    cutoffs: {filter: 1.17,
              core: 0.83}
    valence states:
      #              energy  rcut
      - 2s(2.00)   -23.961   0.688
      - 2p(4.00)    -9.029   0.598
      -  s           3.251   0.688
      -  p          18.182   0.598
      -  d           0.000   0.619
  
    # Using partial waves for O as LCAO basis

  C:
    name: Carbon
    id: 4aa54d4b901d75f77cc0ea3eec22967b
    Z: 6.0
    valence: 4
    core: 2
    charge: 0.0
    file: /jet/home/vazumah/datasets/gpaw-setups-0.9.20000/C.PBE.gz
    compensation charges: {type: gauss,
                           rc: 0.20,
                           lmax: 2}
    cutoffs: {filter: 1.14,
              core: 1.14}
    valence states:
      #              energy  rcut
      - 2s(2.00)   -13.751   0.635
      - 2p(2.00)    -5.284   0.635
      -  s          13.461   0.635
      -  p          21.927   0.635
      -  d           0.000   0.635
  
    # Using partial waves for C as LCAO basis

  H:
    name: Hydrogen
    id: d65de229564ff8ea4db303e23b6d1ecf
    Z: 1.0
    valence: 1
    core: 0
    charge: 0.0
    file: /jet/home/vazumah/datasets/gpaw-setups-0.9.20000/H.PBE.gz
    compensation charges: {type: gauss,
                           rc: 0.15,
                           lmax: 2}
    cutoffs: {filter: 0.85,
              core: 0.53}
    valence states:
      #              energy  rcut
      - 1s(1.00)    -6.494   0.476
      -  s          20.717   0.476
      -  p           0.000   0.476
  
    # Using partial waves for H as LCAO basis

  N:
    name: Nitrogen
    id: f7500608b86eaa90eef8b1d9a670dc53
    Z: 7.0
    valence: 5
    core: 2
    charge: 0.0
    file: /jet/home/vazumah/datasets/gpaw-setups-0.9.20000/N.PBE.gz
    compensation charges: {type: gauss,
                           rc: 0.18,
                           lmax: 2}
    cutoffs: {filter: 1.11,
              core: 0.96}
    valence states:
      #              energy  rcut
      - 2s(2.00)   -18.583   0.603
      - 2p(3.00)    -7.089   0.529
      -  s           8.629   0.603
      -  p          20.123   0.529
      -  d           0.000   0.577
  
    # Using partial waves for N as LCAO basis

Reference energy: -15487.462483  # eV

Spin-paired calculation

Convergence criteria:
 Maximum [total energy] change in last 3 cyles: 0.0005 eV / electron
 Maximum integral of absolute [dens]ity change: 0.0001 electrons / valence electron
 Maximum integral of absolute [eigenst]ate change: 4e-08 eV^2 / valence electron
 Maximum number of scf [iter]ations: 333
 (Square brackets indicate name in SCF output, whereas a 'c' in
 the SCF output indicates the quantity has converged.)

Symmetries present (total): 1

  ( 1  0  0)
  ( 0  1  0)
  ( 0  0  1)

16 k-points: 4 x 4 x 1 Monkhorst-Pack grid
8 k-points in the irreducible part of the Brillouin zone
       k-points in crystal coordinates                weights
   0:     0.12500000   -0.37500000    0.00000000          2/16
   1:     0.12500000   -0.12500000    0.00000000          2/16
   2:     0.12500000    0.12500000    0.00000000          2/16
   3:     0.12500000    0.37500000    0.00000000          2/16
   4:     0.37500000   -0.37500000    0.00000000          2/16
   5:     0.37500000   -0.12500000    0.00000000          2/16
   6:     0.37500000    0.12500000    0.00000000          2/16
   7:     0.37500000    0.37500000    0.00000000          2/16

Wave functions: Uniform real-space grid
  Kinetic energy operator: 6*3+1=19 point O(h^6) finite-difference Laplacian
  ScaLapack parameters: grid=1x1, blocksize=None
  Wavefunction extrapolation:
    Improved wavefunction reuse through dual PAW basis 

Occupation numbers: Fermi-Dirac:
  width: 0.0500  # eV
 

Eigensolver
   Davidson(niter=2) 

Densities:
  Coarse grid: 60*60*164 grid
  Fine grid: 120*120*328 grid
  Total Charge: 0.000000 

Density mixing:
  Method: separate
  Backend: pulay
  Linear mixing parameter: 0.05
  old densities: 5
  Damping of long wavelength oscillations: 50 

Hamiltonian:
  XC and Coulomb potentials evaluated on a 120*120*328 grid
  Using the BEEF-vdW Exchange-Correlation functional
  Interpolation: tri-quintic (5. degree polynomial)
  Poisson solver: FastPoissonSolver using
    Stencil: 6*3+1=19 point O(h^6) finite-difference Laplacian
    FFT axes: [0, 1]
    FST axes: [2]

Dipole correction along z-axis 

XC parameters: BEEF-vdW with 2 nearest neighbor stencil

Memory estimate:
  Process memory now: 129.70 MiB
  Calculator: 84.83 MiB
    Density: 22.60 MiB
      Arrays: 7.22 MiB
      Localized functions: 12.63 MiB
      Mixer: 2.75 MiB
    Hamiltonian: 5.72 MiB
      Arrays: 4.72 MiB
      XC: 0.00 MiB
      Poisson: 0.00 MiB
      vbar: 1.00 MiB
    Wavefunctions: 56.51 MiB
      Arrays psit_nG: 26.37 MiB
      Eigensolver: 29.47 MiB
      Projections: 0.01 MiB
      Projectors: 0.66 MiB

Total number of cores used: 128
Parallelization over k-points: 8
Domain decomposition: 2 x 2 x 4

Number of atoms: 50
Number of atomic orbitals: 176
Number of bands in calculation: 48
Number of valence electrons: 72
Bands to converge: occupied

... initialized

Initializing position-dependent things.

Density initialized from atomic densities
Creating initial wave functions:
  48 bands from LCAO basis set

       .-----------------------.  
      /|                       |  
     / |                       |  
    /  |                       |  
   /   |                       |  
  /    |                       |  
 *     |                       |  
 |     |                       |  
 |     |                       |  
 |   H |                H H    |  
 |     |                  C    |  
 |     |                       |  
 |C HH |               H H     |  
 |C    |                       |  
 |     |                       |  
 |O HLi|     Li      Li        |  
 |NN   |                       |  
 | Li  |  LLi     LLi     Li   |  
 |     |                       |  
 Li    |LLi     LLi     Li     |  
 |   Li|     Li      Li        |  
 |    Li  Li  Li  Li  Li  Li   |  
 | Li  |   Li      Li          |  
 |     |Li      Li      Li     |  
 Li    | Li      Li            |  
 |    Li      Li      Li       |  
 |     |                       |  
 |     |                       |  
 |     |                       |  
 |     |                       |  
 |     |                       |  
 |     |                       |  
 |     .-----------------------.  
 |    /                       /   
 |   /                       /    
 |  /                       /     
 | /                       /      
 |/                       /       
 *-----------------------*        

Positions:
   0 Li     1.617037    1.617037   10.000000    ( 0.0000,  0.0000,  0.0000)
   1 Li     4.851111    1.617037   10.000000    ( 0.0000,  0.0000,  0.0000)
   2 Li     8.085185    1.617037   10.000000    ( 0.0000,  0.0000,  0.0000)
   3 Li     1.617037    4.851111   10.000000    ( 0.0000,  0.0000,  0.0000)
   4 Li     4.851111    4.851111   10.000000    ( 0.0000,  0.0000,  0.0000)
   5 Li     8.085185    4.851111   10.000000    ( 0.0000,  0.0000,  0.0000)
   6 Li     1.617037    8.085185   10.000000    ( 0.0000,  0.0000,  0.0000)
   7 Li     4.851111    8.085185   10.000000    ( 0.0000,  0.0000,  0.0000)
   8 Li     8.085185    8.085185   10.000000    ( 0.0000,  0.0000,  0.0000)
   9 Li     0.000000    0.000000   11.617037    ( 0.0000,  0.0000,  0.0000)
  10 Li     3.234074    0.000000   11.617037    ( 0.0000,  0.0000,  0.0000)
  11 Li     6.468148    0.000000   11.617037    ( 0.0000,  0.0000,  0.0000)
  12 Li     0.000000    3.234074   11.617037    ( 0.0000,  0.0000,  0.0000)
  13 Li     3.234074    3.234074   11.617037    ( 0.0000,  0.0000,  0.0000)
  14 Li     6.468148    3.234074   11.617037    ( 0.0000,  0.0000,  0.0000)
  15 Li     0.000000    6.468148   11.617037    ( 0.0000,  0.0000,  0.0000)
  16 Li     3.234074    6.468148   11.617037    ( 0.0000,  0.0000,  0.0000)
  17 Li     6.468148    6.468148   11.617037    ( 0.0000,  0.0000,  0.0000)
  18 Li     1.617038    1.617038   13.469728    ( 0.0000,  0.0000,  0.0000)
  19 Li     4.851111    1.617038   13.469729    ( 0.0000,  0.0000,  0.0000)
  20 Li     8.085184    1.617038   13.469728    ( 0.0000,  0.0000,  0.0000)
  21 Li     1.617038    4.851111   13.469729    ( 0.0000,  0.0000,  0.0000)
  22 Li     4.851111    4.851111   13.469730    ( 0.0000,  0.0000,  0.0000)
  23 Li     8.085184    4.851111   13.469729    ( 0.0000,  0.0000,  0.0000)
  24 Li     1.617038    8.085184   13.469728    ( 0.0000,  0.0000,  0.0000)
  25 Li     4.851111    8.085184   13.469729    ( 0.0000,  0.0000,  0.0000)
  26 Li     8.085184    8.085184   13.469728    ( 0.0000,  0.0000,  0.0000)
  27 Li    -0.000000   -0.000000   15.445939    ( 0.0000,  0.0000,  0.0000)
  28 Li     3.234074    0.000000   15.445939    ( 0.0000,  0.0000,  0.0000)
  29 Li     6.468148    0.000000   15.445939    ( 0.0000,  0.0000,  0.0000)
  30 Li     0.000000    3.234074   15.445939    ( 0.0000,  0.0000,  0.0000)
  31 Li     3.234076    3.234076   15.445938    ( 0.0000,  0.0000,  0.0000)
  32 Li     6.468146    3.234076   15.445938    ( 0.0000,  0.0000,  0.0000)
  33 Li     0.000000    6.468148   15.445939    ( 0.0000,  0.0000,  0.0000)
  34 Li     3.234076    6.468146   15.445938    ( 0.0000,  0.0000,  0.0000)
  35 Li     6.468146    6.468146   15.445938    ( 0.0000,  0.0000,  0.0000)
  36 O      0.000000    1.617037   18.445939    ( 0.0000,  0.0000,  0.0000)
  37 C      0.000130    1.229416   20.880188    ( 0.0000,  0.0000,  0.0000)
  38 C      0.010683    2.239826   19.737999    ( 0.0000,  0.0000,  0.0000)
  39 C     -0.006231    1.891829   22.260523    ( 0.0000,  0.0000,  0.0000)
  40 H     -0.877171    0.586566   20.761575    ( 0.0000,  0.0000,  0.0000)
  41 H      0.885809    0.587658   20.786274    ( 0.0000,  0.0000,  0.0000)
  42 H     -0.889209    2.859769   19.761807    ( 0.0000,  0.0000,  0.0000)
  43 H      0.878457    2.906729   19.831582    ( 0.0000,  0.0000,  0.0000)
  44 H     -0.891910    2.517909   22.394060    ( 0.0000,  0.0000,  0.0000)
  45 H     -0.007037    1.147054   23.057805    ( 0.0000,  0.0000,  0.0000)
  46 H      0.872030    2.527345   22.402072    ( 0.0000,  0.0000,  0.0000)
  47 H      0.771312    1.039479   18.397178    ( 0.0000,  0.0000,  0.0000)
  48 N      0.000000    1.617000   16.945939    ( 0.0000,  0.0000,  0.0000)
  49 N      0.000000    2.713622   16.945939    ( 0.0000,  0.0000,  0.0000)

Unit cell:
           periodic     x           y           z      points  spacing
  1. axis:    yes    9.702222    0.000000    0.000000    60     0.1617
  2. axis:    yes    0.000000    9.702222    0.000000    60     0.1617
  3. axis:    no     0.000000    0.000000   26.351111   164     0.1607

  Lengths:   9.702222   9.702222  26.351111
  Angles:   90.000000  90.000000  90.000000

Effective grid spacing dv^(1/3) = 0.1614

     iter     time        total  log10-change:
                         energy  eigst   dens
iter:   1 18:31:55  -675.427497
iter:   2 18:32:02     8.120967  +2.65  +0.04
iter:   3 18:32:10    72.697236  +3.30  -0.15
iter:   4 18:32:17  -148.363646  +3.37  -0.23
Writing to output.gpw (mode='')

iter:   5 18:32:24  -238.893445  +2.91  -0.25
iter:   6 18:32:32  -316.320938  +2.61  -0.46
iter:   7 18:32:39  -323.703444  +2.28  -0.47
iter:   8 18:32:46  -334.813939  +2.16  -0.51
iter:   9 18:32:53  -405.683551  +2.20  -0.54
Writing to output.gpw (mode='')

iter:  10 18:33:01  -374.538766  +1.59  -0.42
iter:  11 18:33:08  -370.599445  +1.32  -0.50
iter:  12 18:33:15  -342.489444  +1.62  -0.50
iter:  13 18:33:23  -345.765207  +0.79  -0.62
iter:  14 18:33:30  -373.639997  +1.44  -0.63
Writing to output.gpw (mode='')

iter:  15 18:33:37  -339.527335  +0.84  -0.57
iter:  16 18:33:44  -335.839658  +0.83  -0.67
iter:  17 18:33:52  -334.947828  +0.94  -0.72
iter:  18 18:33:59  -331.381275  +0.43  -0.74
iter:  19 18:34:06  -330.267099  +0.97  -0.79
Writing to output.gpw (mode='')

iter:  20 18:34:13  -329.558205  +0.39  -0.76
iter:  21 18:34:27  -328.021252  +0.24  -0.81
iter:  22 18:34:35  -327.690738  +0.29  -1.07
iter:  23 18:34:42  -327.615509  +0.18  -1.10
iter:  24 18:34:50  -327.598579  -0.17  -1.14
Writing to output.gpw (mode='')

iter:  25 18:34:57  -327.590749c -0.18  -1.19
iter:  26 18:35:04  -327.568156c -0.42  -1.20
iter:  27 18:35:11  -327.368380  -0.52  -1.28
iter:  28 18:35:19  -327.365541  -0.23  -1.39
iter:  29 18:35:26  -327.327568  -0.89  -1.60
Writing to output.gpw (mode='')

iter:  30 18:35:33  -327.313746  -1.16  -1.64
iter:  31 18:35:43  -327.257983  -1.02  -1.67
iter:  32 18:35:51  -327.234805  -1.36  -1.88
iter:  33 18:35:58  -327.239548c -1.41  -2.03
iter:  34 18:36:05  -327.234844c -1.93  -2.10
Writing to output.gpw (mode='')

iter:  35 18:36:13  -327.228576c -1.67  -2.19
iter:  36 18:36:24  -327.225864c -1.73  -2.40
iter:  37 18:36:42  -327.226348c -1.98  -2.39
iter:  38 18:36:51  -327.226082c -2.31  -2.41
iter:  39 18:36:59  -327.226052c -2.47  -2.47
Writing to output.gpw (mode='')

iter:  40 18:37:06  -327.226013c -2.45  -2.53
iter:  41 18:37:13  -327.226286c -2.58  -2.62
iter:  42 18:37:20  -327.226906c -2.72  -2.67
iter:  43 18:37:28  -327.227260c -2.83  -2.81
iter:  44 18:37:35  -327.227440c -2.86  -2.86
Writing to output.gpw (mode='')

iter:  45 18:37:42  -327.227774c -2.85  -2.93
iter:  46 18:37:49  -327.228003c -3.04  -3.17
iter:  47 18:37:57  -327.228153c -3.04  -3.32
iter:  48 18:38:04  -327.228319c -3.12  -3.38
iter:  49 18:38:11  -327.228415c -3.26  -3.60
Writing to output.gpw (mode='')

iter:  50 18:38:19  -327.228516c -3.38  -3.64
iter:  51 18:38:26  -327.228582c -3.46  -3.65
iter:  52 18:38:33  -327.228643c -3.51  -3.71
iter:  53 18:38:40  -327.228701c -3.62  -3.76
iter:  54 18:38:48  -327.228752c -3.69  -3.85
Writing to output.gpw (mode='')

iter:  55 18:38:55  -327.228776c -3.98  -4.07c
iter:  56 18:39:02  -327.228799c -3.94  -4.11c
iter:  57 18:39:09  -327.228819c -3.97  -4.13c
iter:  58 18:39:17  -327.228838c -4.00  -4.23c
iter:  59 18:39:29  -327.228856c -4.19  -4.29c
Writing to output.gpw (mode='')

iter:  60 18:39:37  -327.228875c -4.21  -4.30c
iter:  61 18:39:44  -327.228884c -4.23  -4.41c
iter:  62 18:39:51  -327.228894c -4.39  -4.47c
iter:  63 18:39:58  -327.228901c -4.46  -4.43c
iter:  64 18:40:06  -327.228915c -4.59  -4.36c
Writing to output.gpw (mode='')

iter:  65 18:40:13  -327.228921c -4.65  -4.60c
iter:  66 18:40:20  -327.228927c -4.50  -4.62c
iter:  67 18:40:27  -327.228933c -4.42  -4.60c
iter:  68 18:40:35  -327.228939c -4.72  -4.56c
iter:  69 18:40:42  -327.228942c -4.79  -4.59c
Writing to output.gpw (mode='')

iter:  70 18:40:49  -327.228945c -4.74  -4.51c
iter:  71 18:40:57  -327.228946c -5.02  -4.51c
iter:  72 18:41:04  -327.228949c -4.87  -4.45c
iter:  73 18:41:11  -327.228953c -5.09  -4.45c
iter:  74 18:41:18  -327.228954c -5.13  -4.51c
Writing to output.gpw (mode='')

iter:  75 18:41:26  -327.228956c -5.16  -4.49c
iter:  76 18:41:33  -327.228964c -5.07  -4.46c
iter:  77 18:41:40  -327.228965c -5.12  -4.56c
iter:  78 18:41:47  -327.228966c -5.17  -4.55c
iter:  79 18:41:55  -327.228966c -5.43  -4.56c
Writing to output.gpw (mode='')

iter:  80 18:42:02  -327.228961c -5.45  -4.54c
iter:  81 18:42:09  -327.228965c -5.54  -4.31c
iter:  82 18:42:16  -327.228968c -5.49  -4.39c
iter:  83 18:42:23  -327.228968c -5.55  -4.58c
iter:  84 18:42:31  -327.228968c -5.55  -4.67c
Writing to output.gpw (mode='')

iter:  85 18:42:38  -327.228965c -5.52  -4.76c
iter:  86 18:42:45  -327.228965c -5.59  -4.93c
iter:  87 18:42:52  -327.228966c -5.74  -5.00c
iter:  88 18:43:00  -327.228966c -5.91  -5.04c
iter:  89 18:43:07  -327.228967c -5.85  -5.08c
Writing to output.gpw (mode='')

iter:  90 18:43:14  -327.228967c -6.05  -5.13c
iter:  91 18:43:21  -327.228967c -6.24  -5.34c
iter:  92 18:43:29  -327.228967c -6.21  -5.39c
iter:  93 18:43:36  -327.228967c -6.13  -5.42c
iter:  94 18:43:43  -327.228967c -6.37  -5.46c
Writing to output.gpw (mode='')

iter:  95 18:43:50  -327.228968c -6.43  -5.47c
iter:  96 18:43:58  -327.228968c -6.53  -5.56c
iter:  97 18:44:05  -327.228968c -6.46  -5.59c
iter:  98 18:44:12  -327.228968c -6.55  -5.73c
iter:  99 18:44:19  -327.228968c -6.63  -5.78c
Writing to output.gpw (mode='')

iter: 100 18:44:33  -327.228968c -6.63  -5.89c
iter: 101 18:44:40  -327.228968c -6.56  -5.88c
iter: 102 18:44:47  -327.228968c -6.63  -5.91c
iter: 103 18:44:54  -327.228968c -6.71  -5.92c
iter: 104 18:45:02  -327.228968c -6.82  -5.94c
Writing to output.gpw (mode='')

iter: 105 18:45:09  -327.228968c -6.81  -5.91c
iter: 106 18:45:16  -327.228968c -6.80  -5.83c
iter: 107 18:45:23  -327.228968c -6.91  -5.78c
iter: 108 18:45:31  -327.228968c -7.04  -5.76c
iter: 109 18:45:38  -327.228968c -7.14  -5.64c
Writing to output.gpw (mode='')

iter: 110 18:45:45  -327.228968c -7.25  -5.76c
iter: 111 18:45:52  -327.228968c -7.08  -5.73c
iter: 112 18:46:00  -327.228968c -7.26  -5.61c
iter: 113 18:46:07  -327.228968c -7.35  -5.72c
iter: 114 18:46:14  -327.228968c -7.32  -5.65c
Writing to output.gpw (mode='')

iter: 115 18:46:21  -327.228968c -7.26  -5.70c
iter: 116 18:46:29  -327.228968c -7.43c -5.85c

Converged after 116 iterations.

Dipole moment: (-26.301083, -5.681092, 0.577853) |e|*Ang

Energy contributions relative to reference atoms: (reference = -15487.462483)

Kinetic:       +207.431415
Potential:     -190.104311
External:        +0.000000
XC:            -345.263585
Entropy (-ST):   -0.153937
Local:           +0.784482
--------------------------
Free energy:   -327.305937
Extrapolated:  -327.228968

Dipole-layer corrected work functions: 3.372090, 2.261258 eV

Showing only first 2 kpts
 Kpt  Band  Eigenvalues  Occupancy
  0    34     -3.07017    1.98751
  0    35     -2.96448    1.90111
  0    36     -2.68965    0.14615
  0    37     -2.57723    0.01651

  1    34     -2.86103    1.41656
  1    35     -2.83534    1.18451
  1    36     -2.75679    0.46381
  1    37     -2.73694    0.33747


Fermi level: -2.81667

Gap: 0.023 eV
Transition (v -> c):
  (s=0, k=1, n=35, [0.12, -0.12, 0.00]) -> (s=0, k=7, n=36, [0.38, 0.38, 0.00])
Writing to output.gpw (mode='')


Forces in eV/Ang:
  0 Li    0.02030   -0.00453   -0.27608
  1 Li   -0.00198    0.00210   -0.27077
  2 Li   -0.01815   -0.00230   -0.27441
  3 Li   -0.00124    0.01546   -0.27295
  4 Li    0.00134   -0.00863   -0.26316
  5 Li   -0.00082    0.01655   -0.27439
  6 Li   -0.00669   -0.00924   -0.26697
  7 Li   -0.00015    0.00486   -0.27825
  8 Li    0.00727   -0.01318   -0.26330
  9 Li   -0.00059   -0.00445    0.28647
 10 Li    0.00847   -0.00034    0.26172
 11 Li   -0.00929   -0.00078    0.26701
 12 Li    0.00039   -0.00364    0.33014
 13 Li    0.01492   -0.00270    0.25827
 14 Li   -0.01400    0.00249    0.25957
 15 Li   -0.00113    0.00512    0.24682
 16 Li   -0.00208    0.00555    0.26118
 17 Li    0.00383    0.00237    0.25135
 18 Li    0.03088   -0.00925   -0.08634
 19 Li    0.00183    0.00738    0.07064
 20 Li   -0.03034   -0.01095   -0.09673
 21 Li    0.00610   -0.01018    0.00219
 22 Li   -0.00179    0.00754    0.05109
 23 Li   -0.00466   -0.00640    0.00549
 24 Li   -0.01594    0.01936    0.06879
 25 Li    0.00562   -0.01800    0.00608
 26 Li    0.01098    0.01835    0.06563
 27 Li    0.00743   -0.04322    0.14683
 28 Li    0.06870   -0.05261   -0.04182
 29 Li   -0.07252   -0.05566   -0.04509
 30 Li    0.01116    2.09952   -4.49608
 31 Li    0.09188    0.02803   -0.04686
 32 Li   -0.09512    0.04111   -0.04953
 33 Li    0.00063    0.04816   -0.03262
 34 Li   -0.00844    0.01178   -0.01610
 35 Li    0.00745    0.00478   -0.02484
 36 O     0.87498   -6.93708   13.24362
 37 C    -0.00075   -0.18433   -0.02435
 38 C    -0.39959    0.97320    1.66142
 39 C    -0.02098    0.15863   -0.02135
 40 H     0.02702   -0.02985    0.02903
 41 H    -0.05925   -0.00252    0.01914
 42 H     0.02743    0.01780   -0.00801
 43 H    -0.00755   -0.03145   -0.19203
 44 H    -0.00839   -0.00269   -0.00517
 45 H     0.00975   -0.04843   -0.03770
 46 H     0.00530   -0.02166   -0.01193
 47 H     0.56826   -0.70733    1.10359
 48 N    -0.96125   -3.28388   -7.13021
 49 N    -0.04930    7.95201   -4.06700

System changes: positions 

Initializing position-dependent things.

Density initialized from wave functions
       .-----------------------.  
      /|                       |  
     / |                       |  
    /  |                       |  
   /   |                       |  
  /    |                       |  
 *     |                       |  
 |     |                       |  
 |     |                       |  
 |   H |                H H    |  
 |     |                  C    |  
 |     |                       |  
 |C HH |               H H     |  
 |C    Li      Li      Li      |  
 |     |                       |  
 |O HLi|     Li      Li        |  
 |     |                  NN   |  
 | Li  |  LLi     LLi     Li   |  
 |     |                       |  
 |     |Li      Li      Li     |  
 |   Li|     Li      Li        |  
 |    Li  Li  Li  Li  Li  Li   |  
 | Li  |   Li      Li          |  
 |     |Li      Li      Li     |  
 Li    | Li      Li            |  
 |    Li      Li      Li       |  
 |     |                       |  
 |     |                       |  
 |     |                       |  
 |     |                       |  
 |     |                       |  
 |     |                       |  
 |     .-----------------------.  
 |    /                       /   
 |   /                       /    
 |  /                       /     
 | /                       /      
 |/                       /       
 *-----------------------*        

Positions:
   0 Li     1.617037    1.617037   10.000000    ( 0.0000,  0.0000,  0.0000)
   1 Li     4.851111    1.617037   10.000000    ( 0.0000,  0.0000,  0.0000)
   2 Li     8.085185    1.617037   10.000000    ( 0.0000,  0.0000,  0.0000)
   3 Li     1.617037    4.851111   10.000000    ( 0.0000,  0.0000,  0.0000)
   4 Li     4.851111    4.851111   10.000000    ( 0.0000,  0.0000,  0.0000)
   5 Li     8.085185    4.851111   10.000000    ( 0.0000,  0.0000,  0.0000)
   6 Li     1.617037    8.085185   10.000000    ( 0.0000,  0.0000,  0.0000)
   7 Li     4.851111    8.085185   10.000000    ( 0.0000,  0.0000,  0.0000)
   8 Li     8.085185    8.085185   10.000000    ( 0.0000,  0.0000,  0.0000)
   9 Li     0.000000    0.000000   11.617037    ( 0.0000,  0.0000,  0.0000)
  10 Li     3.234074    0.000000   11.617037    ( 0.0000,  0.0000,  0.0000)
  11 Li     6.468148    0.000000   11.617037    ( 0.0000,  0.0000,  0.0000)
  12 Li     0.000000    3.234074   11.617037    ( 0.0000,  0.0000,  0.0000)
  13 Li     3.234074    3.234074   11.617037    ( 0.0000,  0.0000,  0.0000)
  14 Li     6.468148    3.234074   11.617037    ( 0.0000,  0.0000,  0.0000)
  15 Li     0.000000    6.468148   11.617037    ( 0.0000,  0.0000,  0.0000)
  16 Li     3.234074    6.468148   11.617037    ( 0.0000,  0.0000,  0.0000)
  17 Li     6.468148    6.468148   11.617037    ( 0.0000,  0.0000,  0.0000)
  18 Li     1.617121    1.617013   13.469497    ( 0.0000,  0.0000,  0.0000)
  19 Li     4.851116    1.617058   13.469918    ( 0.0000,  0.0000,  0.0000)
  20 Li     8.085103    1.617009   13.469470    ( 0.0000,  0.0000,  0.0000)
  21 Li     1.617055    4.851084   13.469735    ( 0.0000,  0.0000,  0.0000)
  22 Li     4.851106    4.851131   13.469867    ( 0.0000,  0.0000,  0.0000)
  23 Li     8.085171    4.851094   13.469744    ( 0.0000,  0.0000,  0.0000)
  24 Li     1.616996    8.085236   13.469912    ( 0.0000,  0.0000,  0.0000)
  25 Li     4.851126    8.085135   13.469746    ( 0.0000,  0.0000,  0.0000)
  26 Li     8.085213    8.085233   13.469903    ( 0.0000,  0.0000,  0.0000)
  27 Li     0.000020   -0.000115   15.446332    ( 0.0000,  0.0000,  0.0000)
  28 Li     3.234257   -0.000141   15.445827    ( 0.0000,  0.0000,  0.0000)
  29 Li     6.467955   -0.000149   15.445818    ( 0.0000,  0.0000,  0.0000)
  30 Li     0.000030    3.239681   15.433930    ( 0.0000,  0.0000,  0.0000)
  31 Li     3.234322    3.234151   15.445813    ( 0.0000,  0.0000,  0.0000)
  32 Li     6.467891    3.234186   15.445806    ( 0.0000,  0.0000,  0.0000)
  33 Li     0.000002    6.468277   15.445852    ( 0.0000,  0.0000,  0.0000)
  34 Li     3.234054    6.468177   15.445895    ( 0.0000,  0.0000,  0.0000)
  35 Li     6.468165    6.468158   15.445872    ( 0.0000,  0.0000,  0.0000)
  36 O      0.002337    1.598508   18.481312    ( 0.0000,  0.0000,  0.0000)
  37 C      0.000128    1.228924   20.880123    ( 0.0000,  0.0000,  0.0000)
  38 C      0.009615    2.242425   19.742437    ( 0.0000,  0.0000,  0.0000)
  39 C     -0.006288    1.892253   22.260466    ( 0.0000,  0.0000,  0.0000)
  40 H     -0.877099    0.586487   20.761653    ( 0.0000,  0.0000,  0.0000)
  41 H      0.885651    0.587651   20.786325    ( 0.0000,  0.0000,  0.0000)
  42 H     -0.889135    2.859817   19.761786    ( 0.0000,  0.0000,  0.0000)
  43 H      0.878437    2.906645   19.831069    ( 0.0000,  0.0000,  0.0000)
  44 H     -0.891932    2.517902   22.394046    ( 0.0000,  0.0000,  0.0000)
  45 H     -0.007011    1.146925   23.057704    ( 0.0000,  0.0000,  0.0000)
  46 H      0.872044    2.527287   22.402041    ( 0.0000,  0.0000,  0.0000)
  47 H      0.772829    1.037590   18.400125    ( 0.0000,  0.0000,  0.0000)
  48 N     -0.002567    1.608229   16.926895    ( 0.0000,  0.0000,  0.0000)
  49 N     -0.000132    2.734861   16.935077    ( 0.0000,  0.0000,  0.0000)

Unit cell:
           periodic     x           y           z      points  spacing
  1. axis:    yes    9.702222    0.000000    0.000000    60     0.1617
  2. axis:    yes    0.000000    9.702222    0.000000    60     0.1617
  3. axis:    no     0.000000    0.000000   26.351111   164     0.1607

  Lengths:   9.702222   9.702222  26.351111
  Angles:   90.000000  90.000000  90.000000

Effective grid spacing dv^(1/3) = 0.1614

     iter     time        total  log10-change:
                         energy  eigst   dens
iter:   1 18:46:37  -328.438408  -0.58
iter:   2 18:46:45  -328.316035  -1.03  -1.53
iter:   3 18:46:52  -328.226126  -1.03  -1.53
iter:   4 18:46:59  -328.169561  -1.62  -1.74
Writing to output.gpw (mode='')

iter:   5 18:47:07  -328.159524  -1.48  -2.12
iter:   6 18:47:14  -328.158664c -1.45  -2.25
iter:   7 18:47:22  -328.155283c -2.24  -2.33
iter:   8 18:47:29  -328.154986c -2.42  -2.47
iter:   9 18:47:36  -328.154533c -2.70  -2.51
Writing to output.gpw (mode='')

iter:  10 18:47:44  -328.154094c -3.01  -2.72
iter:  11 18:47:51  -328.154232c -2.90  -2.85
iter:  12 18:47:58  -328.154172c -3.40  -3.08
iter:  13 18:48:06  -328.154237c -3.52  -3.16
iter:  14 18:48:13  -328.154269c -3.41  -3.26
Writing to output.gpw (mode='')

iter:  15 18:48:21  -328.154285c -3.92  -3.27
iter:  16 18:48:28  -328.154326c -3.97  -3.52
iter:  17 18:48:35  -328.154312c -4.25  -3.60
iter:  18 18:48:43  -328.154327c -4.11  -3.65
iter:  19 18:48:50  -328.154338c -4.25  -3.82
Writing to output.gpw (mode='')

iter:  20 18:48:57  -328.154340c -4.56  -3.84
iter:  21 18:49:05  -328.154336c -4.65  -3.93
iter:  22 18:49:12  -328.154339c -4.99  -4.04c
iter:  23 18:49:19  -328.154338c -4.80  -4.09c
iter:  24 18:49:33  -328.154331c -5.17  -4.26c
Writing to output.gpw (mode='')

iter:  25 18:49:40  -328.154338c -5.22  -4.36c
iter:  26 18:49:47  -328.154336c -5.43  -4.37c
iter:  27 18:49:54  -328.154339c -5.38  -4.47c
iter:  28 18:50:02  -328.154338c -5.50  -4.57c
iter:  29 18:50:09  -328.154339c -5.52  -4.63c
Writing to output.gpw (mode='')

iter:  30 18:50:16  -328.154339c -5.75  -4.66c
iter:  31 18:50:24  -328.154338c -5.93  -4.69c
iter:  32 18:50:31  -328.154338c -5.86  -4.74c
iter:  33 18:50:38  -328.154339c -6.13  -4.82c
iter:  34 18:50:46  -328.154338c -6.13  -4.97c
Writing to output.gpw (mode='')

iter:  35 18:50:53  -328.154337c -6.19  -5.00c
iter:  36 18:51:00  -328.154338c -6.36  -5.05c
iter:  37 18:51:08  -328.154338c -6.37  -4.95c
iter:  38 18:51:15  -328.154338c -6.49  -5.26c
iter:  39 18:51:22  -328.154338c -6.44  -5.26c
Writing to output.gpw (mode='')

iter:  40 18:51:30  -328.154338c -6.61  -5.42c
iter:  41 18:51:37  -328.154338c -6.52  -5.39c
iter:  42 18:51:46  -328.154339c -6.71  -5.32c
iter:  43 18:51:53  -328.154338c -6.87  -5.23c
iter:  44 18:52:01  -328.154339c -7.03  -5.27c
Writing to output.gpw (mode='')

iter:  45 18:52:08  -328.154338c -7.07  -5.16c
iter:  46 18:52:15  -328.154338c -6.92  -5.23c
iter:  47 18:52:23  -328.154338c -7.10  -5.23c
iter:  48 18:52:30  -328.154337c -7.05  -5.26c
iter:  49 18:52:37  -328.154337c -7.09  -5.43c
Writing to output.gpw (mode='')

iter:  50 18:52:45  -328.154337c -7.34  -5.57c
iter:  51 18:52:52  -328.154337c -7.53c -5.73c

Converged after 51 iterations.

Dipole moment: (-26.202628, -5.572052, 0.524545) |e|*Ang

Energy contributions relative to reference atoms: (reference = -15487.462483)

Kinetic:       +201.180274
Potential:     -185.560206
External:        +0.000000
XC:            -344.488124
Entropy (-ST):   -0.154364
Local:           +0.790902
--------------------------
Free energy:   -328.231519
Extrapolated:  -328.154337

Dipole-layer corrected work functions: 3.376212, 2.367856 eV

Showing only first 2 kpts
 Kpt  Band  Eigenvalues  Occupancy
  0    34     -3.12520    1.98743
  0    35     -3.01825    1.89808
  0    36     -2.75919    0.18951
  0    37     -2.63170    0.01622

  1    34     -2.92662    1.49738
  1    35     -2.88554    1.13423
  1    36     -2.80184    0.39441
  1    37     -2.78553    0.30117


Fermi level: -2.87203

Gap: 0.020 eV
Transition (v -> c):
  (s=0, k=1, n=35, [0.12, -0.12, 0.00]) -> (s=0, k=7, n=36, [0.38, 0.38, 0.00])
Writing to output.gpw (mode='')


Forces in eV/Ang:
  0 Li    0.02111   -0.00444   -0.27700
  1 Li   -0.00167    0.00199   -0.27130
  2 Li   -0.01919   -0.00250   -0.27559
  3 Li   -0.00115    0.01674   -0.27412
  4 Li    0.00097   -0.00918   -0.26263
  5 Li   -0.00054    0.01720   -0.27532
  6 Li   -0.00678   -0.01020   -0.26684
  7 Li   -0.00039    0.00552   -0.27869
  8 Li    0.00762   -0.01354   -0.26303
  9 Li   -0.00025   -0.00568    0.28697
 10 Li    0.00825   -0.00006    0.26183
 11 Li   -0.00972   -0.00040    0.26716
 12 Li    0.00015   -0.00246    0.33358
 13 Li    0.01449   -0.00289    0.25871
 14 Li   -0.01321    0.00160    0.26106
 15 Li   -0.00098    0.00464    0.24691
 16 Li   -0.00130    0.00530    0.25987
 17 Li    0.00292    0.00343    0.25078
 18 Li    0.02964   -0.01066   -0.09247
 19 Li    0.00118    0.00806    0.07298
 20 Li   -0.02844   -0.01348   -0.10076
 21 Li    0.00979   -0.00730   -0.00513
 22 Li   -0.00182    0.00552    0.05185
 23 Li   -0.00857   -0.00261   -0.00226
 24 Li   -0.01632    0.01833    0.06856
 25 Li    0.00583   -0.01770    0.00729
 26 Li    0.01140    0.01749    0.06387
 27 Li    0.00410   -0.01979    0.18131
 28 Li    0.07037   -0.05607   -0.04438
 29 Li   -0.06977   -0.05622   -0.04114
 30 Li    0.00979    2.03195   -4.49994
 31 Li    0.08389    0.03022   -0.04072
 32 Li   -0.08487    0.04069   -0.03980
 33 Li    0.00102    0.04646   -0.03154
 34 Li   -0.00700    0.01238   -0.01720
 35 Li    0.00560    0.00489   -0.02557
 36 O     0.35849   -5.77960   10.82803
 37 C    -0.01327   -0.03610    0.19859
 38 C    -0.18557    0.70006    1.56159
 39 C    -0.01634    0.07699    0.00974
 40 H     0.01993   -0.02597    0.01518
 41 H    -0.04697    0.00280    0.00331
 42 H    -0.04543    0.06851    0.00307
 43 H     0.01675    0.03453   -0.11865
 44 H    -0.01522    0.00301   -0.00528
 45 H     0.00861   -0.02952   -0.02783
 46 H     0.00990   -0.01630   -0.01214
 47 H     0.81973   -0.76768    1.06186
 48 N    -0.86631    0.21201   -6.35173
 49 N    -0.02734    3.54082   -2.62894

System changes: positions 

Initializing position-dependent things.

Density initialized from wave functions
       .-----------------------.  
      /|                       |  
     / |                       |  
    /  |                       |  
   /   |                       |  
  /    |                       |  
 *     |                       |  
 |     |                       |  
 |     |                       |  
 |   H |                H H    |  
 |     |                  C    |  
 |     |                       |  
 |C HH |               H H     |  
 |C    Li      Li      Li      |  
 |     |                       |  
 |O HLi|     Li      Li        |  
 |     |                  NN   |  
 | Li  |  LLi     LLi     Li   |  
 |     |                       |  
 |     |Li      Li      Li     |  
 |   Li|     Li      Li        |  
 |    Li  Li  Li  Li  Li  Li   |  
 | Li  |   Li      Li          |  
 |     |Li      Li      Li     |  
 Li    | Li      Li            |  
 |    Li      Li      Li       |  
 |     |                       |  
 |     |                       |  
 |     |                       |  
 |     |                       |  
 |     |                       |  
 |     |                       |  
 |     .-----------------------.  
 |    /                       /   
 |   /                       /    
 |  /                       /     
 | /                       /      
 |/                       /       
 *-----------------------*        

Positions:
   0 Li     1.617037    1.617037   10.000000    ( 0.0000,  0.0000,  0.0000)
   1 Li     4.851111    1.617037   10.000000    ( 0.0000,  0.0000,  0.0000)
   2 Li     8.085185    1.617037   10.000000    ( 0.0000,  0.0000,  0.0000)
   3 Li     1.617037    4.851111   10.000000    ( 0.0000,  0.0000,  0.0000)
   4 Li     4.851111    4.851111   10.000000    ( 0.0000,  0.0000,  0.0000)
   5 Li     8.085185    4.851111   10.000000    ( 0.0000,  0.0000,  0.0000)
   6 Li     1.617037    8.085185   10.000000    ( 0.0000,  0.0000,  0.0000)
   7 Li     4.851111    8.085185   10.000000    ( 0.0000,  0.0000,  0.0000)
   8 Li     8.085185    8.085185   10.000000    ( 0.0000,  0.0000,  0.0000)
   9 Li     0.000000    0.000000   11.617037    ( 0.0000,  0.0000,  0.0000)
  10 Li     3.234074    0.000000   11.617037    ( 0.0000,  0.0000,  0.0000)
  11 Li     6.468148    0.000000   11.617037    ( 0.0000,  0.0000,  0.0000)
  12 Li     0.000000    3.234074   11.617037    ( 0.0000,  0.0000,  0.0000)
  13 Li     3.234074    3.234074   11.617037    ( 0.0000,  0.0000,  0.0000)
  14 Li     6.468148    3.234074   11.617037    ( 0.0000,  0.0000,  0.0000)
  15 Li     0.000000    6.468148   11.617037    ( 0.0000,  0.0000,  0.0000)
  16 Li     3.234074    6.468148   11.617037    ( 0.0000,  0.0000,  0.0000)
  17 Li     6.468148    6.468148   11.617037    ( 0.0000,  0.0000,  0.0000)
  18 Li     1.617233    1.616967   13.469117    ( 0.0000,  0.0000,  0.0000)
  19 Li     4.851119    1.617092   13.470211    ( 0.0000,  0.0000,  0.0000)
  20 Li     8.084997    1.616948   13.469063    ( 0.0000,  0.0000,  0.0000)
  21 Li     1.617104    4.851064   13.469693    ( 0.0000,  0.0000,  0.0000)
  22 Li     4.851099    4.851147   13.470072    ( 0.0000,  0.0000,  0.0000)
  23 Li     8.085126    4.851095   13.469712    ( 0.0000,  0.0000,  0.0000)
  24 Li     1.616930    8.085304   13.470179    ( 0.0000,  0.0000,  0.0000)
  25 Li     4.851149    8.085067   13.469778    ( 0.0000,  0.0000,  0.0000)
  26 Li     8.085259    8.085299   13.470148    ( 0.0000,  0.0000,  0.0000)
  27 Li     0.000026   -0.000122   15.447145    ( 0.0000,  0.0000,  0.0000)
  28 Li     3.234538   -0.000370   15.445646    ( 0.0000,  0.0000,  0.0000)
  29 Li     6.467690   -0.000370   15.445669    ( 0.0000,  0.0000,  0.0000)
  30 Li     0.000064    3.247433   15.416301    ( 0.0000,  0.0000,  0.0000)
  31 Li     3.234626    3.234276   15.445672    ( 0.0000,  0.0000,  0.0000)
  32 Li     6.467590    3.234344   15.445679    ( 0.0000,  0.0000,  0.0000)
  33 Li     0.000007    6.468454   15.445731    ( 0.0000,  0.0000,  0.0000)
  34 Li     3.234031    6.468227   15.445824    ( 0.0000,  0.0000,  0.0000)
  35 Li     6.468182    6.468178   15.445769    ( 0.0000,  0.0000,  0.0000)
  36 O      0.002186    1.579365   18.516433    ( 0.0000,  0.0000,  0.0000)
  37 C      0.000038    1.229229   20.881572    ( 0.0000,  0.0000,  0.0000)
  38 C      0.009533    2.244344   19.748250    ( 0.0000,  0.0000,  0.0000)
  39 C     -0.006338    1.892308   22.260598    ( 0.0000,  0.0000,  0.0000)
  40 H     -0.877042    0.586397   20.761671    ( 0.0000,  0.0000,  0.0000)
  41 H      0.885504    0.587678   20.786290    ( 0.0000,  0.0000,  0.0000)
  42 H     -0.889533    2.860237   19.761831    ( 0.0000,  0.0000,  0.0000)
  43 H      0.878575    2.906978   19.830825    ( 0.0000,  0.0000,  0.0000)
  44 H     -0.892012    2.517931   22.394025    ( 0.0000,  0.0000,  0.0000)
  45 H     -0.006981    1.146866   23.057625    ( 0.0000,  0.0000,  0.0000)
  46 H      0.872096    2.527240   22.401992    ( 0.0000,  0.0000,  0.0000)
  47 H      0.776796    1.034402   18.404157    ( 0.0000,  0.0000,  0.0000)
  48 N     -0.005673    1.619583   16.904371    ( 0.0000,  0.0000,  0.0000)
  49 N     -0.000173    2.735444   16.929113    ( 0.0000,  0.0000,  0.0000)

Unit cell:
           periodic     x           y           z      points  spacing
  1. axis:    yes    9.702222    0.000000    0.000000    60     0.1617
  2. axis:    yes    0.000000    9.702222    0.000000    60     0.1617
  3. axis:    no     0.000000    0.000000   26.351111   164     0.1607

  Lengths:   9.702222   9.702222  26.351111
  Angles:   90.000000  90.000000  90.000000

Effective grid spacing dv^(1/3) = 0.1614

     iter     time        total  log10-change:
                         energy  eigst   dens
iter:   1 18:53:01  -329.024243  -0.84
iter:   2 18:53:08  -328.936583  -0.93  -1.61
iter:   3 18:53:16  -328.898649  -1.67  -1.72
iter:   4 18:53:23  -328.884030  -1.21  -2.11
Writing to output.gpw (mode='')

iter:   5 18:53:30  -328.891772c -1.75  -2.09
iter:   6 18:53:37  -328.910905c -1.60  -2.26
iter:   7 18:53:45  -328.876810c -2.09  -2.03
iter:   8 18:53:52  -328.873211  -2.18  -2.41
iter:   9 18:53:59  -328.873574c -2.69  -2.60
Writing to output.gpw (mode='')

iter:  10 18:54:07  -328.874650c -2.52  -2.67
iter:  11 18:54:14  -328.873083c -2.71  -2.71
iter:  12 18:54:28  -328.873208c -3.03  -2.94
iter:  13 18:54:36  -328.873273c -3.51  -3.04
iter:  14 18:54:43  -328.873260c -3.23  -3.06
Writing to output.gpw (mode='')

iter:  15 18:54:51  -328.873300c -3.43  -3.19
iter:  16 18:54:58  -328.873219c -3.45  -3.28
iter:  17 18:55:05  -328.873298c -3.99  -3.32
iter:  18 18:55:12  -328.873327c -3.94  -3.41
iter:  19 18:55:20  -328.873303c -3.99  -3.56
Writing to output.gpw (mode='')

iter:  20 18:55:27  -328.873328c -4.16  -3.66
iter:  21 18:55:34  -328.873339c -4.55  -3.87
iter:  22 18:55:42  -328.873348c -4.42  -3.92
iter:  23 18:55:49  -328.873360c -4.82  -4.06c
iter:  24 18:55:56  -328.873358c -4.68  -4.10c
Writing to output.gpw (mode='')

iter:  25 18:56:04  -328.873365c -5.04  -4.18c
iter:  26 18:56:11  -328.873370c -5.01  -4.19c
iter:  27 18:56:18  -328.873379c -5.10  -4.24c
iter:  28 18:56:25  -328.873382c -5.37  -4.31c
iter:  29 18:56:33  -328.873383c -5.31  -4.37c
Writing to output.gpw (mode='')

iter:  30 18:56:40  -328.873381c -5.40  -4.45c
iter:  31 18:56:47  -328.873383c -5.71  -4.52c
iter:  32 18:56:54  -328.873384c -5.68  -4.57c
iter:  33 18:57:02  -328.873388c -5.81  -4.66c
iter:  34 18:57:09  -328.873389c -6.07  -4.81c
Writing to output.gpw (mode='')

iter:  35 18:57:16  -328.873388c -6.18  -4.90c
iter:  36 18:57:24  -328.873387c -6.30  -5.03c
iter:  37 18:57:31  -328.873389c -6.38  -5.07c
iter:  38 18:57:38  -328.873389c -6.39  -5.25c
iter:  39 18:57:46  -328.873388c -6.55  -5.36c
Writing to output.gpw (mode='')

iter:  40 18:57:53  -328.873389c -6.67  -5.47c
iter:  41 18:58:00  -328.873389c -6.65  -5.53c
iter:  42 18:58:07  -328.873389c -6.79  -5.71c
iter:  43 18:58:15  -328.873390c -6.74  -5.76c
iter:  44 18:58:22  -328.873390c -6.80  -5.87c
Writing to output.gpw (mode='')

iter:  45 18:58:29  -328.873390c -6.88  -5.86c
iter:  46 18:58:37  -328.873390c -7.01  -5.87c
iter:  47 18:58:44  -328.873390c -7.13  -5.82c
iter:  48 18:58:51  -328.873390c -7.16  -5.70c
iter:  49 18:58:58  -328.873390c -7.29  -5.64c
Writing to output.gpw (mode='')

iter:  50 18:59:06  -328.873390c -7.44c -5.64c

Converged after 50 iterations.

Dipole moment: (-25.867811, -5.509577, 0.478896) |e|*Ang

Energy contributions relative to reference atoms: (reference = -15487.462483)

Kinetic:       +200.709159
Potential:     -185.691414
External:        +0.000000
XC:            -344.607847
Entropy (-ST):   -0.153214
Local:           +0.793318
--------------------------
Free energy:   -328.949997
Extrapolated:  -328.873390

Dipole-layer corrected work functions: 3.377926, 2.457323 eV

Showing only first 2 kpts
 Kpt  Band  Eigenvalues  Occupancy
  0    34     -3.17186    1.98769
  0    35     -3.06754    1.90500
  0    36     -2.80100    0.17695
  0    37     -2.67690    0.01609

  1    34     -2.97196    1.49549
  1    35     -2.93019    1.12503
  1    36     -2.84511    0.37990
  1    37     -2.83360    0.31404


Fermi level: -2.91762

Gap: 0.017 eV
Transition (v -> c):
  (s=0, k=1, n=35, [0.12, -0.12, 0.00]) -> (s=0, k=7, n=36, [0.38, 0.38, 0.00])

Forces in eV/Ang:
  0 Li    0.02124   -0.00438   -0.27705
  1 Li   -0.00143    0.00193   -0.27088
  2 Li   -0.01949   -0.00246   -0.27566
  3 Li   -0.00136    0.01727   -0.27444
  4 Li    0.00093   -0.00931   -0.26289
  5 Li   -0.00035    0.01736   -0.27565
  6 Li   -0.00678   -0.01057   -0.26655
  7 Li   -0.00051    0.00561   -0.27939
  8 Li    0.00766   -0.01377   -0.26268
  9 Li   -0.00017   -0.00607    0.28686
 10 Li    0.00900   -0.00021    0.26096
 11 Li   -0.01073   -0.00038    0.26618
 12 Li    0.00013   -0.00254    0.33640
 13 Li    0.01467   -0.00279    0.25819
 14 Li   -0.01347    0.00157    0.26068
 15 Li   -0.00087    0.00473    0.24568
 16 Li   -0.00128    0.00519    0.25923
 17 Li    0.00285    0.00371    0.25026
 18 Li    0.03090   -0.01286   -0.09365
 19 Li    0.00101    0.00820    0.07271
 20 Li   -0.02977   -0.01594   -0.10124
 21 Li    0.01234   -0.00492   -0.00728
 22 Li   -0.00195    0.00547    0.05187
 23 Li   -0.01092   -0.00003   -0.00405
 24 Li   -0.01632    0.01876    0.06915
 25 Li    0.00607   -0.01775    0.00712
 26 Li    0.01134    0.01811    0.06346
 27 Li    0.00216   -0.02821    0.16916
 28 Li    0.07034   -0.05602   -0.04639
 29 Li   -0.06830   -0.05491   -0.04088
 30 Li    0.00806    1.89382   -4.18411
 31 Li    0.08975    0.03145   -0.04567
 32 Li   -0.08914    0.04090   -0.04342
 33 Li    0.00115    0.04753   -0.03248
 34 Li   -0.00850    0.01146   -0.01709
 35 Li    0.00689    0.00347   -0.02537
 36 O    -0.00555   -4.96722    9.02086
 37 C    -0.01456    0.06932    0.41753
 38 C    -0.02856    0.42873    1.52628
 39 C    -0.01437    0.02386    0.06567
 40 H     0.02392   -0.00725    0.00650
 41 H    -0.04764    0.01952   -0.00418
 42 H    -0.07843    0.08966    0.01696
 43 H     0.05243    0.09233   -0.05396
 44 H    -0.01672    0.00443   -0.00314
 45 H     0.00730   -0.01801   -0.00564
 46 H     0.01026   -0.01494   -0.01032
 47 H     0.88708   -0.71190    1.00620
 48 N    -0.70558   -0.74008   -5.82984
 49 N    -0.01112    3.79774   -1.87620

System changes: positions 

Initializing position-dependent things.

Density initialized from wave functions
       .-----------------------.  
      /|                       |  
     / |                       |  
    /  |                       |  
   /   |                       |  
  /    |                       |  
 *     |                       |  
 |     |                       |  
 |     |                       |  
 |   H |                H H    |  
 |     |                  C    |  
 |     |                       |  
 |  HH |               H HC    |  
 |C    Li      Li      Li      |  
 |     |                       |  
 |  HLi|     Li      Li   O    |  
 |     |                   N   |  
 | Li  |  LLi     LLi     Ni   |  
 |     |                       |  
 |     |Li      Li      Li     |  
 |   Li|     Li      Li        |  
 |    Li  Li  Li  Li  Li  Li   |  
 | Li  |   Li      Li          |  
 |     |Li      Li      Li     |  
 Li    | Li      Li            |  
 |    Li      Li      Li       |  
 |     |                       |  
 |     |                       |  
 |     |                       |  
 |     |                       |  
 |     |                       |  
 |     |                       |  
 |     .-----------------------.  
 |    /                       /   
 |   /                       /    
 |  /                       /     
 | /                       /      
 |/                       /       
 *-----------------------*        

Positions:
   0 Li     1.617037    1.617037   10.000000    ( 0.0000,  0.0000,  0.0000)
   1 Li     4.851111    1.617037   10.000000    ( 0.0000,  0.0000,  0.0000)
   2 Li     8.085185    1.617037   10.000000    ( 0.0000,  0.0000,  0.0000)
   3 Li     1.617037    4.851111   10.000000    ( 0.0000,  0.0000,  0.0000)
   4 Li     4.851111    4.851111   10.000000    ( 0.0000,  0.0000,  0.0000)
   5 Li     8.085185    4.851111   10.000000    ( 0.0000,  0.0000,  0.0000)
   6 Li     1.617037    8.085185   10.000000    ( 0.0000,  0.0000,  0.0000)
   7 Li     4.851111    8.085185   10.000000    ( 0.0000,  0.0000,  0.0000)
   8 Li     8.085185    8.085185   10.000000    ( 0.0000,  0.0000,  0.0000)
   9 Li     0.000000    0.000000   11.617037    ( 0.0000,  0.0000,  0.0000)
  10 Li     3.234074    0.000000   11.617037    ( 0.0000,  0.0000,  0.0000)
  11 Li     6.468148    0.000000   11.617037    ( 0.0000,  0.0000,  0.0000)
  12 Li     0.000000    3.234074   11.617037    ( 0.0000,  0.0000,  0.0000)
  13 Li     3.234074    3.234074   11.617037    ( 0.0000,  0.0000,  0.0000)
  14 Li     6.468148    3.234074   11.617037    ( 0.0000,  0.0000,  0.0000)
  15 Li     0.000000    6.468148   11.617037    ( 0.0000,  0.0000,  0.0000)
  16 Li     3.234074    6.468148   11.617037    ( 0.0000,  0.0000,  0.0000)
  17 Li     6.468148    6.468148   11.617037    ( 0.0000,  0.0000,  0.0000)
  18 Li     1.617444    1.616856   13.468451    ( 0.0000,  0.0000,  0.0000)
  19 Li     4.851121    1.617151   13.470706    ( 0.0000,  0.0000,  0.0000)
  20 Li     8.084796    1.616809   13.468362    ( 0.0000,  0.0000,  0.0000)
  21 Li     1.617226    4.851065   13.469591    ( 0.0000,  0.0000,  0.0000)
  22 Li     4.851085    4.851173   13.470423    ( 0.0000,  0.0000,  0.0000)
  23 Li     8.085014    4.851135   13.469633    ( 0.0000,  0.0000,  0.0000)
  24 Li     1.616820    8.085428   13.470646    ( 0.0000,  0.0000,  0.0000)
  25 Li     4.851193    8.084949   13.469830    ( 0.0000,  0.0000,  0.0000)
  26 Li     8.085336    8.085421   13.470561    ( 0.0000,  0.0000,  0.0000)
  27 Li     0.000008   -0.000268   15.448342    ( 0.0000,  0.0000,  0.0000)
  28 Li     3.235016   -0.000762   15.445306    ( 0.0000,  0.0000,  0.0000)
  29 Li     6.467258   -0.000730   15.445417    ( 0.0000,  0.0000,  0.0000)
  30 Li     0.000097    3.258629   15.390914    ( 0.0000,  0.0000,  0.0000)
  31 Li     3.235237    3.234507   15.445355    ( 0.0000,  0.0000,  0.0000)
  32 Li     6.467008    3.234618   15.445406    ( 0.0000,  0.0000,  0.0000)
  33 Li     0.000017    6.468772   15.445512    ( 0.0000,  0.0000,  0.0000)
  34 Li     3.233969    6.468299   15.445706    ( 0.0000,  0.0000,  0.0000)
  35 Li     6.468230    6.468190   15.445598    ( 0.0000,  0.0000,  0.0000)
  36 O     -0.003374    1.558478   18.550091    ( 0.0000,  0.0000,  0.0000)
  37 C     -0.000130    1.231285   20.887264    ( 0.0000,  0.0000,  0.0000)
  38 C      0.011682    2.243636   19.757686    ( 0.0000,  0.0000,  0.0000)
  39 C     -0.006395    1.891632   22.261653    ( 0.0000,  0.0000,  0.0000)
  40 H     -0.876883    0.586523   20.761575    ( 0.0000,  0.0000,  0.0000)
  41 H      0.885239    0.587974   20.786124    ( 0.0000,  0.0000,  0.0000)
  42 H     -0.890684    2.861258   19.762113    ( 0.0000,  0.0000,  0.0000)
  43 H      0.879340    2.908396   19.831357    ( 0.0000,  0.0000,  0.0000)
  44 H     -0.892170    2.518000   22.394022    ( 0.0000,  0.0000,  0.0000)
  45 H     -0.006949    1.146933   23.057819    ( 0.0000,  0.0000,  0.0000)
  46 H      0.872190    2.527177   22.401938    ( 0.0000,  0.0000,  0.0000)
  47 H      0.784506    1.029812   18.410225    ( 0.0000,  0.0000,  0.0000)
  48 N     -0.008599    1.623595   16.873465    ( 0.0000,  0.0000,  0.0000)
  49 N     -0.000006    2.741687   16.929767    ( 0.0000,  0.0000,  0.0000)

Unit cell:
           periodic     x           y           z      points  spacing
  1. axis:    yes    9.702222    0.000000    0.000000    60     0.1617
  2. axis:    yes    0.000000    9.702222    0.000000    60     0.1617
  3. axis:    no     0.000000    0.000000   26.351111   164     0.1607

  Lengths:   9.702222   9.702222  26.351111
  Angles:   90.000000  90.000000  90.000000

Effective grid spacing dv^(1/3) = 0.1614

     iter     time        total  log10-change:
                         energy  eigst   dens
iter:   1 18:59:15  -329.586916  -0.84
iter:   2 18:59:28  -329.591640  -1.46  -2.21
iter:   3 18:59:36  -329.593263c -1.86  -2.37
iter:   4 18:59:43  -329.594677c -2.12  -2.41
Writing to output.gpw (mode='')

iter:   5 18:59:51  -329.590487c -2.02  -2.40
iter:   6 18:59:58  -329.589478c -2.47  -2.45
iter:   7 19:00:05  -329.588583c -2.41  -2.58
iter:   8 19:00:13  -329.588690c -2.84  -2.61
iter:   9 19:00:20  -329.589759c -2.50  -2.72
Writing to output.gpw (mode='')

iter:  10 19:00:27  -329.590117c -2.84  -2.54
iter:  11 19:00:35  -329.589197c -3.04  -2.51
iter:  12 19:00:42  -329.588707c -3.02  -2.68
iter:  13 19:00:49  -329.588837c -3.29  -2.69
iter:  14 19:00:57  -329.588472c -3.64  -2.68
Writing to output.gpw (mode='')

iter:  15 19:01:04  -329.588368c -3.50  -2.78
iter:  16 19:01:11  -329.588440c -3.71  -2.79
iter:  17 19:01:19  -329.588490c -3.82  -3.08
iter:  18 19:01:26  -329.588349c -3.90  -3.16
iter:  19 19:01:33  -329.588320c -4.28  -3.42
Writing to output.gpw (mode='')

iter:  20 19:01:41  -329.588311c -4.15  -3.52
iter:  21 19:01:48  -329.588322c -4.80  -3.67
iter:  22 19:01:55  -329.588340c -5.02  -3.76
iter:  23 19:02:03  -329.588340c -5.11  -3.83
iter:  24 19:02:10  -329.588342c -5.30  -3.94
Writing to output.gpw (mode='')

iter:  25 19:02:17  -329.588341c -5.51  -4.03c
iter:  26 19:02:25  -329.588343c -5.56  -4.19c
iter:  27 19:02:32  -329.588352c -5.58  -4.27c
iter:  28 19:02:39  -329.588353c -5.83  -4.37c
iter:  29 19:02:47  -329.588348c -5.83  -4.47c
Writing to output.gpw (mode='')

iter:  30 19:02:54  -329.588351c -6.14  -4.56c
iter:  31 19:03:01  -329.588351c -6.12  -4.67c
iter:  32 19:03:09  -329.588353c -6.36  -4.69c
iter:  33 19:03:16  -329.588353c -6.31  -4.80c
iter:  34 19:03:23  -329.588352c -6.21  -4.88c
Writing to output.gpw (mode='')

iter:  35 19:03:31  -329.588352c -6.22  -4.99c
iter:  36 19:03:38  -329.588352c -6.60  -5.08c
iter:  37 19:03:45  -329.588352c -6.79  -5.10c
iter:  38 19:03:53  -329.588353c -6.94  -5.14c
iter:  39 19:04:00  -329.588353c -7.01  -5.21c
Writing to output.gpw (mode='')

iter:  40 19:04:07  -329.588352c -6.95  -5.32c
iter:  41 19:04:15  -329.588352c -7.28  -5.36c
iter:  42 19:04:27  -329.588352c -7.23  -5.37c
iter:  43 19:04:36  -329.588352c -7.13  -5.45c
iter:  44 19:04:43  -329.588352c -7.35  -5.48c
Writing to output.gpw (mode='')

iter:  45 19:04:50  -329.588353c -7.53c -5.75c

Converged after 45 iterations.

Dipole moment: (-25.271080, -5.409872, 0.416791) |e|*Ang

Energy contributions relative to reference atoms: (reference = -15487.462483)

Kinetic:       +197.704785
Potential:     -183.777539
External:        +0.000000
XC:            -344.234068
Entropy (-ST):   -0.152354
Local:           +0.794647
--------------------------
Free energy:   -329.664529
Extrapolated:  -329.588353

Dipole-layer corrected work functions: 3.380770, 2.579555 eV

Showing only first 2 kpts
 Kpt  Band  Eigenvalues  Occupancy
  0    34     -3.23540    1.98794
  0    35     -3.13481    1.91321
  0    36     -2.86397    0.17833
  0    37     -2.73834    0.01575

  1    34     -3.03687    1.51321
  1    35     -2.99018    1.09984
  1    36     -2.90261    0.34985
  1    37     -2.89583    0.31242


Fermi level: -2.98016

Gap: 0.012 eV
Transition (v -> c):
  (s=0, k=1, n=35, [0.12, -0.12, 0.00]) -> (s=0, k=4, n=36, [0.38, -0.38, 0.00])

Forces in eV/Ang:
  0 Li    0.02130   -0.00446   -0.27752
  1 Li   -0.00125    0.00180   -0.27044
  2 Li   -0.01969   -0.00262   -0.27618
  3 Li   -0.00158    0.01810   -0.27536
  4 Li    0.00084   -0.00938   -0.26295
  5 Li   -0.00007    0.01788   -0.27653
  6 Li   -0.00690   -0.01115   -0.26606
  7 Li   -0.00063    0.00594   -0.28046
  8 Li    0.00776   -0.01417   -0.26207
  9 Li   -0.00004   -0.00710    0.28668
 10 Li    0.01010   -0.00036    0.26028
 11 Li   -0.01212   -0.00028    0.26541
 12 Li    0.00012   -0.00212    0.34088
 13 Li    0.01422   -0.00291    0.25846
 14 Li   -0.01310    0.00131    0.26130
 15 Li   -0.00075    0.00512    0.24455
 16 Li   -0.00066    0.00522    0.25808
 17 Li    0.00221    0.00417    0.24936
 18 Li    0.03104   -0.01630   -0.09530
 19 Li    0.00077    0.00851    0.07254
 20 Li   -0.02973   -0.01975   -0.10183
 21 Li    0.01702    0.00081   -0.01451
 22 Li   -0.00215    0.00431    0.05247
 23 Li   -0.01538    0.00595   -0.01092
 24 Li   -0.01601    0.01843    0.06856
 25 Li    0.00647   -0.01726    0.00731
 26 Li    0.01097    0.01786    0.06176
 27 Li   -0.00021   -0.02081    0.17126
 28 Li    0.06942   -0.05614   -0.04736
 29 Li   -0.06553   -0.05364   -0.03888
 30 Li    0.00510    1.64125   -3.63414
 31 Li    0.09151    0.03225   -0.04654
 32 Li   -0.08873    0.04045   -0.04217
 33 Li    0.00115    0.04738   -0.03222
 34 Li   -0.00916    0.01066   -0.01751
 35 Li    0.00745    0.00238   -0.02547
 36 O     0.01423   -4.47063    7.25694
 37 C     0.00405    0.03279    0.52627
 38 C    -0.07426    0.33771    1.42369
 39 C    -0.01489    0.04461    0.16541
 40 H     0.05205    0.03610    0.02108
 41 H    -0.07065    0.04853    0.02015
 42 H    -0.00303    0.04523    0.05577
 43 H     0.08391    0.10882   -0.01230
 44 H    -0.00950   -0.00060    0.00554
 45 H     0.00613   -0.02609    0.04487
 46 H     0.00357   -0.01891   -0.00078
 47 H     0.61758   -0.43846    0.96244
 48 N    -0.64029   -0.25148   -5.31579
 49 N     0.01597    2.92256   -1.42076

System changes: positions 

Initializing position-dependent things.

Density initialized from wave functions
       .-----------------------.  
      /|                       |  
     / |                       |  
    /  |                       |  
   /   |                       |  
  /    |                       |  
 *     |                       |  
 |     |                       |  
 |     |                       |  
 |   H |                H H    |  
 |     |                  C    |  
 |     |                       |  
 |  HH |               H HC    |  
 |C    |       Li      Li      Li 
 |     |                  O    |  
 |  HLi|     Li      Li        |  
 | N   |                       |  
 | Li  |  LLi     LLi     Ni   |  
 |     |                       |  
 |     |Li      Li      Li     |  
 |   Li|     Li      Li        |  
 |    Li  Li  Li  Li  Li  Li   |  
 | Li  |   Li      Li          |  
 |     |Li      Li      Li     |  
 Li    | Li      Li            |  
 |    Li      Li      Li       |  
 |     |                       |  
 |     |                       |  
 |     |                       |  
 |     |                       |  
 |     |                       |  
 |     |                       |  
 |     .-----------------------.  
 |    /                       /   
 |   /                       /    
 |  /                       /     
 | /                       /      
 |/                       /       
 *-----------------------*        

Positions:
   0 Li     1.617037    1.617037   10.000000    ( 0.0000,  0.0000,  0.0000)
   1 Li     4.851111    1.617037   10.000000    ( 0.0000,  0.0000,  0.0000)
   2 Li     8.085185    1.617037   10.000000    ( 0.0000,  0.0000,  0.0000)
   3 Li     1.617037    4.851111   10.000000    ( 0.0000,  0.0000,  0.0000)
   4 Li     4.851111    4.851111   10.000000    ( 0.0000,  0.0000,  0.0000)
   5 Li     8.085185    4.851111   10.000000    ( 0.0000,  0.0000,  0.0000)
   6 Li     1.617037    8.085185   10.000000    ( 0.0000,  0.0000,  0.0000)
   7 Li     4.851111    8.085185   10.000000    ( 0.0000,  0.0000,  0.0000)
   8 Li     8.085185    8.085185   10.000000    ( 0.0000,  0.0000,  0.0000)
   9 Li     0.000000    0.000000   11.617037    ( 0.0000,  0.0000,  0.0000)
  10 Li     3.234074    0.000000   11.617037    ( 0.0000,  0.0000,  0.0000)
  11 Li     6.468148    0.000000   11.617037    ( 0.0000,  0.0000,  0.0000)
  12 Li     0.000000    3.234074   11.617037    ( 0.0000,  0.0000,  0.0000)
  13 Li     3.234074    3.234074   11.617037    ( 0.0000,  0.0000,  0.0000)
  14 Li     6.468148    3.234074   11.617037    ( 0.0000,  0.0000,  0.0000)
  15 Li     0.000000    6.468148   11.617037    ( 0.0000,  0.0000,  0.0000)
  16 Li     3.234074    6.468148   11.617037    ( 0.0000,  0.0000,  0.0000)
  17 Li     6.468148    6.468148   11.617037    ( 0.0000,  0.0000,  0.0000)
  18 Li     1.617738    1.616658   13.467524    ( 0.0000,  0.0000,  0.0000)
  19 Li     4.851122    1.617236   13.471383    ( 0.0000,  0.0000,  0.0000)
  20 Li     8.084518    1.616569   13.467397    ( 0.0000,  0.0000,  0.0000)
  21 Li     1.617452    4.851143   13.469360    ( 0.0000,  0.0000,  0.0000)
  22 Li     4.851062    4.851196   13.470915    ( 0.0000,  0.0000,  0.0000)
  23 Li     8.084806    4.851268   13.469438    ( 0.0000,  0.0000,  0.0000)
  24 Li     1.616672    8.085596   13.471279    ( 0.0000,  0.0000,  0.0000)
  25 Li     4.851259    8.084794   13.469902    ( 0.0000,  0.0000,  0.0000)
  26 Li     8.085437    8.085586   13.471109    ( 0.0000,  0.0000,  0.0000)
  27 Li    -0.000040   -0.000387   15.449975    ( 0.0000,  0.0000,  0.0000)
  28 Li     3.235658   -0.001295   15.444834    ( 0.0000,  0.0000,  0.0000)
  29 Li     6.466695   -0.001208   15.445089    ( 0.0000,  0.0000,  0.0000)
  30 Li     0.000104    3.270620   15.363764    ( 0.0000,  0.0000,  0.0000)
  31 Li     3.236112    3.234830   15.444901    ( 0.0000,  0.0000,  0.0000)
  32 Li     6.466195    3.234988   15.445033    ( 0.0000,  0.0000,  0.0000)
  33 Li     0.000031    6.469212   15.445212    ( 0.0000,  0.0000,  0.0000)
  34 Li     3.233872    6.468387   15.445537    ( 0.0000,  0.0000,  0.0000)
  35 Li     6.468306    6.468193   15.445360    ( 0.0000,  0.0000,  0.0000)
  36 O     -0.008331    1.532213   18.579849    ( 0.0000,  0.0000,  0.0000)
  37 C     -0.000028    1.232848   20.895650    ( 0.0000,  0.0000,  0.0000)
  38 C      0.012903    2.242699   19.769437    ( 0.0000,  0.0000,  0.0000)
  39 C     -0.006500    1.891397   22.264465    ( 0.0000,  0.0000,  0.0000)
  40 H     -0.876206    0.587327   20.761738    ( 0.0000,  0.0000,  0.0000)
  41 H      0.884474    0.588784   20.786346    ( 0.0000,  0.0000,  0.0000)
  42 H     -0.890779    2.861762   19.763056    ( 0.0000,  0.0000,  0.0000)
  43 H      0.880735    2.910278   19.832379    ( 0.0000,  0.0000,  0.0000)
  44 H     -0.892249    2.517995   22.394150    ( 0.0000,  0.0000,  0.0000)
  45 H     -0.006916    1.146812   23.058808    ( 0.0000,  0.0000,  0.0000)
  46 H      0.872200    2.527009   22.402010    ( 0.0000,  0.0000,  0.0000)
  47 H      0.789982    1.027851   18.418174    ( 0.0000,  0.0000,  0.0000)
  48 N     -0.012306    1.630579   16.835475    ( 0.0000,  0.0000,  0.0000)
  49 N      0.000554    2.747076   16.932030    ( 0.0000,  0.0000,  0.0000)

Unit cell:
           periodic     x           y           z      points  spacing
  1. axis:    yes    9.702222    0.000000    0.000000    60     0.1617
  2. axis:    yes    0.000000    9.702222    0.000000    60     0.1617
  3. axis:    no     0.000000    0.000000   26.351111   164     0.1607

  Lengths:   9.702222   9.702222  26.351111
  Angles:   90.000000  90.000000  90.000000

Effective grid spacing dv^(1/3) = 0.1614

     iter     time        total  log10-change:
                         energy  eigst   dens
iter:   1 19:04:59  -330.237922  -0.81
iter:   2 19:05:06  -330.240690  -1.38  -2.07
iter:   3 19:05:14  -330.240238c -1.86  -2.20
iter:   4 19:05:21  -330.239849c -2.10  -2.40
Writing to output.gpw (mode='')

iter:   5 19:05:28  -330.237247c -1.97  -2.46
iter:   6 19:05:36  -330.237300c -2.42  -2.58
iter:   7 19:05:43  -330.237839c -2.53  -2.80
iter:   8 19:05:51  -330.237770c -2.99  -2.71
iter:   9 19:05:58  -330.237473c -3.05  -2.81
Writing to output.gpw (mode='')

iter:  10 19:06:05  -330.237628c -3.64  -3.09
iter:  11 19:06:15  -330.237635c -3.62  -3.17
iter:  12 19:06:31  -330.237583c -3.60  -3.38
iter:  13 19:06:43  -330.237530c -3.95  -3.42
iter:  14 19:06:52  -330.237592c -4.21  -3.52
Writing to output.gpw (mode='')

iter:  15 19:07:00  -330.237589c -4.43  -3.64
iter:  16 19:07:07  -330.237618c -4.49  -3.74
iter:  17 19:07:15  -330.237621c -4.58  -3.82
iter:  18 19:07:22  -330.237630c -4.97  -3.92
iter:  19 19:07:29  -330.237640c -4.79  -3.94
Writing to output.gpw (mode='')

iter:  20 19:07:39  -330.237636c -5.09  -3.97
iter:  21 19:07:47  -330.237634c -5.10  -4.11c
iter:  22 19:07:54  -330.237640c -5.14  -4.23c
iter:  23 19:08:02  -330.237643c -5.29  -4.30c
iter:  24 19:08:09  -330.237648c -5.38  -4.43c
Writing to output.gpw (mode='')

iter:  25 19:08:16  -330.237647c -5.79  -4.41c
iter:  26 19:08:24  -330.237650c -5.82  -4.50c
iter:  27 19:08:31  -330.237650c -5.67  -4.70c
iter:  28 19:08:38  -330.237651c -5.68  -4.77c
iter:  29 19:08:45  -330.237651c -5.99  -4.87c
Writing to output.gpw (mode='')

iter:  30 19:08:53  -330.237651c -6.12  -4.82c
iter:  31 19:09:00  -330.237652c -6.16  -5.01c
iter:  32 19:09:07  -330.237651c -6.10  -5.04c
iter:  33 19:09:15  -330.237652c -6.48  -5.05c
iter:  34 19:09:27  -330.237653c -6.44  -5.07c
Writing to output.gpw (mode='')

iter:  35 19:09:35  -330.237653c -6.43  -5.26c
iter:  36 19:09:43  -330.237653c -6.80  -5.50c
iter:  37 19:09:50  -330.237653c -6.50  -5.54c
iter:  38 19:09:57  -330.237653c -6.89  -5.53c
iter:  39 19:10:04  -330.237653c -6.66  -5.66c
Writing to output.gpw (mode='')

iter:  40 19:10:12  -330.237653c -6.84  -5.61c
iter:  41 19:10:19  -330.237653c -6.96  -5.52c
iter:  42 19:10:26  -330.237653c -7.22  -5.62c
iter:  43 19:10:34  -330.237653c -7.31  -5.65c
iter:  44 19:10:41  -330.237653c -7.12  -5.53c
Writing to output.gpw (mode='')

iter:  45 19:10:48  -330.237653c -7.19  -5.55c
iter:  46 19:10:55  -330.237653c -7.49c -5.55c

Converged after 46 iterations.

Dipole moment: (-24.621255, -5.312259, 0.360901) |e|*Ang

Energy contributions relative to reference atoms: (reference = -15487.462483)

Kinetic:       +195.232271
Potential:     -182.225117
External:        +0.000000
XC:            -343.963373
Entropy (-ST):   -0.151148
Local:           +0.794140
--------------------------
Free energy:   -330.313227
Extrapolated:  -330.237653

Dipole-layer corrected work functions: 3.383251, 2.689476 eV

Showing only first 2 kpts
 Kpt  Band  Eigenvalues  Occupancy
  0    34     -3.29281    1.98822
  0    35     -3.19758    1.92348
  0    36     -2.91756    0.17002
  0    37     -2.79390    0.01555

  1    34     -3.09389    1.51922
  1    35     -3.04467    1.08287
  1    36     -2.95703    0.33971
  1    37     -2.94963    0.30001


Fermi level: -3.03636

No gap
Writing to output.gpw (mode='')


Forces in eV/Ang:
  0 Li    0.02119   -0.00452   -0.27794
  1 Li   -0.00103    0.00165   -0.26980
  2 Li   -0.01974   -0.00279   -0.27663
  3 Li   -0.00200    0.01903   -0.27643
  4 Li    0.00075   -0.00949   -0.26325
  5 Li    0.00039    0.01853   -0.27748
  6 Li   -0.00718   -0.01188   -0.26553
  7 Li   -0.00076    0.00628   -0.28175
  8 Li    0.00793   -0.01470   -0.26144
  9 Li    0.00011   -0.00827    0.28664
 10 Li    0.01155   -0.00061    0.25965
 11 Li   -0.01384   -0.00030    0.26458
 12 Li    0.00009   -0.00180    0.34559
 13 Li    0.01388   -0.00303    0.25887
 14 Li   -0.01296    0.00106    0.26210
 15 Li   -0.00061    0.00567    0.24298
 16 Li    0.00007    0.00534    0.25694
 17 Li    0.00150    0.00467    0.24840
 18 Li    0.03074   -0.02001   -0.09582
 19 Li    0.00059    0.00876    0.07188
 20 Li   -0.02922   -0.02381   -0.10116
 21 Li    0.02214    0.00750   -0.02238
 22 Li   -0.00227    0.00334    0.05293
 23 Li   -0.02025    0.01291   -0.01847
 24 Li   -0.01560    0.01815    0.06774
 25 Li    0.00688   -0.01661    0.00736
 26 Li    0.01057    0.01751    0.05973
 27 Li   -0.00362   -0.00938    0.16873
 28 Li    0.06879   -0.05608   -0.04838
 29 Li   -0.06315   -0.05214   -0.03705
 30 Li    0.00059    1.39213   -3.10098
 31 Li    0.09426    0.03297   -0.04801
 32 Li   -0.08907    0.03976   -0.04160
 33 Li    0.00109    0.04700   -0.03137
 34 Li   -0.01026    0.00980   -0.01776
 35 Li    0.00844    0.00129   -0.02535
 36 O    -0.18173   -3.74165    5.77647
 37 C     0.00696    0.02052    0.56593
 38 C    -0.03338    0.17721    1.19410
 39 C    -0.01196    0.04515    0.25370
 40 H     0.06823    0.06481    0.05183
 41 H    -0.07322    0.06133    0.05712
 42 H     0.03061    0.01451    0.08236
 43 H     0.07032    0.07874    0.00742
 44 H    -0.01443    0.00448    0.02311
 45 H     0.00449   -0.03281    0.10848
 46 H     0.00797   -0.01255    0.01861
 47 H     0.60668   -0.35423    0.87178
 48 N    -0.48917   -0.14632   -4.74196
 49 N     0.03023    2.40373   -1.04143

System changes: positions 

Initializing position-dependent things.

Density initialized from wave functions
       .-----------------------.  
      /|                       |  
     / |                       |  
    /  |                       |  
   /   |                       |  
  /    |                       |  
 *     |                       |  
 |     |                       |  
 |     |                       |  
 |   H |                H H    |  
 |     |                  C    |  
 |     |                       |  
 |C HH |               H H     |  
 |C    |       Li      Li      Li 
 |     |                  O    |  
 |  HLi|     Li      Li        |  
 | N   |                       |  
 | Li  |  LLi     LLi     Ni   |  
 |     |                       |  
 |     |Li      Li      Li     |  
 |   Li|     Li      Li        |  
 |    Li  Li  Li  Li  Li  Li   |  
 | Li  |   Li      Li          |  
 |     |Li      Li      Li     |  
 Li    | Li      Li            |  
 |    Li      Li      Li       |  
 |     |                       |  
 |     |                       |  
 |     |                       |  
 |     |                       |  
 |     |                       |  
 |     |                       |  
 |     .-----------------------.  
 |    /                       /   
 |   /                       /    
 |  /                       /     
 | /                       /      
 |/                       /       
 *-----------------------*        

Positions:
   0 Li     1.617037    1.617037   10.000000    ( 0.0000,  0.0000,  0.0000)
   1 Li     4.851111    1.617037   10.000000    ( 0.0000,  0.0000,  0.0000)
   2 Li     8.085185    1.617037   10.000000    ( 0.0000,  0.0000,  0.0000)
   3 Li     1.617037    4.851111   10.000000    ( 0.0000,  0.0000,  0.0000)
   4 Li     4.851111    4.851111   10.000000    ( 0.0000,  0.0000,  0.0000)
   5 Li     8.085185    4.851111   10.000000    ( 0.0000,  0.0000,  0.0000)
   6 Li     1.617037    8.085185   10.000000    ( 0.0000,  0.0000,  0.0000)
   7 Li     4.851111    8.085185   10.000000    ( 0.0000,  0.0000,  0.0000)
   8 Li     8.085185    8.085185   10.000000    ( 0.0000,  0.0000,  0.0000)
   9 Li     0.000000    0.000000   11.617037    ( 0.0000,  0.0000,  0.0000)
  10 Li     3.234074    0.000000   11.617037    ( 0.0000,  0.0000,  0.0000)
  11 Li     6.468148    0.000000   11.617037    ( 0.0000,  0.0000,  0.0000)
  12 Li     0.000000    3.234074   11.617037    ( 0.0000,  0.0000,  0.0000)
  13 Li     3.234074    3.234074   11.617037    ( 0.0000,  0.0000,  0.0000)
  14 Li     6.468148    3.234074   11.617037    ( 0.0000,  0.0000,  0.0000)
  15 Li     0.000000    6.468148   11.617037    ( 0.0000,  0.0000,  0.0000)
  16 Li     3.234074    6.468148   11.617037    ( 0.0000,  0.0000,  0.0000)
  17 Li     6.468148    6.468148   11.617037    ( 0.0000,  0.0000,  0.0000)
  18 Li     1.618074    1.616385   13.466447    ( 0.0000,  0.0000,  0.0000)
  19 Li     4.851123    1.617337   13.472162    ( 0.0000,  0.0000,  0.0000)
  20 Li     8.084201    1.616246   13.466286    ( 0.0000,  0.0000,  0.0000)
  21 Li     1.617771    4.851313   13.469001    ( 0.0000,  0.0000,  0.0000)
  22 Li     4.851035    4.851214   13.471495    ( 0.0000,  0.0000,  0.0000)
  23 Li     8.084510    4.851504   13.469127    ( 0.0000,  0.0000,  0.0000)
  24 Li     1.616506    8.085789   13.472008    ( 0.0000,  0.0000,  0.0000)
  25 Li     4.851340    8.084621   13.469986    ( 0.0000,  0.0000,  0.0000)
  26 Li     8.085548    8.085774   13.471727    ( 0.0000,  0.0000,  0.0000)
  27 Li    -0.000133   -0.000378   15.451829    ( 0.0000,  0.0000,  0.0000)
  28 Li     3.236399   -0.001913   15.444278    ( 0.0000,  0.0000,  0.0000)
  29 Li     6.466059   -0.001750   15.444724    ( 0.0000,  0.0000,  0.0000)
  30 Li     0.000056    3.281885   15.338038    ( 0.0000,  0.0000,  0.0000)
  31 Li     3.237168    3.235211   15.444356    ( 0.0000,  0.0000,  0.0000)
  32 Li     6.465238    3.235413   15.444600    ( 0.0000,  0.0000,  0.0000)
  33 Li     0.000044    6.469719   15.444875    ( 0.0000,  0.0000,  0.0000)
  34 Li     3.233747    6.468480   15.445339    ( 0.0000,  0.0000,  0.0000)
  35 Li     6.468408    6.468185   15.445085    ( 0.0000,  0.0000,  0.0000)
  36 O     -0.015419    1.507648   18.604252    ( 0.0000,  0.0000,  0.0000)
  37 C      0.000116    1.234073   20.904922    ( 0.0000,  0.0000,  0.0000)
  38 C      0.014318    2.240494   19.780162    ( 0.0000,  0.0000,  0.0000)
  39 C     -0.006590    1.891345   22.268680    ( 0.0000,  0.0000,  0.0000)
  40 H     -0.875230    0.588554   20.762405    ( 0.0000,  0.0000,  0.0000)
  41 H      0.883574    0.589812   20.787156    ( 0.0000,  0.0000,  0.0000)
  42 H     -0.890350    2.861853   19.764426    ( 0.0000,  0.0000,  0.0000)
  43 H      0.881963    2.911741   19.833508    ( 0.0000,  0.0000,  0.0000)
  44 H     -0.892418    2.518066   22.394540    ( 0.0000,  0.0000,  0.0000)
  45 H     -0.006894    1.146530   23.060742    ( 0.0000,  0.0000,  0.0000)
  46 H      0.872284    2.526905   22.402362    ( 0.0000,  0.0000,  0.0000)
  47 H      0.796256    1.026186   18.426404    ( 0.0000,  0.0000,  0.0000)
  48 N     -0.015073    1.637298   16.796141    ( 0.0000,  0.0000,  0.0000)
  49 N      0.001293    2.752550   16.935432    ( 0.0000,  0.0000,  0.0000)

Unit cell:
           periodic     x           y           z      points  spacing
  1. axis:    yes    9.702222    0.000000    0.000000    60     0.1617
  2. axis:    yes    0.000000    9.702222    0.000000    60     0.1617
  3. axis:    no     0.000000    0.000000   26.351111   164     0.1607

  Lengths:   9.702222   9.702222  26.351111
  Angles:   90.000000  90.000000  90.000000

Effective grid spacing dv^(1/3) = 0.1614

     iter     time        total  log10-change:
                         energy  eigst   dens
iter:   1 19:11:04  -330.754807  -0.86
iter:   2 19:11:12  -330.760035  -1.52  -2.34
iter:   3 19:11:19  -330.760886c -1.89  -2.35
iter:   4 19:11:26  -330.761116c -2.01  -2.49
Writing to output.gpw (mode='')

iter:   5 19:11:34  -330.759181c -2.09  -2.42
iter:   6 19:11:41  -330.759303c -2.38  -2.66
iter:   7 19:11:48  -330.759289c -2.80  -2.73
iter:   8 19:11:56  -330.759689c -2.92  -2.88
iter:   9 19:12:03  -330.759458c -3.43  -2.84
Writing to output.gpw (mode='')

iter:  10 19:12:10  -330.759454c -3.34  -2.98
iter:  11 19:12:18  -330.759459c -3.80  -3.15
iter:  12 19:12:25  -330.759409c -3.75  -3.19
iter:  13 19:12:32  -330.759367c -4.06  -3.46
iter:  14 19:12:40  -330.759384c -4.39  -3.61
Writing to output.gpw (mode='')

iter:  15 19:12:47  -330.759395c -4.54  -3.64
iter:  16 19:12:54  -330.759448c -4.53  -3.66
iter:  17 19:13:02  -330.759418c -4.88  -3.77
iter:  18 19:13:09  -330.759418c -4.94  -3.99
iter:  19 19:13:16  -330.759431c -4.84  -4.04c
Writing to output.gpw (mode='')

iter:  20 19:13:24  -330.759433c -5.03  -4.06c
iter:  21 19:13:31  -330.759432c -5.23  -4.19c
iter:  22 19:13:38  -330.759433c -5.34  -4.34c
iter:  23 19:13:46  -330.759428c -5.35  -4.41c
iter:  24 19:13:53  -330.759431c -5.78  -4.59c
Writing to output.gpw (mode='')

iter:  25 19:14:01  -330.759436c -5.62  -4.64c
iter:  26 19:14:08  -330.759435c -5.82  -4.70c
iter:  27 19:14:15  -330.759435c -5.84  -4.73c
iter:  28 19:14:29  -330.759437c -5.88  -4.80c
iter:  29 19:14:37  -330.759435c -5.94  -4.91c
Writing to output.gpw (mode='')

iter:  30 19:14:45  -330.759436c -6.25  -5.06c
iter:  31 19:14:52  -330.759437c -6.16  -5.13c
iter:  32 19:14:59  -330.759437c -6.21  -5.16c
iter:  33 19:15:07  -330.759438c -6.39  -5.19c
iter:  34 19:15:14  -330.759437c -6.37  -5.32c
Writing to output.gpw (mode='')

iter:  35 19:15:21  -330.759437c -6.52  -5.35c
iter:  36 19:15:29  -330.759437c -6.68  -5.43c
iter:  37 19:15:36  -330.759438c -6.85  -5.42c
iter:  38 19:15:43  -330.759438c -6.95  -5.49c
iter:  39 19:15:51  -330.759438c -6.90  -5.45c
Writing to output.gpw (mode='')

iter:  40 19:15:58  -330.759438c -7.00  -5.48c
iter:  41 19:16:05  -330.759438c -7.03  -5.43c
iter:  42 19:16:13  -330.759438c -7.20  -5.39c
iter:  43 19:16:20  -330.759438c -7.15  -5.42c
iter:  44 19:16:27  -330.759438c -7.26  -5.54c
Writing to output.gpw (mode='')

iter:  45 19:16:35  -330.759439c -7.28  -5.53c
iter:  46 19:16:42  -330.759438c -7.36  -5.59c
iter:  47 19:16:49  -330.759438c -7.47c -5.61c

Converged after 47 iterations.

Dipole moment: (-23.901993, -5.223565, 0.309198) |e|*Ang

Energy contributions relative to reference atoms: (reference = -15487.462483)

Kinetic:       +192.691819
Potential:     -180.526085
External:        +0.000000
XC:            -343.644872
Entropy (-ST):   -0.149985
Local:           +0.794693
--------------------------
Free energy:   -330.834431
Extrapolated:  -330.759438

Dipole-layer corrected work functions: 3.385365, 2.790981 eV

Showing only first 2 kpts
 Kpt  Band  Eigenvalues  Occupancy
  0    34     -3.34579    1.98850
  0    35     -3.25624    1.93295
  0    36     -2.96602    0.15989
  0    37     -2.84632    0.01574

  1    34     -3.14597    1.52121
  1    35     -3.09527    1.07080
  1    36     -3.01073    0.35051
  1    37     -2.99547    0.27078


Fermi level: -3.08817

No gap
Writing to output.gpw (mode='')


Forces in eV/Ang:
  0 Li    0.02097   -0.00464   -0.27834
  1 Li   -0.00084    0.00140   -0.26914
  2 Li   -0.01968   -0.00297   -0.27708
  3 Li   -0.00250    0.01998   -0.27756
  4 Li    0.00066   -0.00961   -0.26362
  5 Li    0.00096    0.01931   -0.27847
  6 Li   -0.00756   -0.01271   -0.26504
  7 Li   -0.00088    0.00659   -0.28305
  8 Li    0.00811   -0.01528   -0.26092
  9 Li    0.00024   -0.00953    0.28684
 10 Li    0.01316   -0.00094    0.25922
 11 Li   -0.01561   -0.00041    0.26403
 12 Li    0.00010   -0.00156    0.35005
 13 Li    0.01356   -0.00313    0.25965
 14 Li   -0.01294    0.00087    0.26313
 15 Li   -0.00047    0.00629    0.24135
 16 Li    0.00092    0.00570    0.25592
 17 Li    0.00071    0.00505    0.24748
 18 Li    0.02982   -0.02357   -0.09564
 19 Li    0.00046    0.00900    0.07101
 20 Li   -0.02811   -0.02752   -0.09989
 21 Li    0.02719    0.01469   -0.03055
 22 Li   -0.00230    0.00255    0.05328
 23 Li   -0.02511    0.02018   -0.02662
 24 Li   -0.01515    0.01782    0.06638
 25 Li    0.00726   -0.01587    0.00734
 26 Li    0.01017    0.01688    0.05746
 27 Li   -0.00669    0.00783    0.16642
 28 Li    0.06820   -0.05597   -0.04871
 29 Li   -0.06133   -0.05084   -0.03502
 30 Li   -0.00444    1.17422   -2.65260
 31 Li    0.09564    0.03341   -0.04831
 32 Li   -0.08854    0.03889   -0.04020
 33 Li    0.00108    0.04588   -0.02961
 34 Li   -0.01128    0.00897   -0.01790
 35 Li    0.00929    0.00063   -0.02516
 36 O    -0.17511   -3.24792    4.66506
 37 C     0.01614    0.02159    0.56148
 38 C    -0.04382    0.08019    0.97901
 39 C    -0.00926    0.04642    0.31121
 40 H     0.07284    0.07948    0.08865
 41 H    -0.06779    0.06239    0.09983
 42 H     0.07134   -0.02157    0.10982
 43 H     0.05117    0.02805    0.00663
 44 H    -0.02016    0.01092    0.04558
 45 H     0.00282   -0.03949    0.17324
 46 H     0.01458   -0.00376    0.04337
 47 H     0.45626   -0.21083    0.79481
 48 N    -0.40501    0.12740   -4.27667
 49 N     0.04158    1.80908   -0.78011

System changes: positions 

Initializing position-dependent things.

Density initialized from wave functions
       .-----------------------.  
      /|                       |  
     / |                       |  
    /  |                       |  
   /   |                       |  
  /    |                       |  
 *     |                       |  
 |     |                       |  
 |     |                       |  
 |   H |                H H    |  
 |     |                  C    |  
 |     |                       |  
 |C HH |               H H     |  
 |C    |       Li      Li      Li 
 |     |                  O    |  
 |  HLi|     Li      Li        |  
 | N   |                       |  
 |     |  LLi     LLi     NLi  |  
 |     |                       |  
 |     |Li      Li      Li     |  
 |   Li|     Li      Li        |  
 |    Li  Li  Li  Li  Li  Li   |  
 | Li  |   Li      Li          |  
 |     |Li      Li      Li     |  
 Li    | Li      Li            |  
 |    Li      Li      Li       |  
 |     |                       |  
 |     |                       |  
 |     |                       |  
 |     |                       |  
 |     |                       |  
 |     |                       |  
 |     .-----------------------.  
 |    /                       /   
 |   /                       /    
 |  /                       /     
 | /                       /      
 |/                       /       
[...]

Showing only first 2 kpts
 Kpt  Band  Eigenvalues  Occupancy
  0    34     -3.44833    1.98599
  0    35     -3.38598    1.95209
  0    36     -3.06426    0.12279
  0    37     -2.98813    0.02814

  1    34     -3.24282    1.39869
  1    35     -3.19658    0.95972
  1    36     -3.15982    0.61330
  1    37     -3.10263    0.24701


Fermi level: -3.20061

No gap
Writing to output.gpw (mode='')


Forces in eV/Ang:
  0 Li    0.01079   -0.01467   -0.26560
  1 Li    0.00995   -0.00823   -0.27511
  2 Li   -0.01840   -0.00967   -0.26597
  3 Li   -0.00247    0.01777   -0.27975
  4 Li    0.00286   -0.00843   -0.26795
  5 Li   -0.00244    0.00858   -0.28182
  6 Li   -0.00535   -0.01708   -0.26442
  7 Li    0.00170   -0.00474   -0.29533
  8 Li    0.00088   -0.01188   -0.26892
  9 Li   -0.01070   -0.01358    0.21578
 10 Li    0.00396   -0.01436    0.27219
 11 Li    0.00729    0.01262    0.26667
 12 Li   -0.00588    0.01743    0.32675
 13 Li   -0.00905    0.01424    0.30395
 14 Li    0.00675    0.00670    0.27828
 15 Li   -0.00527    0.08403    0.22571
 16 Li   -0.04062    0.06316    0.27254
 17 Li    0.04965    0.04257    0.26285
 18 Li    0.01058    0.00286    0.00152
 19 Li    0.00027   -0.00282   -0.00304
 20 Li   -0.01119   -0.00301   -0.00577
 21 Li    0.01623   -0.00097    0.00611
 22 Li    0.00153    0.00393    0.01138
 23 Li   -0.01519    0.00579    0.00288
 24 Li    0.00142   -0.00201   -0.00069
 25 Li   -0.00160   -0.00078    0.00075
 26 Li   -0.00087   -0.00090   -0.00212
 27 Li   -0.00014   -0.00660   -0.01317
 28 Li   -0.01482    0.00361    0.01118
 29 Li    0.00827    0.00101    0.00514
 30 Li    0.00541   -0.02622   -0.00459
 31 Li   -0.00296   -0.00338    0.01105
 32 Li    0.00620   -0.00490    0.01086
 33 Li   -0.00050   -0.00496    0.00031
 34 Li    0.00043   -0.00251    0.00258
 35 Li    0.00071   -0.00164    0.00287
 36 O    -0.00540    0.00501    0.00748
 37 C    -0.01763    0.00643   -0.00938
 38 C    -0.01375   -0.02472   -0.00231
 39 C    -0.01401   -0.00125   -0.02988
 40 H     0.00941    0.02386    0.01312
 41 H    -0.00963    0.01865   -0.02251
 42 H     0.01853   -0.01281    0.00870
 43 H     0.01248   -0.00609    0.01473
 44 H    -0.01108    0.00468   -0.01106
 45 H     0.03054   -0.03445   -0.02491
 46 H    -0.00038   -0.01996    0.00918
 47 H     0.04069   -0.01475    0.01226
 48 N    -0.01123    0.03481    0.01129
 49 N    -0.01977   -0.04429   -0.01921

System changes: positions 

Initializing position-dependent things.

Density initialized from wave functions
       .-----------------------.  
      /|                       |  
     / |                       |  
    /  |                       |  
   /   |                       |  
  /    |                       |  
 *     |                       |  
 |     |                       |  
 |H    | H                     |  
 |   H |                H C    |  
 |     |                       |  
 |C H  |               H       |  
 |  H  |                H      |  
 |     |       Li      Li C    |  
 |     |                 O     |  
 |  NLi|     Li      Li        |  
 | N   |  Li              Li   |  
 |     |   Li     LLi      Li  |  
 |     |                       |  
 Li    |Li      Li      Li     |  
 |   Li|     Li      Li        |  
 |    Li  Li  Li  Li  Li  Li   |  
 | Li  |   Li      Li          |  
 |     |Li      Li      Li     |  
 Li    | Li      Li            |  
 |    Li      Li      Li       |  
 |     |                       |  
 |     |                       |  
 |     |                       |  
 |     |                       |  
 |     |                       |  
 |     |                       |  
 |     .-----------------------.  
 |    /                       /   
 |   /                       /    
 |  /                       /     
 | /                       /      
 |/                       /       
 *-----------------------*        

Positions:
   0 Li     1.617037    1.617037   10.000000    ( 0.0000,  0.0000,  0.0000)
   1 Li     4.851111    1.617037   10.000000    ( 0.0000,  0.0000,  0.0000)
   2 Li     8.085185    1.617037   10.000000    ( 0.0000,  0.0000,  0.0000)
   3 Li     1.617037    4.851111   10.000000    ( 0.0000,  0.0000,  0.0000)
   4 Li     4.851111    4.851111   10.000000    ( 0.0000,  0.0000,  0.0000)
   5 Li     8.085185    4.851111   10.000000    ( 0.0000,  0.0000,  0.0000)
   6 Li     1.617037    8.085185   10.000000    ( 0.0000,  0.0000,  0.0000)
   7 Li     4.851111    8.085185   10.000000    ( 0.0000,  0.0000,  0.0000)
   8 Li     8.085185    8.085185   10.000000    ( 0.0000,  0.0000,  0.0000)
   9 Li     0.000000    0.000000   11.617037    ( 0.0000,  0.0000,  0.0000)
  10 Li     3.234074    0.000000   11.617037    ( 0.0000,  0.0000,  0.0000)
  11 Li     6.468148    0.000000   11.617037    ( 0.0000,  0.0000,  0.0000)
  12 Li     0.000000    3.234074   11.617037    ( 0.0000,  0.0000,  0.0000)
  13 Li     3.234074    3.234074   11.617037    ( 0.0000,  0.0000,  0.0000)
  14 Li     6.468148    3.234074   11.617037    ( 0.0000,  0.0000,  0.0000)
  15 Li     0.000000    6.468148   11.617037    ( 0.0000,  0.0000,  0.0000)
  16 Li     3.234074    6.468148   11.617037    ( 0.0000,  0.0000,  0.0000)
  17 Li     6.468148    6.468148   11.617037    ( 0.0000,  0.0000,  0.0000)
  18 Li     1.578766    1.623196   13.450437    ( 0.0000,  0.0000,  0.0000)
  19 Li     4.850713    1.600899   13.449915    ( 0.0000,  0.0000,  0.0000)
  20 Li     8.123268    1.635051   13.493156    ( 0.0000,  0.0000,  0.0000)
  21 Li     1.585351    4.923723   13.450390    ( 0.0000,  0.0000,  0.0000)
  22 Li     4.848772    4.876340   13.437578    ( 0.0000,  0.0000,  0.0000)
  23 Li     8.099103    4.918440   13.460080    ( 0.0000,  0.0000,  0.0000)
  24 Li     1.570520    8.178298   13.545708    ( 0.0000,  0.0000,  0.0000)
  25 Li     4.873639    8.065820   13.451180    ( 0.0000,  0.0000,  0.0000)
  26 Li     8.132510    8.177775   13.548507    ( 0.0000,  0.0000,  0.0000)
  27 Li     0.017121    0.346562   15.793055    ( 0.0000,  0.0000,  0.0000)
  28 Li     3.314168   -0.037093   15.377995    ( 0.0000,  0.0000,  0.0000)
  29 Li     6.438607   -0.000210   15.422461    ( 0.0000,  0.0000,  0.0000)
  30 Li    -0.056561    3.514722   15.414419    ( 0.0000,  0.0000,  0.0000)
  31 Li     3.285290    3.260072   15.306956    ( 0.0000,  0.0000,  0.0000)
  32 Li     6.407428    3.240909   15.327251    ( 0.0000,  0.0000,  0.0000)
  33 Li     0.006698    6.652416   15.506774    ( 0.0000,  0.0000,  0.0000)
  34 Li     3.231857    6.464802   15.398911    ( 0.0000,  0.0000,  0.0000)
  35 Li     6.465291    6.450624   15.414560    ( 0.0000,  0.0000,  0.0000)
  36 O     -0.073883    0.050515   19.491975    ( 0.0000,  0.0000,  0.0000)
  37 C      0.050281    0.870311   21.835103    ( 0.0000,  0.0000,  0.0000)
  38 C     -0.056613    1.204544   20.348986    ( 0.0000,  0.0000,  0.0000)
  39 C     -0.000576    2.133404   22.702106    ( 0.0000,  0.0000,  0.0000)
  40 H     -0.763459    0.189043   22.102709    ( 0.0000,  0.0000,  0.0000)
  41 H      0.987944    0.331223   22.019173    ( 0.0000,  0.0000,  0.0000)
  42 H     -1.000394    1.719158   20.146550    ( 0.0000,  0.0000,  0.0000)
  43 H      0.752073    1.887475   20.056904    ( 0.0000,  0.0000,  0.0000)
  44 H     -0.928254    2.687556   22.534695    ( 0.0000,  0.0000,  0.0000)
  45 H      0.050468    1.888134   23.763359    ( 0.0000,  0.0000,  0.0000)
  46 H      0.832141    2.803961   22.473734    ( 0.0000,  0.0000,  0.0000)
  47 H      0.781725   -0.390443   19.562375    ( 0.0000,  0.0000,  0.0000)
  48 N      0.274320    1.963285   16.954340    ( 0.0000,  0.0000,  0.0000)
  49 N      0.416618    2.947338   17.505713    ( 0.0000,  0.0000,  0.0000)

Unit cell:
           periodic     x           y           z      points  spacing
  1. axis:    yes    9.702222    0.000000    0.000000    60     0.1617
  2. axis:    yes    0.000000    9.702222    0.000000    60     0.1617
  3. axis:    no     0.000000    0.000000   26.351111   164     0.1607

  Lengths:   9.702222   9.702222  26.351111
  Angles:   90.000000  90.000000  90.000000

Effective grid spacing dv^(1/3) = 0.1614

     iter     time        total  log10-change:
                         energy  eigst   dens
iter:   1 01:44:41  -334.172634  -2.12
iter:   2 01:44:48  -334.171127  -2.58  -2.22
iter:   3 01:44:56  -334.167911c -3.60  -2.32
iter:   4 01:45:03  -334.167310c -3.50  -2.71
Writing to output.gpw (mode='')

iter:   5 01:45:11  -334.167264c -3.56  -3.06
iter:   6 01:45:18  -334.167273c -3.40  -3.21
iter:   7 01:45:26  -334.167217c -3.55  -3.21
iter:   8 01:45:33  -334.167183c -4.43  -3.26
iter:   9 01:45:40  -334.167162c -4.70  -3.40
Writing to output.gpw (mode='')

iter:  10 01:45:48  -334.167169c -4.54  -3.54
iter:  11 01:45:55  -334.167172c -4.91  -3.64
iter:  12 01:46:03  -334.167165c -4.62  -3.60
iter:  13 01:46:10  -334.167168c -5.11  -3.57
iter:  14 01:46:17  -334.167162c -5.04  -3.54
Writing to output.gpw (mode='')

iter:  15 01:46:25  -334.167154c -5.54  -3.56
iter:  16 01:46:32  -334.167151c -5.20  -3.71
iter:  17 01:46:40  -334.167155c -6.11  -3.71
iter:  18 01:46:50  -334.167160c -5.67  -3.74
iter:  19 01:46:57  -334.167157c -5.48  -3.88
Writing to output.gpw (mode='')

iter:  20 01:47:05  -334.167156c -5.69  -3.98
iter:  21 01:47:12  -334.167163c -5.38  -4.14c
iter:  22 01:47:20  -334.167158c -6.18  -4.19c
iter:  23 01:47:27  -334.167157c -6.40  -4.44c
iter:  24 01:47:35  -334.167158c -6.61  -4.51c
Writing to output.gpw (mode='')

iter:  25 01:47:42  -334.167156c -6.62  -4.63c
iter:  26 01:47:50  -334.167156c -6.90  -4.89c
iter:  27 01:47:57  -334.167158c -7.44c -4.90c

Converged after 27 iterations.

Dipole moment: (-28.180527, -16.618033, 0.210339) |e|*Ang

Energy contributions relative to reference atoms: (reference = -15487.462483)

Kinetic:       +167.103091
Potential:     -163.171053
External:        +0.000000
XC:            -338.828612
Entropy (-ST):   -0.149780
Local:           +0.804306
--------------------------
Free energy:   -334.242048
Extrapolated:  -334.167158

Dipole-layer corrected work functions: 3.403251, 2.998907 eV

Showing only first 2 kpts
 Kpt  Band  Eigenvalues  Occupancy
  0    34     -3.44915    1.98609
  0    35     -3.38653    1.95216
  0    36     -3.06475    0.12284
  0    37     -2.98838    0.02802

  1    34     -3.24296    1.39595
  1    35     -3.19692    0.95845
  1    36     -3.16024    0.61292
  1    37     -3.10275    0.24551


Fermi level: -3.20108

No gap
Writing to output.gpw (mode='')


Forces in eV/Ang:
  0 Li    0.01098   -0.01458   -0.26564
  1 Li    0.00993   -0.00828   -0.27499
  2 Li   -0.01853   -0.00958   -0.26599
  3 Li   -0.00237    0.01772   -0.27992
  4 Li    0.00286   -0.00842   -0.26790
  5 Li   -0.00254    0.00854   -0.28209
  6 Li   -0.00528   -0.01710   -0.26444
  7 Li    0.00163   -0.00476   -0.29556
  8 Li    0.00089   -0.01196   -0.26880
  9 Li   -0.01051   -0.01346    0.21568
 10 Li    0.00428   -0.01501    0.27113
 11 Li    0.00662    0.01188    0.26547
 12 Li   -0.00605    0.01819    0.32780
 13 Li   -0.00827    0.01480    0.30273
 14 Li    0.00593    0.00739    0.27732
 15 Li   -0.00501    0.08276    0.22717
 16 Li   -0.04035    0.06332    0.27209
 17 Li    0.04912    0.04288    0.26224
 18 Li    0.00915    0.00228    0.00113
 19 Li    0.00027   -0.00288   -0.00068
 20 Li   -0.00952   -0.00268   -0.00520
 21 Li    0.01313    0.00074    0.00342
 22 Li    0.00149    0.00284    0.00992
 23 Li   -0.01215    0.00627    0.00067
 24 Li    0.00104   -0.00243   -0.00058
 25 Li   -0.00162    0.00049    0.00134
 26 Li   -0.00068   -0.00124   -0.00173
 27 Li   -0.00111   -0.01066   -0.01568
 28 Li   -0.01244    0.00266    0.01074
 29 Li    0.00666   -0.00001    0.00483
 30 Li    0.00537   -0.02629   -0.00238
 31 Li   -0.00104   -0.00344    0.01210
 32 Li    0.00474   -0.00496    0.01159
 33 Li   -0.00049   -0.00355    0.00049
 34 Li    0.00094   -0.00183    0.00399
 35 Li    0.00021   -0.00073    0.00432
 36 O     0.01001   -0.01355    0.02928
 37 C    -0.00449    0.00913   -0.02585
 38 C    -0.01101   -0.00506   -0.00935
 39 C    -0.00593   -0.01910   -0.01751
 40 H     0.00587    0.00954    0.00678
 41 H    -0.01785    0.01224   -0.01242
 42 H     0.00987   -0.01592    0.00615
 43 H     0.01384   -0.01663    0.01125
 44 H     0.00805    0.00101   -0.00517
 45 H     0.01283   -0.01531   -0.00710
 46 H    -0.00828   -0.00790   -0.00320
 47 H     0.02465   -0.00484    0.01336
 48 N    -0.01416    0.02569    0.01636
 49 N    -0.02808   -0.03381   -0.01087

Timing:                                      incl.     excl.
-------------------------------------------------------------------
Density initialized from wave functions:     7.758     7.755   0.0% |
 Symmetrize density:                         0.002     0.002   0.0% |
Forces:                                     40.321    40.321   0.2% |
Hamiltonian:                               561.546     0.014   0.0% |
 Atomic:                                     0.023     0.022   0.0% |
  XC Correction:                             0.000     0.000   0.0% |
 Calculate atomic Hamiltonians:              0.051     0.051   0.0% |
 Communicate:                                5.871     5.871   0.0% |
 Hartree integrate/restrict:                 1.857     1.857   0.0% |
 Initialize Hamiltonian:                     0.000     0.000   0.0% |
 Poisson:                                   26.764     9.892   0.0% |
  Communicate from 1D:                       2.579     2.579   0.0% |
  Communicate from 2D:                       2.562     2.562   0.0% |
  Communicate to 1D:                         1.727     1.727   0.0% |
  Communicate to 2D:                         3.004     3.004   0.0% |
  FFT 1D:                                    3.560     3.560   0.0% |
  FFT 2D:                                    3.440     3.440   0.0% |
 XC 3D grid:                               526.487    78.344   0.3% |
  VdW-DF integral:                         448.143     3.704   0.0% |
   Convolution:                             40.351    40.351   0.2% |
   FFT:                                     17.485    17.485   0.1% |
   gather:                                 162.562   162.562   0.6% |
   hmm1:                                    14.328    14.328   0.1% |
   hmm2:                                    18.896    18.896   0.1% |
   iFFT:                                    18.092    18.092   0.1% |
   potential:                              168.989     4.372   0.0% |
    collect:                                27.230    27.230   0.1% |
    p1:                                     77.849    77.849   0.3% |
    p2:                                     28.642    28.642   0.1% |
    sum:                                    30.896    30.896   0.1% |
   splines:                                  3.735     3.735   0.0% |
 vbar:                                       0.479     0.479   0.0% |
LCAO initialization:                         1.211     0.185   0.0% |
 LCAO eigensolver:                           0.293     0.000   0.0% |
  Calculate projections:                     0.000     0.000   0.0% |
  DenseAtomicCorrection:                     0.000     0.000   0.0% |
  Distribute overlap matrix:                 0.180     0.180   0.0% |
  Orbital Layouts:                           0.111     0.111   0.0% |
  Potential matrix:                          0.001     0.001   0.0% |
  Sum over cells:                            0.001     0.001   0.0% |
 LCAO to grid:                               0.624     0.624   0.0% |
 Set positions (LCAO WFS):                   0.109     0.067   0.0% |
  Basic WFS set positions:                   0.001     0.001   0.0% |
  Basis functions set positions:             0.000     0.000   0.0% |
  P tci:                                     0.000     0.000   0.0% |
  ST tci:                                    0.012     0.012   0.0% |
  mktci:                                     0.028     0.028   0.0% |
Redistribute:                                0.058     0.058   0.0% |
SCF-cycle:                               25463.955   425.095   1.6% ||
 Davidson:                                6844.519  2048.952   7.8% |--|
  Apply hamiltonian:                       426.275   426.275   1.6% ||
  Subspace diag:                          1283.976     0.391   0.0% |
   calc_h_matrix:                          638.972   197.999   0.8% |
    Apply hamiltonian:                     440.973   440.973   1.7% ||
   diagonalize:                             64.185    64.185   0.2% |
   rotate_psi:                             580.428   580.428   2.2% ||
  calc. matrices:                         2139.772  1116.050   4.3% |-|
   Apply hamiltonian:                     1023.723  1023.723   3.9% |-|
  diagonalize:                              20.272    20.272   0.1% |
  rotate_psi:                              925.272   925.272   3.5% ||
 Density:                                  129.780     0.091   0.0% |
  Atomic density matrices:                  15.685    15.685   0.1% |
  Mix:                                      54.899    54.899   0.2% |
  Multipole moments:                         6.436     6.436   0.0% |
  Pseudo density:                           52.670    52.594   0.2% |
   Symmetrize density:                       0.075     0.075   0.0% |
 Hamiltonian:                            18045.912     0.429   0.0% |
  Atomic:                                    0.838     0.829   0.0% |
   XC Correction:                            0.009     0.009   0.0% |
  Calculate atomic Hamiltonians:             1.268     1.268   0.0% |
  Communicate:                             272.591   272.591   1.0% |
  Hartree integrate/restrict:               59.699    59.699   0.2% |
  Poisson:                                 867.090   320.327   1.2% |
   Communicate from 1D:                     84.879    84.879   0.3% |
   Communicate from 2D:                     85.936    85.936   0.3% |
   Communicate to 1D:                       48.654    48.654   0.2% |
   Communicate to 2D:                      100.632   100.632   0.4% |
   FFT 1D:                                 114.742   114.742   0.4% |
   FFT 2D:                                 111.920   111.920   0.4% |
  XC 3D grid:                            16829.524  2565.467   9.8% |---|
   VdW-DF integral:                      14264.058   120.587   0.5% |
    Convolution:                          1308.704  1308.704   5.0% |-|
    FFT:                                   569.731   569.731   2.2% ||
    gather:                               5001.148  5001.148  19.1% |-------|
    hmm1:                                  464.707   464.707   1.8% ||
    hmm2:                                  615.134   615.134   2.3% ||
    iFFT:                                  586.588   586.588   2.2% ||
    potential:                            5597.429   140.529   0.5% |
     collect:                              890.397   890.397   3.4% ||
     p1:                                  2530.068  2530.068   9.7% |---|
     p2:                                   931.476   931.476   3.6% ||
     sum:                                 1104.959  1104.959   4.2% |-|
    splines:                                 0.028     0.028   0.0% |
  vbar:                                     14.471    14.471   0.1% |
 Orthonormalize:                            18.649     0.014   0.0% |
  calc_s_matrix:                             2.715     2.715   0.0% |
  inverse-cholesky:                          5.234     5.234   0.0% |
  projections:                               0.002     0.002   0.0% |
  rotate_psi_s:                             10.685    10.685   0.0% |
Set symmetry:                                0.003     0.003   0.0% |
Other:                                     101.806   101.806   0.4% |
-------------------------------------------------------------------
Total:                                             26176.657 100.0%

Memory usage: 1.13 GiB
Date: Sat Mar 11 01:47:58 2023
