
  ___ ___ ___ _ _ _  
 |   |   |_  | | | | 
 | | | | | . | | | | 
 |__ |  _|___|_____|  22.8.0
 |___|_|             

User:   vazumah@r221.ib.bridges2.psc.edu
Date:   Fri Mar 10 18:33:13 2023
Arch:   x86_64
Pid:    89936
CWD:    /jet/home/vazumah/Calcs/LiMEAS/proton_donors/propan_1_ol_z/ontop/9.702_9.702/N2_x
Python: 3.11.0
gpaw:   /jet/home/vazumah/.conda/envs/GPAW_mpich/lib/python3.11/site-packages/gpaw
_gpaw:  /jet/home/vazumah/.conda/envs/GPAW_mpich/lib/python3.11/site-packages/
        _gpaw.cpython-311-x86_64-linux-gnu.so
ase:    /jet/home/vazumah/.conda/envs/GPAW_mpich/lib/python3.11/site-packages/ase (version 3.22.1)
numpy:  /jet/home/vazumah/.conda/envs/GPAW_mpich/lib/python3.11/site-packages/numpy (version 1.24.2)
scipy:  /jet/home/vazumah/.conda/envs/GPAW_mpich/lib/python3.11/site-packages/scipy (version 1.10.1)
libxc:  5.2.3
units:  Angstrom and eV
cores: 128
OpenMP: True
OMP_NUM_THREADS: 1

Input parameters:
  h: 0.16
  kpts: {size: [4, 4, 1]}
  occupations: {name: fermi-dirac,
                width: 0.05}
  poissonsolver: {dipolelayer: xy}
  xc: BEEF-vdW

System changes: positions, numbers, cell, pbc, initial_charges, initial_magmoms 

Initialize ...

species:
  Li:
    name: Lithium
    id: 830b4218f175192f93f959cfc0aad614
    Z: 3.0
    valence: 1
    core: 2
    charge: 0.0
    file: /jet/home/vazumah/datasets/gpaw-setups-0.9.20000/Li.PBE.gz
    compensation charges: {type: gauss,
                           rc: 0.33,
                           lmax: 2}
    cutoffs: {filter: 1.91,
              core: 2.55}
    valence states:
      #              energy  rcut
      - 2s(1.00)    -2.874   1.058
      - 2p(0.00)    -1.090   1.058
      -  s          24.337   1.058
  
    # Using partial waves for Li as LCAO basis

  O:
    name: Oxygen
    id: 32ecd46bf208036f09c70b0ec9a88b78
    Z: 8.0
    valence: 6
    core: 2
    charge: 0.0
    file: /jet/home/vazumah/datasets/gpaw-setups-0.9.20000/O.PBE.gz
    compensation charges: {type: gauss,
                           rc: 0.21,
                           lmax: 2}
    cutoffs: {filter: 1.17,
              core: 0.83}
    valence states:
      #              energy  rcut
      - 2s(2.00)   -23.961   0.688
      - 2p(4.00)    -9.029   0.598
      -  s           3.251   0.688
      -  p          18.182   0.598
      -  d           0.000   0.619
  
    # Using partial waves for O as LCAO basis

  C:
    name: Carbon
    id: 4aa54d4b901d75f77cc0ea3eec22967b
    Z: 6.0
    valence: 4
    core: 2
    charge: 0.0
    file: /jet/home/vazumah/datasets/gpaw-setups-0.9.20000/C.PBE.gz
    compensation charges: {type: gauss,
                           rc: 0.20,
                           lmax: 2}
    cutoffs: {filter: 1.14,
              core: 1.14}
    valence states:
      #              energy  rcut
      - 2s(2.00)   -13.751   0.635
      - 2p(2.00)    -5.284   0.635
      -  s          13.461   0.635
      -  p          21.927   0.635
      -  d           0.000   0.635
  
    # Using partial waves for C as LCAO basis

  H:
    name: Hydrogen
    id: d65de229564ff8ea4db303e23b6d1ecf
    Z: 1.0
    valence: 1
    core: 0
    charge: 0.0
    file: /jet/home/vazumah/datasets/gpaw-setups-0.9.20000/H.PBE.gz
    compensation charges: {type: gauss,
                           rc: 0.15,
                           lmax: 2}
    cutoffs: {filter: 0.85,
              core: 0.53}
    valence states:
      #              energy  rcut
      - 1s(1.00)    -6.494   0.476
      -  s          20.717   0.476
      -  p           0.000   0.476
  
    # Using partial waves for H as LCAO basis

  N:
    name: Nitrogen
    id: f7500608b86eaa90eef8b1d9a670dc53
    Z: 7.0
    valence: 5
    core: 2
    charge: 0.0
    file: /jet/home/vazumah/datasets/gpaw-setups-0.9.20000/N.PBE.gz
    compensation charges: {type: gauss,
                           rc: 0.18,
                           lmax: 2}
    cutoffs: {filter: 1.11,
              core: 0.96}
    valence states:
      #              energy  rcut
      - 2s(2.00)   -18.583   0.603
      - 2p(3.00)    -7.089   0.529
      -  s           8.629   0.603
      -  p          20.123   0.529
      -  d           0.000   0.577
  
    # Using partial waves for N as LCAO basis

Reference energy: -15487.462483  # eV

Spin-paired calculation

Convergence criteria:
 Maximum [total energy] change in last 3 cyles: 0.0005 eV / electron
 Maximum integral of absolute [dens]ity change: 0.0001 electrons / valence electron
 Maximum integral of absolute [eigenst]ate change: 4e-08 eV^2 / valence electron
 Maximum number of scf [iter]ations: 333
 (Square brackets indicate name in SCF output, whereas a 'c' in
 the SCF output indicates the quantity has converged.)

Symmetries present (total): 1

  ( 1  0  0)
  ( 0  1  0)
  ( 0  0  1)

16 k-points: 4 x 4 x 1 Monkhorst-Pack grid
8 k-points in the irreducible part of the Brillouin zone
       k-points in crystal coordinates                weights
   0:     0.12500000   -0.37500000    0.00000000          2/16
   1:     0.12500000   -0.12500000    0.00000000          2/16
   2:     0.12500000    0.12500000    0.00000000          2/16
   3:     0.12500000    0.37500000    0.00000000          2/16
   4:     0.37500000   -0.37500000    0.00000000          2/16
   5:     0.37500000   -0.12500000    0.00000000          2/16
   6:     0.37500000    0.12500000    0.00000000          2/16
   7:     0.37500000    0.37500000    0.00000000          2/16

Wave functions: Uniform real-space grid
  Kinetic energy operator: 6*3+1=19 point O(h^6) finite-difference Laplacian
  ScaLapack parameters: grid=1x1, blocksize=None
  Wavefunction extrapolation:
    Improved wavefunction reuse through dual PAW basis 

Occupation numbers: Fermi-Dirac:
  width: 0.0500  # eV
 

Eigensolver
   Davidson(niter=2) 

Densities:
  Coarse grid: 60*60*164 grid
  Fine grid: 120*120*328 grid
  Total Charge: 0.000000 

Density mixing:
  Method: separate
  Backend: pulay
  Linear mixing parameter: 0.05
  old densities: 5
  Damping of long wavelength oscillations: 50 

Hamiltonian:
  XC and Coulomb potentials evaluated on a 120*120*328 grid
  Using the BEEF-vdW Exchange-Correlation functional
  Interpolation: tri-quintic (5. degree polynomial)
  Poisson solver: FastPoissonSolver using
    Stencil: 6*3+1=19 point O(h^6) finite-difference Laplacian
    FFT axes: [0, 1]
    FST axes: [2]

Dipole correction along z-axis 

XC parameters: BEEF-vdW with 2 nearest neighbor stencil

Memory estimate:
  Process memory now: 128.38 MiB
  Calculator: 84.83 MiB
    Density: 22.60 MiB
      Arrays: 7.22 MiB
      Localized functions: 12.63 MiB
      Mixer: 2.75 MiB
    Hamiltonian: 5.72 MiB
      Arrays: 4.72 MiB
      XC: 0.00 MiB
      Poisson: 0.00 MiB
      vbar: 1.00 MiB
    Wavefunctions: 56.51 MiB
      Arrays psit_nG: 26.37 MiB
      Eigensolver: 29.47 MiB
      Projections: 0.01 MiB
      Projectors: 0.66 MiB

Total number of cores used: 128
Parallelization over k-points: 8
Domain decomposition: 2 x 2 x 4

Number of atoms: 50
Number of atomic orbitals: 176
Number of bands in calculation: 48
Number of valence electrons: 72
Bands to converge: occupied

... initialized

Initializing position-dependent things.

Density initialized from atomic densities
Creating initial wave functions:
  48 bands from LCAO basis set

       .-----------------------.  
      /|                       |  
     / |                       |  
    /  |                       |  
   /   |                       H  
  /    |                       |  
 *     |                       |  
 |     C H                  H  |  
 |     |                       |  
 |     |                       |  
 |  H  | H             H       |  
 |     |                 C  N  N  
 |     |                       |  
 |  H  |                H      |  
 C     |                       |  
 |   Li|     Li      Li        |  
 O     |                       |  
 | Li  |  LLi     LLi     Li   |  
 |     |                       |  
 Li    |LLi     LLi     Li     |  
 |   Li|     Li      Li        |  
 |    Li  Li  Li  Li  Li  Li   |  
 | Li  |   Li      Li          |  
 |     |Li      Li      Li     |  
 Li    | Li      Li            |  
 |    Li      Li      Li       |  
 |     |                       |  
 |     |                       |  
 |     |                       |  
 |     |                       |  
 |     |                       |  
 |     |                       |  
 |     .-----------------------.  
 |    /                       /   
 |   /                       /    
 |  /                       /     
 | /                       /      
 |/                       /       
 *-----------------------*        

Positions:
   0 Li     1.617037    1.617037   10.000000    ( 0.0000,  0.0000,  0.0000)
   1 Li     4.851111    1.617037   10.000000    ( 0.0000,  0.0000,  0.0000)
   2 Li     8.085185    1.617037   10.000000    ( 0.0000,  0.0000,  0.0000)
   3 Li     1.617037    4.851111   10.000000    ( 0.0000,  0.0000,  0.0000)
   4 Li     4.851111    4.851111   10.000000    ( 0.0000,  0.0000,  0.0000)
   5 Li     8.085185    4.851111   10.000000    ( 0.0000,  0.0000,  0.0000)
   6 Li     1.617037    8.085185   10.000000    ( 0.0000,  0.0000,  0.0000)
   7 Li     4.851111    8.085185   10.000000    ( 0.0000,  0.0000,  0.0000)
   8 Li     8.085185    8.085185   10.000000    ( 0.0000,  0.0000,  0.0000)
   9 Li     0.000000    0.000000   11.617037    ( 0.0000,  0.0000,  0.0000)
  10 Li     3.234074    0.000000   11.617037    ( 0.0000,  0.0000,  0.0000)
  11 Li     6.468148    0.000000   11.617037    ( 0.0000,  0.0000,  0.0000)
  12 Li     0.000000    3.234074   11.617037    ( 0.0000,  0.0000,  0.0000)
  13 Li     3.234074    3.234074   11.617037    ( 0.0000,  0.0000,  0.0000)
  14 Li     6.468148    3.234074   11.617037    ( 0.0000,  0.0000,  0.0000)
  15 Li     0.000000    6.468148   11.617037    ( 0.0000,  0.0000,  0.0000)
  16 Li     3.234074    6.468148   11.617037    ( 0.0000,  0.0000,  0.0000)
  17 Li     6.468148    6.468148   11.617037    ( 0.0000,  0.0000,  0.0000)
  18 Li     1.617038    1.617038   13.469728    ( 0.0000,  0.0000,  0.0000)
  19 Li     4.851111    1.617038   13.469729    ( 0.0000,  0.0000,  0.0000)
  20 Li     8.085184    1.617038   13.469728    ( 0.0000,  0.0000,  0.0000)
  21 Li     1.617038    4.851111   13.469729    ( 0.0000,  0.0000,  0.0000)
  22 Li     4.851111    4.851111   13.469730    ( 0.0000,  0.0000,  0.0000)
  23 Li     8.085184    4.851111   13.469729    ( 0.0000,  0.0000,  0.0000)
  24 Li     1.617038    8.085184   13.469728    ( 0.0000,  0.0000,  0.0000)
  25 Li     4.851111    8.085184   13.469729    ( 0.0000,  0.0000,  0.0000)
  26 Li     8.085184    8.085184   13.469728    ( 0.0000,  0.0000,  0.0000)
  27 Li    -0.000000   -0.000000   15.445939    ( 0.0000,  0.0000,  0.0000)
  28 Li     3.234074    0.000000   15.445939    ( 0.0000,  0.0000,  0.0000)
  29 Li     6.468148    0.000000   15.445939    ( 0.0000,  0.0000,  0.0000)
  30 Li     0.000000    3.234074   15.445939    ( 0.0000,  0.0000,  0.0000)
  31 Li     3.234076    3.234076   15.445938    ( 0.0000,  0.0000,  0.0000)
  32 Li     6.468146    3.234076   15.445938    ( 0.0000,  0.0000,  0.0000)
  33 Li     0.000000    6.468148   15.445939    ( 0.0000,  0.0000,  0.0000)
  34 Li     3.234076    6.468146   15.445938    ( 0.0000,  0.0000,  0.0000)
  35 Li     6.468146    6.468146   15.445938    ( 0.0000,  0.0000,  0.0000)
  36 O      9.702222    9.702222   18.445939    ( 0.0000,  0.0000,  0.0000)
  37 C      9.702352    9.314601   20.880188    ( 0.0000,  0.0000,  0.0000)
  38 C      9.712905   10.325011   19.737999    ( 0.0000,  0.0000,  0.0000)
  39 C      9.695991    9.977014   22.260523    ( 0.0000,  0.0000,  0.0000)
  40 H      8.825051    8.671752   20.761575    ( 0.0000,  0.0000,  0.0000)
  41 H     10.588031    8.672843   20.786274    ( 0.0000,  0.0000,  0.0000)
  42 H      8.813013   10.944954   19.761807    ( 0.0000,  0.0000,  0.0000)
  43 H     10.580679   10.991914   19.831582    ( 0.0000,  0.0000,  0.0000)
  44 H      8.810312   10.603094   22.394060    ( 0.0000,  0.0000,  0.0000)
  45 H      9.695185    9.232239   23.057805    ( 0.0000,  0.0000,  0.0000)
  46 H     10.574252   10.612530   22.402072    ( 0.0000,  0.0000,  0.0000)
  47 H     10.473534    9.124664   18.397178    ( 0.0000,  0.0000,  0.0000)
  48 N      9.702000    9.702000   16.945939    ( 0.0000,  0.0000,  0.0000)
  49 N      8.605378    9.702000   16.945939    ( 0.0000,  0.0000,  0.0000)

Unit cell:
           periodic     x           y           z      points  spacing
  1. axis:    yes    9.702222    0.000000    0.000000    60     0.1617
  2. axis:    yes    0.000000    9.702222    0.000000    60     0.1617
  3. axis:    no     0.000000    0.000000   26.351111   164     0.1607

  Lengths:   9.702222   9.702222  26.351111
  Angles:   90.000000  90.000000  90.000000

Effective grid spacing dv^(1/3) = 0.1614

     iter     time        total  log10-change:
                         energy  eigst   dens
iter:   1 18:33:29  -672.572548
iter:   2 18:33:36    11.185359  +2.63  +0.04
iter:   3 18:33:43    64.225272  +3.27  -0.15
iter:   4 18:33:51  -178.287305  +3.36  -0.24
Writing to output.gpw (mode='')

iter:   5 18:33:58  -251.736966  +2.85  -0.27
iter:   6 18:34:06  -319.059482  +2.55  -0.48
iter:   7 18:34:13  -341.897453  +2.33  -0.50
iter:   8 18:34:26  -353.686622  +2.06  -0.49
iter:   9 18:34:33  -545.483849  +2.73  -0.49
Writing to output.gpw (mode='')

iter:  10 18:34:41  -411.160373  +1.69  -0.23
iter:  11 18:34:48  -342.721432  +1.67  -0.31
iter:  12 18:34:55  -349.505286  +1.60  -0.67
iter:  13 18:35:03  -340.283926  +1.35  -0.60
iter:  14 18:35:10  -342.641486  +0.52  -0.65
Writing to output.gpw (mode='')

iter:  15 18:35:17  -333.521473  +0.81  -0.68
iter:  16 18:35:25  -334.178788  +1.68  -0.74
iter:  17 18:35:32  -331.025226  +0.73  -0.67
iter:  18 18:35:39  -329.252801  +0.63  -0.70
iter:  19 18:35:50  -342.854765  +1.61  -0.81
Writing to output.gpw (mode='')

iter:  20 18:35:57  -328.102668  +1.08  -0.60
iter:  21 18:36:04  -327.959250  +0.30  -1.02
iter:  22 18:36:12  -327.071923  +0.10  -1.07
iter:  23 18:36:19  -327.096377  -0.11  -1.17
iter:  24 18:36:26  -327.428461  +0.09  -1.20
Writing to output.gpw (mode='')

iter:  25 18:36:34  -327.185903  +0.05  -1.18
iter:  26 18:36:41  -326.731564  -0.39  -1.25
iter:  27 18:36:48  -326.693013  -0.81  -1.48
iter:  28 18:36:55  -326.685646  -0.58  -1.55
iter:  29 18:37:03  -326.718230c -0.98  -1.72
Writing to output.gpw (mode='')

iter:  30 18:37:10  -326.712568c -1.22  -1.81
iter:  31 18:37:17  -326.712908c -1.14  -1.86
iter:  32 18:37:25  -326.707845c -1.56  -2.01
iter:  33 18:37:32  -326.709475c -1.66  -2.21
iter:  34 18:37:39  -326.711509c -1.87  -2.24
Writing to output.gpw (mode='')

iter:  35 18:37:46  -326.715305c -1.79  -2.29
iter:  36 18:37:54  -326.716016c -1.80  -2.46
iter:  37 18:38:01  -326.717036c -2.01  -2.57
iter:  38 18:38:08  -326.718581c -2.12  -2.62
iter:  39 18:38:16  -326.719250c -2.30  -2.72
Writing to output.gpw (mode='')

iter:  40 18:38:23  -326.720227c -2.40  -2.78
iter:  41 18:38:30  -326.720792c -2.49  -2.86
iter:  42 18:38:37  -326.721409c -2.42  -2.94
iter:  43 18:38:45  -326.721845c -2.70  -3.00
iter:  44 18:38:52  -326.722265c -2.78  -3.08
Writing to output.gpw (mode='')

iter:  45 18:38:59  -326.722550c -2.73  -3.20
iter:  46 18:39:06  -326.722799c -2.87  -3.27
iter:  47 18:39:14  -326.723015c -3.01  -3.37
iter:  48 18:39:27  -326.723169c -3.15  -3.50
iter:  49 18:39:34  -326.723309c -3.17  -3.51
Writing to output.gpw (mode='')

iter:  50 18:39:41  -326.723472c -3.29  -3.61
iter:  51 18:39:48  -326.723566c -3.47  -3.67
iter:  52 18:39:56  -326.723637c -3.48  -3.67
iter:  53 18:40:03  -326.723720c -3.65  -3.54
iter:  54 18:40:10  -326.723831c -3.62  -3.61
Writing to output.gpw (mode='')

iter:  55 18:40:17  -326.723881c -3.81  -3.86
iter:  56 18:40:25  -326.723930c -3.62  -3.83
iter:  57 18:40:32  -326.723963c -3.52  -3.82
iter:  58 18:40:39  -326.724001c -3.85  -3.74
iter:  59 18:40:46  -326.724031c -3.89  -3.73
Writing to output.gpw (mode='')

iter:  60 18:40:54  -326.724096c -3.77  -3.72
iter:  61 18:41:01  -326.724115c -4.15  -3.76
iter:  62 18:41:08  -326.724150c -3.92  -3.78
iter:  63 18:41:15  -326.724201c -4.15  -3.82
iter:  64 18:41:23  -326.724191c -4.23  -4.05c
Writing to output.gpw (mode='')

iter:  65 18:41:30  -326.724206c -4.36  -4.14c
iter:  66 18:41:37  -326.724225c -4.11  -4.22c
iter:  67 18:41:44  -326.724235c -4.20  -4.34c
iter:  68 18:41:52  -326.724240c -4.44  -4.37c
iter:  69 18:41:59  -326.724249c -4.54  -4.38c
Writing to output.gpw (mode='')

iter:  70 18:42:06  -326.724255c -4.54  -4.39c
iter:  71 18:42:13  -326.724264c -4.48  -4.41c
iter:  72 18:42:21  -326.724266c -4.79  -4.55c
iter:  73 18:42:28  -326.724269c -4.61  -4.56c
iter:  74 18:42:35  -326.724273c -4.76  -4.67c
Writing to output.gpw (mode='')

iter:  75 18:42:42  -326.724276c -4.81  -4.79c
iter:  76 18:42:50  -326.724278c -4.95  -4.94c
iter:  77 18:42:57  -326.724280c -5.09  -4.94c
iter:  78 18:43:04  -326.724281c -5.16  -4.87c
iter:  79 18:43:11  -326.724282c -5.19  -4.83c
Writing to output.gpw (mode='')

iter:  80 18:43:19  -326.724284c -5.07  -4.79c
iter:  81 18:43:26  -326.724285c -5.25  -4.77c
iter:  82 18:43:33  -326.724286c -5.27  -4.74c
iter:  83 18:43:40  -326.724287c -5.31  -4.65c
iter:  84 18:43:48  -326.724288c -5.36  -4.66c
Writing to output.gpw (mode='')

iter:  85 18:43:55  -326.724289c -5.38  -4.65c
iter:  86 18:44:02  -326.724290c -5.54  -4.74c
iter:  87 18:44:10  -326.724292c -5.53  -4.67c
iter:  88 18:44:24  -326.724291c -5.68  -4.79c
iter:  89 18:44:32  -326.724295c -5.58  -4.73c
Writing to output.gpw (mode='')

iter:  90 18:44:39  -326.724296c -5.55  -4.90c
iter:  91 18:44:46  -326.724297c -5.47  -4.95c
iter:  92 18:44:53  -326.724299c -5.50  -5.08c
iter:  93 18:45:01  -326.724299c -5.69  -5.21c
iter:  94 18:45:08  -326.724300c -5.81  -5.34c
Writing to output.gpw (mode='')

iter:  95 18:45:15  -326.724299c -5.78  -5.38c
iter:  96 18:45:24  -326.724300c -5.89  -5.46c
iter:  97 18:45:39  -326.724300c -6.06  -5.50c
iter:  98 18:45:49  -326.724300c -6.17  -5.63c
iter:  99 18:45:56  -326.724301c -6.01  -5.66c
Writing to output.gpw (mode='')

iter: 100 18:46:03  -326.724301c -6.13  -5.73c
iter: 101 18:46:11  -326.724301c -6.27  -5.79c
iter: 102 18:46:18  -326.724301c -6.32  -5.84c
iter: 103 18:46:25  -326.724301c -6.27  -5.80c
iter: 104 18:46:33  -326.724301c -6.33  -5.75c
Writing to output.gpw (mode='')

iter: 105 18:46:40  -326.724301c -6.43  -5.68c
iter: 106 18:46:47  -326.724301c -6.36  -5.61c
iter: 107 18:46:54  -326.724301c -6.50  -5.52c
iter: 108 18:47:02  -326.724301c -6.50  -5.53c
iter: 109 18:47:09  -326.724301c -6.58  -5.64c
Writing to output.gpw (mode='')

iter: 110 18:47:16  -326.724301c -6.72  -5.62c
iter: 111 18:47:23  -326.724301c -6.75  -5.56c
iter: 112 18:47:31  -326.724301c -6.89  -5.70c
iter: 113 18:47:38  -326.724301c -6.82  -5.63c
iter: 114 18:47:45  -326.724301c -6.76  -5.54c
Writing to output.gpw (mode='')

iter: 115 18:47:53  -326.724301c -6.84  -5.59c
iter: 116 18:48:00  -326.724301c -7.04  -5.62c
iter: 117 18:48:07  -326.724302c -6.96  -5.56c
iter: 118 18:48:14  -326.724302c -6.94  -5.78c
iter: 119 18:48:22  -326.724302c -7.04  -5.84c
Writing to output.gpw (mode='')

iter: 120 18:48:29  -326.724302c -7.00  -6.00c
iter: 121 18:48:36  -326.724302c -7.18  -6.11c
iter: 122 18:48:44  -326.724302c -7.07  -6.24c
iter: 123 18:48:51  -326.724302c -7.28  -6.45c
iter: 124 18:48:58  -326.724302c -7.29  -6.46c
Writing to output.gpw (mode='')

iter: 125 18:49:06  -326.724302c -7.24  -6.64c
iter: 126 18:49:13  -326.724302c -7.33  -6.72c
iter: 127 18:49:26  -326.724302c -7.38  -6.67c
iter: 128 18:49:33  -326.724302c -7.46c -6.63c

Converged after 128 iterations.

Dipole moment: (-21.455510, -16.595204, 0.621380) |e|*Ang

Energy contributions relative to reference atoms: (reference = -15487.462483)

Kinetic:       +208.855729
Potential:     -191.042486
External:        +0.000000
XC:            -345.261834
Entropy (-ST):   -0.150660
Local:           +0.799619
--------------------------
Free energy:   -326.799632
Extrapolated:  -326.724302

Dipole-layer corrected work functions: 3.366295, 2.171789 eV

Showing only first 2 kpts
 Kpt  Band  Eigenvalues  Occupancy
  0    34     -3.02445    1.98798
  0    35     -2.91552    1.89858
  0    36     -2.64228    0.14684
  0    37     -2.52483    0.01502

  1    34     -2.83407    1.57184
  1    35     -2.79777    1.27967
  1    36     -2.71446    0.50260
  1    37     -2.67572    0.26791


Fermi level: -2.76904

Gap: 0.035 eV
Transition (v -> c):
  (s=0, k=1, n=35, [0.12, -0.12, 0.00]) -> (s=0, k=7, n=36, [0.38, 0.38, 0.00])
Writing to output.gpw (mode='')


Forces in eV/Ang:
  0 Li    0.01476    0.00153   -0.27627
  1 Li   -0.00738   -0.00469   -0.26225
  2 Li   -0.00582    0.01893   -0.27468
  3 Li   -0.00896    0.00200   -0.26358
  4 Li    0.00374   -0.00053   -0.28049
  5 Li    0.00049   -0.00292   -0.26330
  6 Li    0.01734   -0.00241   -0.27662
  7 Li   -0.01165    0.00524   -0.26625
  8 Li   -0.00274   -0.01663   -0.27478
  9 Li   -0.00307    0.00106    0.34826
 10 Li    0.00271   -0.00107    0.24553
 11 Li   -0.00681    0.00002    0.27978
 12 Li   -0.00263    0.01721    0.25932
 13 Li    0.00985   -0.00457    0.25860
 14 Li   -0.00238    0.00847    0.25848
 15 Li   -0.00035   -0.01842    0.25535
 16 Li    0.00066    0.00458    0.26359
 17 Li    0.00275   -0.00566    0.26692
 18 Li    0.00263    0.01290   -0.01800
 19 Li    0.01339   -0.01940    0.06987
 20 Li   -0.01375    0.03004   -0.07717
 21 Li   -0.00056   -0.00149    0.05516
 22 Li   -0.00907   -0.00148   -0.00110
 23 Li    0.00940    0.00143    0.07833
 24 Li   -0.00353   -0.01340   -0.00728
 25 Li    0.01169    0.01923    0.06604
 26 Li   -0.00461   -0.02722   -0.08780
 27 Li    0.87259    0.01073   -7.45085
 28 Li    0.05658   -0.00608   -0.04985
 29 Li    0.21254    0.00343    0.18623
 30 Li    0.01977    0.11253   -0.06772
 31 Li    0.00754   -0.00210   -0.02083
 32 Li   -0.03807    0.05347   -0.03812
 33 Li    0.03638   -0.12974   -0.06772
 34 Li   -0.00097    0.01197   -0.00696
 35 Li   -0.04823   -0.06945   -0.03298
 36 O     4.92676   -1.50539   12.11012
 37 C    -0.00161   -0.23128   -0.12862
 38 C     0.44502    1.65842    1.92921
 39 C    -0.03213    0.17095   -0.03425
 40 H     0.01461   -0.04721    0.03837
 41 H    -0.05076   -0.00762    0.02285
 42 H    -0.02345   -0.03185   -0.07172
 43 H    -0.04735   -0.00924   -0.03586
 44 H    -0.00638   -0.00441   -0.00689
 45 H     0.00432   -0.05503   -0.04627
 46 H     0.00010   -0.02911   -0.02185
 47 H     0.78922   -0.87301    1.13354
 48 N     3.03881    1.26625   -1.04263
 49 N   -10.11638   -0.30645   -6.34808

System changes: positions 

Initializing position-dependent things.

Density initialized from wave functions
       .-----------------------.  
      /|                       |  
     / |                       |  
    /  |                       |  
   /   |                       H  
  /    |                       |  
 *     |                       |  
 |     C H                  H  |  
 |     |                       |  
 |     |                       |  
 |  H  O H             H       |  
 |     |                 C  N  |  
 |     |                       |  
 |  H  |       Li       H      |  
 C     |                       |  
 |   Li|     Li      Li        |  
 |     |                       |  
 N Li  |  LLi     LLi     Li   |  
 |     |                       |  
 Li    |Li      LLi     Li     |  
 |   Li|     Li      Li        |  
 |    Li  Li  Li  Li  Li  Li   |  
 | Li  |   Li      Li          |  
 |     |Li      Li      Li     |  
 Li    | Li      Li            |  
 |    Li      Li      Li       |  
 |     |                       |  
 |     |                       |  
 |     |                       |  
 |     |                       |  
 |     |                       |  
 |     |                       |  
 |     .-----------------------.  
 |    /                       /   
 |   /                       /    
 |  /                       /     
 | /                       /      
 |/                       /       
 *-----------------------*        

Positions:
   0 Li     1.617037    1.617037   10.000000    ( 0.0000,  0.0000,  0.0000)
   1 Li     4.851111    1.617037   10.000000    ( 0.0000,  0.0000,  0.0000)
   2 Li     8.085185    1.617037   10.000000    ( 0.0000,  0.0000,  0.0000)
   3 Li     1.617037    4.851111   10.000000    ( 0.0000,  0.0000,  0.0000)
   4 Li     4.851111    4.851111   10.000000    ( 0.0000,  0.0000,  0.0000)
   5 Li     8.085185    4.851111   10.000000    ( 0.0000,  0.0000,  0.0000)
   6 Li     1.617037    8.085185   10.000000    ( 0.0000,  0.0000,  0.0000)
   7 Li     4.851111    8.085185   10.000000    ( 0.0000,  0.0000,  0.0000)
   8 Li     8.085185    8.085185   10.000000    ( 0.0000,  0.0000,  0.0000)
   9 Li     0.000000    0.000000   11.617037    ( 0.0000,  0.0000,  0.0000)
  10 Li     3.234074    0.000000   11.617037    ( 0.0000,  0.0000,  0.0000)
  11 Li     6.468148    0.000000   11.617037    ( 0.0000,  0.0000,  0.0000)
  12 Li     0.000000    3.234074   11.617037    ( 0.0000,  0.0000,  0.0000)
  13 Li     3.234074    3.234074   11.617037    ( 0.0000,  0.0000,  0.0000)
  14 Li     6.468148    3.234074   11.617037    ( 0.0000,  0.0000,  0.0000)
  15 Li     0.000000    6.468148   11.617037    ( 0.0000,  0.0000,  0.0000)
  16 Li     3.234074    6.468148   11.617037    ( 0.0000,  0.0000,  0.0000)
  17 Li     6.468148    6.468148   11.617037    ( 0.0000,  0.0000,  0.0000)
  18 Li     1.617046    1.617077   13.469673    ( 0.0000,  0.0000,  0.0000)
  19 Li     4.851152    1.616979   13.469942    ( 0.0000,  0.0000,  0.0000)
  20 Li     8.085142    1.617129   13.469493    ( 0.0000,  0.0000,  0.0000)
  21 Li     1.617037    4.851106   13.469897    ( 0.0000,  0.0000,  0.0000)
  22 Li     4.851083    4.851107   13.469727    ( 0.0000,  0.0000,  0.0000)
  23 Li     8.085212    4.851115   13.469968    ( 0.0000,  0.0000,  0.0000)
  24 Li     1.617027    8.085143   13.469706    ( 0.0000,  0.0000,  0.0000)
  25 Li     4.851147    8.085242   13.469930    ( 0.0000,  0.0000,  0.0000)
  26 Li     8.085170    8.085101   13.469461    ( 0.0000,  0.0000,  0.0000)
  27 Li     0.002652    0.000033   15.423293    ( 0.0000,  0.0000,  0.0000)
  28 Li     3.234246   -0.000018   15.445787    ( 0.0000,  0.0000,  0.0000)
  29 Li     6.468794    0.000010   15.446505    ( 0.0000,  0.0000,  0.0000)
  30 Li     0.000060    3.234416   15.445733    ( 0.0000,  0.0000,  0.0000)
  31 Li     3.234099    3.234070   15.445875    ( 0.0000,  0.0000,  0.0000)
  32 Li     6.468030    3.234239   15.445822    ( 0.0000,  0.0000,  0.0000)
  33 Li     0.000111    6.467754   15.445733    ( 0.0000,  0.0000,  0.0000)
  34 Li     3.234074    6.468182   15.445917    ( 0.0000,  0.0000,  0.0000)
  35 Li     6.467999    6.467934   15.445838    ( 0.0000,  0.0000,  0.0000)
  36 O      9.717197    9.697646   18.482747    ( 0.0000,  0.0000,  0.0000)
  37 C      9.702347    9.313898   20.879797    ( 0.0000,  0.0000,  0.0000)
  38 C      9.714257   10.330052   19.743863    ( 0.0000,  0.0000,  0.0000)
  39 C      9.695893    9.977534   22.260419    ( 0.0000,  0.0000,  0.0000)
  40 H      8.825095    8.671608   20.761692    ( 0.0000,  0.0000,  0.0000)
  41 H     10.587877    8.672820   20.786343    ( 0.0000,  0.0000,  0.0000)
  42 H      8.812942   10.944857   19.761589    ( 0.0000,  0.0000,  0.0000)
  43 H     10.580535   10.991886   19.831473    ( 0.0000,  0.0000,  0.0000)
  44 H      8.810293   10.603081   22.394039    ( 0.0000,  0.0000,  0.0000)
  45 H      9.695198    9.232072   23.057664    ( 0.0000,  0.0000,  0.0000)
  46 H     10.574252   10.612442   22.402006    ( 0.0000,  0.0000,  0.0000)
  47 H     10.475932    9.122011   18.400623    ( 0.0000,  0.0000,  0.0000)
  48 N      9.711236    9.705849   16.942770    ( 0.0000,  0.0000,  0.0000)
  49 N      8.574630    9.701069   16.926645    ( 0.0000,  0.0000,  0.0000)

Unit cell:
           periodic     x           y           z      points  spacing
  1. axis:    yes    9.702222    0.000000    0.000000    60     0.1617
  2. axis:    yes    0.000000    9.702222    0.000000    60     0.1617
  3. axis:    no     0.000000    0.000000   26.351111   164     0.1607

  Lengths:   9.702222   9.702222  26.351111
  Angles:   90.000000  90.000000  90.000000

Effective grid spacing dv^(1/3) = 0.1614

     iter     time        total  log10-change:
                         energy  eigst   dens
iter:   1 18:49:42  -328.379068  -0.30
iter:   2 18:49:50  -328.028107  -0.82  -1.41
iter:   3 18:49:57  -327.876200  -0.96  -1.41
iter:   4 18:50:04  -327.760420  -1.34  -1.59
Writing to output.gpw (mode='')

iter:   5 18:50:12  -327.736836  -1.29  -2.08
iter:   6 18:50:19  -327.737340c -1.27  -2.33
iter:   7 18:50:26  -327.738376c -1.79  -2.24
iter:   8 18:50:33  -327.737988c -2.29  -2.40
iter:   9 18:50:41  -327.733464c -2.74  -2.43
Writing to output.gpw (mode='')

iter:  10 18:50:48  -327.734107c -2.99  -2.65
iter:  11 18:50:55  -327.733692c -2.81  -2.67
iter:  12 18:51:03  -327.733786c -2.89  -2.99
iter:  13 18:51:10  -327.733641c -3.21  -3.06
iter:  14 18:51:17  -327.733594c -3.67  -3.06
Writing to output.gpw (mode='')

iter:  15 18:51:25  -327.733642c -3.67  -3.23
iter:  16 18:51:32  -327.733670c -3.83  -3.27
iter:  17 18:51:39  -327.733736c -3.94  -3.38
iter:  18 18:51:48  -327.733742c -3.85  -3.70
iter:  19 18:51:56  -327.733728c -4.49  -3.57
Writing to output.gpw (mode='')

iter:  20 18:52:03  -327.733723c -4.50  -3.74
iter:  21 18:52:10  -327.733753c -4.47  -3.82
iter:  22 18:52:18  -327.733748c -4.52  -3.92
iter:  23 18:52:25  -327.733732c -4.54  -4.03c
iter:  24 18:52:32  -327.733734c -5.00  -4.15c
Writing to output.gpw (mode='')

iter:  25 18:52:40  -327.733735c -4.91  -4.19c
iter:  26 18:52:47  -327.733725c -5.10  -4.25c
iter:  27 18:52:54  -327.733735c -5.19  -4.34c
iter:  28 18:53:02  -327.733733c -5.22  -4.31c
iter:  29 18:53:09  -327.733734c -5.31  -4.61c
Writing to output.gpw (mode='')

iter:  30 18:53:16  -327.733735c -5.28  -4.64c
iter:  31 18:53:24  -327.733736c -5.37  -4.66c
iter:  32 18:53:31  -327.733736c -5.38  -4.64c
iter:  33 18:53:38  -327.733737c -5.64  -4.62c
iter:  34 18:53:46  -327.733737c -5.70  -4.57c
Writing to output.gpw (mode='')

iter:  35 18:53:53  -327.733737c -5.80  -4.63c
iter:  36 18:54:00  -327.733736c -5.83  -4.85c
iter:  37 18:54:08  -327.733737c -5.87  -4.89c
iter:  38 18:54:15  -327.733737c -5.93  -4.96c
iter:  39 18:54:29  -327.733738c -6.14  -4.94c
Writing to output.gpw (mode='')

iter:  40 18:54:36  -327.733739c -6.17  -4.86c
iter:  41 18:54:43  -327.733739c -5.95  -4.91c
iter:  42 18:54:51  -327.733739c -6.29  -4.94c
iter:  43 18:54:58  -327.733737c -6.30  -4.79c
iter:  44 18:55:05  -327.733737c -6.26  -4.85c
Writing to output.gpw (mode='')

iter:  45 18:55:13  -327.733737c -6.53  -5.02c
iter:  46 18:55:20  -327.733738c -6.54  -5.01c
iter:  47 18:55:27  -327.733738c -6.73  -4.96c
iter:  48 18:55:35  -327.733739c -6.58  -4.95c
iter:  49 18:55:42  -327.733737c -6.58  -4.88c
Writing to output.gpw (mode='')

iter:  50 18:55:49  -327.733737c -6.85  -5.00c
iter:  51 18:55:56  -327.733735c -6.87  -4.95c
iter:  52 18:56:04  -327.733735c -6.86  -5.07c
iter:  53 18:56:11  -327.733734c -6.81  -5.10c
iter:  54 18:56:18  -327.733734c -7.14  -5.22c
Writing to output.gpw (mode='')

iter:  55 18:56:26  -327.733734c -7.10  -5.31c
iter:  56 18:56:33  -327.733733c -7.13  -5.43c
iter:  57 18:56:40  -327.733734c -7.24  -5.50c
iter:  58 18:56:48  -327.733734c -7.33  -5.52c
iter:  59 18:56:55  -327.733733c -7.38  -5.60c
Writing to output.gpw (mode='')

iter:  60 18:57:02  -327.733733c -7.36  -5.74c
iter:  61 18:57:09  -327.733733c -7.33  -5.81c
iter:  62 18:57:17  -327.733733c -7.59c -5.97c

Converged after 62 iterations.

Dipole moment: (-23.820531, -16.470232, 0.592361) |e|*Ang

Energy contributions relative to reference atoms: (reference = -15487.462483)

Kinetic:       +200.781044
Potential:     -185.031873
External:        +0.000000
XC:            -344.208675
Entropy (-ST):   -0.151257
Local:           +0.801399
--------------------------
Free energy:   -327.809362
Extrapolated:  -327.733733

Dipole-layer corrected work functions: 3.368937, 2.230215 eV

Showing only first 2 kpts
 Kpt  Band  Eigenvalues  Occupancy
  0    34     -3.05511    1.98801
  0    35     -2.94033    1.88697
  0    36     -2.68771    0.19288
  0    37     -2.55554    0.01507

  1    34     -2.87761    1.65293
  1    35     -2.82332    1.23307
  1    36     -2.73363    0.42198
  1    37     -2.70169    0.24742


Fermi level: -2.79958

Gap: 0.032 eV
Transition (v -> c):
  (s=0, k=1, n=35, [0.12, -0.12, 0.00]) -> (s=0, k=7, n=36, [0.38, 0.38, 0.00])
Writing to output.gpw (mode='')


Forces in eV/Ang:
  0 Li    0.01558    0.00182   -0.27830
  1 Li   -0.00798   -0.00521   -0.26134
  2 Li   -0.00599    0.01883   -0.27659
  3 Li   -0.00891    0.00196   -0.26287
  4 Li    0.00341   -0.00025   -0.28174
  5 Li    0.00087   -0.00266   -0.26247
  6 Li    0.01831   -0.00255   -0.27845
  7 Li   -0.01190    0.00548   -0.26583
  8 Li   -0.00315   -0.01681   -0.27694
  9 Li   -0.00297    0.00109    0.35516
 10 Li    0.00292   -0.00098    0.24487
 11 Li   -0.00750    0.00005    0.28134
 12 Li   -0.00266    0.01582    0.26168
 13 Li    0.01023   -0.00372    0.25784
 14 Li   -0.00226    0.00984    0.25909
 15 Li   -0.00049   -0.01729    0.25677
 16 Li    0.00105    0.00356    0.26207
 17 Li    0.00231   -0.00676    0.26746
 18 Li    0.00948    0.01671   -0.03019
 19 Li    0.01266   -0.02013    0.06949
 20 Li   -0.01904    0.03259   -0.08757
 21 Li   -0.00369   -0.00093    0.05805
 22 Li   -0.00861   -0.00229   -0.00086
 23 Li    0.01096    0.00154    0.07990
 24 Li    0.00274   -0.01777   -0.01974
 25 Li    0.01034    0.02035    0.06640
 26 Li   -0.00880   -0.03025   -0.09840
 27 Li    0.78539    0.00751   -6.72564
 28 Li    0.05252   -0.00470   -0.04882
 29 Li    0.25853    0.00330    0.22956
 30 Li    0.01864    0.09783   -0.05387
 31 Li    0.00911    0.00080   -0.02244
 32 Li   -0.03973    0.05238   -0.03585
 33 Li    0.03361   -0.11784   -0.05720
 34 Li    0.00187    0.00800   -0.01082
 35 Li   -0.04916   -0.06861   -0.03014
 36 O     3.59371   -1.41799    9.52358
 37 C    -0.00592   -0.08468    0.08644
 38 C     0.44545    1.39901    1.91862
 39 C    -0.02470    0.08864   -0.00818
 40 H     0.00652   -0.03689    0.01317
 41 H    -0.03624   -0.00559    0.00699
 42 H    -0.07125    0.01997   -0.04331
 43 H     0.05613    0.12879    0.07868
 44 H    -0.01468    0.00170   -0.00773
 45 H     0.00350   -0.03497   -0.04229
 46 H     0.00551   -0.02328   -0.02140
 47 H     1.04769   -0.98365    1.13553
 48 N    -1.34550    1.19229   -0.74241
 49 N    -4.75438   -0.23001   -5.15991

System changes: positions 

Initializing position-dependent things.

Density initialized from wave functions
       .-----------------------.  
      /|                       |  
     / |                       |  
    /  |                       |  
   /   |                       H  
  /    |                       |  
 *     |                       |  
 |     C H                  H  |  
 |     |                       |  
 |     |                       |  
 |  H  O H             H       |  
 |     |                 C  N  |  
 |     |                       |  
 |  H  |       Li       H      |  
 C     |                       |  
 |   Li|     Li      Li        |  
 |     |                       |  
 | Li  |  LLi     LLi    NLi   |  
 |     |                       |  
 Li    |Li      LLi     Li     |  
 |   Li|     Li      Li        |  
 |    Li  Li  Li  Li  Li  Li   |  
 | Li  |   Li      Li          |  
 |     |Li      Li      Li     |  
 Li    | Li      Li            |  
 |    Li      Li      Li       |  
 |     |                       |  
 |     |                       |  
 |     |                       |  
 |     |                       |  
 |     |                       |  
 |     |                       |  
 |     .-----------------------.  
 |    /                       /   
 |   /                       /    
 |  /                       /     
 | /                       /      
 |/                       /       
 *-----------------------*        

Positions:
   0 Li     1.617037    1.617037   10.000000    ( 0.0000,  0.0000,  0.0000)
   1 Li     4.851111    1.617037   10.000000    ( 0.0000,  0.0000,  0.0000)
   2 Li     8.085185    1.617037   10.000000    ( 0.0000,  0.0000,  0.0000)
   3 Li     1.617037    4.851111   10.000000    ( 0.0000,  0.0000,  0.0000)
   4 Li     4.851111    4.851111   10.000000    ( 0.0000,  0.0000,  0.0000)
   5 Li     8.085185    4.851111   10.000000    ( 0.0000,  0.0000,  0.0000)
   6 Li     1.617037    8.085185   10.000000    ( 0.0000,  0.0000,  0.0000)
   7 Li     4.851111    8.085185   10.000000    ( 0.0000,  0.0000,  0.0000)
   8 Li     8.085185    8.085185   10.000000    ( 0.0000,  0.0000,  0.0000)
   9 Li     0.000000    0.000000   11.617037    ( 0.0000,  0.0000,  0.0000)
  10 Li     3.234074    0.000000   11.617037    ( 0.0000,  0.0000,  0.0000)
  11 Li     6.468148    0.000000   11.617037    ( 0.0000,  0.0000,  0.0000)
  12 Li     0.000000    3.234074   11.617037    ( 0.0000,  0.0000,  0.0000)
  13 Li     3.234074    3.234074   11.617037    ( 0.0000,  0.0000,  0.0000)
  14 Li     6.468148    3.234074   11.617037    ( 0.0000,  0.0000,  0.0000)
  15 Li     0.000000    6.468148   11.617037    ( 0.0000,  0.0000,  0.0000)
  16 Li     3.234074    6.468148   11.617037    ( 0.0000,  0.0000,  0.0000)
  17 Li     6.468148    6.468148   11.617037    ( 0.0000,  0.0000,  0.0000)
  18 Li     1.617107    1.617164   13.469502    ( 0.0000,  0.0000,  0.0000)
  19 Li     4.851208    1.616885   13.470261    ( 0.0000,  0.0000,  0.0000)
  20 Li     8.085041    1.617286   13.469062    ( 0.0000,  0.0000,  0.0000)
  21 Li     1.617012    4.851104   13.470172    ( 0.0000,  0.0000,  0.0000)
  22 Li     4.851045    4.851094   13.469724    ( 0.0000,  0.0000,  0.0000)
  23 Li     8.085267    4.851123   13.470340    ( 0.0000,  0.0000,  0.0000)
  24 Li     1.617056    8.085050   13.469583    ( 0.0000,  0.0000,  0.0000)
  25 Li     4.851191    8.085339   13.470237    ( 0.0000,  0.0000,  0.0000)
  26 Li     8.085118    8.084954   13.468980    ( 0.0000,  0.0000,  0.0000)
  27 Li     0.006050    0.000059   15.394142    ( 0.0000,  0.0000,  0.0000)
  28 Li     3.234477   -0.000037   15.445565    ( 0.0000,  0.0000,  0.0000)
  29 Li     6.470106    0.000025   15.447676    ( 0.0000,  0.0000,  0.0000)
  30 Li     0.000143    3.234829   15.445520    ( 0.0000,  0.0000,  0.0000)
  31 Li     3.234145    3.234081   15.445767    ( 0.0000,  0.0000,  0.0000)
  32 Li     6.467842    3.234478   15.445663    ( 0.0000,  0.0000,  0.0000)
  33 Li     0.000258    6.467241   15.445496    ( 0.0000,  0.0000,  0.0000)
  34 Li     3.234089    6.468209   15.445857    ( 0.0000,  0.0000,  0.0000)
  35 Li     6.467770    6.467620   15.445706    ( 0.0000,  0.0000,  0.0000)
  36 O      9.730331    9.691331   18.519998    ( 0.0000,  0.0000,  0.0000)
  37 C      9.702309    9.313886   20.880751    ( 0.0000,  0.0000,  0.0000)
  38 C      9.716313   10.335835   19.752686    ( 0.0000,  0.0000,  0.0000)
  39 C      9.695798    9.977730   22.260449    ( 0.0000,  0.0000,  0.0000)
  40 H      8.825104    8.671465   20.761688    ( 0.0000,  0.0000,  0.0000)
  41 H     10.587747    8.672800   20.786335    ( 0.0000,  0.0000,  0.0000)
  42 H      8.812490   10.945083   19.761462    ( 0.0000,  0.0000,  0.0000)
  43 H     10.581061   10.992836   19.832131    ( 0.0000,  0.0000,  0.0000)
  44 H      8.810204   10.603104   22.394001    ( 0.0000,  0.0000,  0.0000)
  45 H      9.695212    9.231963   23.057479    ( 0.0000,  0.0000,  0.0000)
  46 H     10.574291   10.612350   22.401908    ( 0.0000,  0.0000,  0.0000)
  47 H     10.481433    9.117188   18.405866    ( 0.0000,  0.0000,  0.0000)
  48 N      9.693708    9.711157   16.940121    ( 0.0000,  0.0000,  0.0000)
  49 N      8.566546    9.700205   16.905912    ( 0.0000,  0.0000,  0.0000)

Unit cell:
           periodic     x           y           z      points  spacing
  1. axis:    yes    9.702222    0.000000    0.000000    60     0.1617
  2. axis:    yes    0.000000    9.702222    0.000000    60     0.1617
  3. axis:    no     0.000000    0.000000   26.351111   164     0.1607

  Lengths:   9.702222   9.702222  26.351111
  Angles:   90.000000  90.000000  90.000000

Effective grid spacing dv^(1/3) = 0.1614

     iter     time        total  log10-change:
                         energy  eigst   dens
iter:   1 18:57:26  -328.656565  -0.82
iter:   2 18:57:33  -328.566437  -0.99  -1.60
iter:   3 18:57:40  -328.523475  -1.75  -1.70
iter:   4 18:57:47  -328.510610  -1.11  -2.12
Writing to output.gpw (mode='')

iter:   5 18:57:55  -328.509765c -1.89  -2.07
iter:   6 18:58:02  -328.529694c -1.59  -2.34
iter:   7 18:58:09  -328.503423c -2.18  -2.08
iter:   8 18:58:16  -328.498290c -2.01  -2.36
iter:   9 18:58:24  -328.498650c -2.81  -2.60
Writing to output.gpw (mode='')

iter:  10 18:58:31  -328.500876c -2.48  -2.69
iter:  11 18:58:38  -328.498089c -2.59  -2.64
iter:  12 18:58:46  -328.498132c -2.81  -2.91
iter:  13 18:58:53  -328.498247c -3.45  -3.08
iter:  14 18:59:00  -328.498145c -3.28  -3.07
Writing to output.gpw (mode='')

iter:  15 18:59:07  -328.498318c -3.70  -3.12
iter:  16 18:59:15  -328.498210c -3.53  -3.23
iter:  17 18:59:28  -328.498257c -4.01  -3.30
iter:  18 18:59:35  -328.498314c -4.01  -3.39
iter:  19 18:59:42  -328.498263c -4.18  -3.51
Writing to output.gpw (mode='')

iter:  20 18:59:50  -328.498296c -4.67  -3.70
iter:  21 18:59:57  -328.498292c -4.59  -3.76
iter:  22 19:00:04  -328.498316c -4.69  -3.92
iter:  23 19:00:11  -328.498310c -4.86  -4.01c
iter:  24 19:00:19  -328.498314c -4.97  -4.17c
Writing to output.gpw (mode='')

iter:  25 19:00:26  -328.498320c -5.05  -4.23c
iter:  26 19:00:33  -328.498319c -5.22  -4.22c
iter:  27 19:00:40  -328.498324c -5.44  -4.46c
iter:  28 19:00:48  -328.498326c -5.35  -4.52c
iter:  29 19:00:55  -328.498328c -5.42  -4.66c
Writing to output.gpw (mode='')

iter:  30 19:01:02  -328.498330c -5.43  -4.72c
iter:  31 19:01:09  -328.498332c -5.69  -4.75c
iter:  32 19:01:17  -328.498334c -5.79  -4.78c
iter:  33 19:01:24  -328.498333c -5.82  -4.84c
iter:  34 19:01:31  -328.498335c -6.10  -4.90c
Writing to output.gpw (mode='')

iter:  35 19:01:38  -328.498334c -6.16  -5.03c
iter:  36 19:01:46  -328.498335c -6.21  -5.10c
iter:  37 19:01:53  -328.498335c -6.40  -5.25c
iter:  38 19:02:00  -328.498335c -6.42  -5.22c
iter:  39 19:02:08  -328.498336c -6.42  -5.22c
Writing to output.gpw (mode='')

iter:  40 19:02:15  -328.498337c -6.49  -5.26c
iter:  41 19:02:22  -328.498337c -6.64  -5.32c
iter:  42 19:02:29  -328.498339c -6.61  -5.30c
iter:  43 19:02:37  -328.498337c -6.77  -5.38c
iter:  44 19:02:44  -328.498338c -6.82  -5.35c
Writing to output.gpw (mode='')

iter:  45 19:02:51  -328.498338c -6.87  -5.40c
iter:  46 19:02:59  -328.498339c -6.85  -5.46c
iter:  47 19:03:06  -328.498339c -6.85  -5.47c
iter:  48 19:03:13  -328.498338c -7.11  -5.45c
iter:  49 19:03:20  -328.498338c -7.38  -5.35c
Writing to output.gpw (mode='')

iter:  50 19:03:28  -328.498338c -7.36  -5.31c
iter:  51 19:03:35  -328.498338c -7.38  -5.29c
iter:  52 19:03:42  -328.498338c -7.28  -5.31c
iter:  53 19:03:49  -328.498339c -7.70c -5.29c

Converged after 53 iterations.

Dipole moment: (-23.224122, -16.257983, 0.571885) |e|*Ang

Energy contributions relative to reference atoms: (reference = -15487.462483)

Kinetic:       +200.085363
Potential:     -184.973118
External:        +0.000000
XC:            -344.336400
Entropy (-ST):   -0.150280
Local:           +0.800956
--------------------------
Free energy:   -328.573478
Extrapolated:  -328.498339

Dipole-layer corrected work functions: 3.369122, 2.269763 eV

Showing only first 2 kpts
 Kpt  Band  Eigenvalues  Occupancy
  0    34     -3.07691    1.98846
  0    35     -2.96212    1.89099
  0    36     -2.70051    0.16962
  0    37     -2.57639    0.01537

  1    34     -2.89362    1.63020
  1    35     -2.84337    1.23482
  1    36     -2.75224    0.41366
  1    37     -2.72729    0.27339


Fermi level: -2.81944

Gap: 0.030 eV
Transition (v -> c):
  (s=0, k=1, n=35, [0.12, -0.12, 0.00]) -> (s=0, k=7, n=36, [0.38, 0.38, 0.00])
Writing to output.gpw (mode='')


Forces in eV/Ang:
  0 Li    0.01582    0.00158   -0.27870
  1 Li   -0.00832   -0.00548   -0.26083
  2 Li   -0.00589    0.01897   -0.27710
  3 Li   -0.00933    0.00192   -0.26268
  4 Li    0.00355   -0.00031   -0.28233
  5 Li    0.00102   -0.00233   -0.26218
  6 Li    0.01820   -0.00230   -0.27880
  7 Li   -0.01194    0.00574   -0.26506
  8 Li   -0.00299   -0.01719   -0.27730
  9 Li   -0.00339    0.00097    0.35867
 10 Li    0.00321   -0.00088    0.24448
 11 Li   -0.00780    0.00018    0.28172
 12 Li   -0.00238    0.01617    0.26147
 13 Li    0.01042   -0.00340    0.25763
 14 Li   -0.00259    0.01079    0.25837
 15 Li   -0.00030   -0.01771    0.25661
 16 Li    0.00173    0.00315    0.26129
 17 Li    0.00142   -0.00800    0.26630
 18 Li    0.01340    0.02083   -0.03482
 19 Li    0.01374   -0.01957    0.07047
 20 Li   -0.02326    0.03656   -0.09376
 21 Li   -0.00275   -0.00114    0.05789
 22 Li   -0.00893   -0.00206   -0.00105
 23 Li    0.01070    0.00125    0.07935
 24 Li    0.00684   -0.02160   -0.02344
 25 Li    0.01149    0.01978    0.06711
 26 Li   -0.01368   -0.03470   -0.10284
 27 Li    0.81492   -0.00936   -5.98179
 28 Li    0.05500   -0.00471   -0.04941
 29 Li    0.23630    0.00219    0.21403
 30 Li    0.02003    0.10152   -0.05670
 31 Li    0.00854   -0.00008   -0.02229
 32 Li   -0.04081    0.05327   -0.03780
 33 Li    0.03345   -0.11929   -0.06004
 34 Li    0.00105    0.00907   -0.01123
 35 Li   -0.04806   -0.06769   -0.03185
 36 O     2.71278   -1.32991    7.70801
 37 C    -0.00525    0.04394    0.32106
 38 C     0.42433    1.03419    1.91901
 39 C    -0.02031    0.02139    0.04891
 40 H     0.00761   -0.01358   -0.00683
 41 H    -0.03262    0.00905   -0.00395
 42 H    -0.10087    0.06557   -0.00914
 43 H     0.15931    0.26634    0.18987
 44 H    -0.01793    0.00390   -0.00682
 45 H     0.00247   -0.02002   -0.02397
 46 H     0.00701   -0.02113   -0.01991
 47 H     1.16285   -0.92387    1.11320
 48 N    -0.75634    1.05484   -1.00060
 49 N    -4.54781   -0.14971   -4.14240

System changes: positions 

Initializing position-dependent things.

Density initialized from wave functions
       .-----------------------.  
      /|                       |  
     / |                       |  
    /  |                       |  
   /   |                       H  
  /    |                       |  
 *     |                       |  
 |     C H                  H  |  
 |     |                       |  
 |     O                       |  
 |  H  | H             H       |  
 |     |                 C  N  |  
 |     |                       |  
 |  H  Li      Li       H      |  
 C     |                       |  
 |   Li|     Li      Li        |  
 |     |                       |  
 | Li  |  LLi     LLi    NLi   |  
 |     |                       |  
 |     |Li      LLi     Li     |  
 |   Li|     Li      Li        |  
 |    Li  Li  Li  Li  Li  Li   |  
 | Li  |   Li      Li          |  
 |     |Li      Li      Li     |  
 Li    | Li      Li            |  
 |    Li      Li      Li       |  
 |     |                       |  
 |     |                       |  
 |     |                       |  
 |     |                       |  
 |     |                       |  
 |     |                       |  
 |     .-----------------------.  
 |    /                       /   
 |   /                       /    
 |  /                       /     
 | /                       /      
 |/                       /       
 *-----------------------*        

Positions:
   0 Li     1.617037    1.617037   10.000000    ( 0.0000,  0.0000,  0.0000)
   1 Li     4.851111    1.617037   10.000000    ( 0.0000,  0.0000,  0.0000)
   2 Li     8.085185    1.617037   10.000000    ( 0.0000,  0.0000,  0.0000)
   3 Li     1.617037    4.851111   10.000000    ( 0.0000,  0.0000,  0.0000)
   4 Li     4.851111    4.851111   10.000000    ( 0.0000,  0.0000,  0.0000)
   5 Li     8.085185    4.851111   10.000000    ( 0.0000,  0.0000,  0.0000)
   6 Li     1.617037    8.085185   10.000000    ( 0.0000,  0.0000,  0.0000)
   7 Li     4.851111    8.085185   10.000000    ( 0.0000,  0.0000,  0.0000)
   8 Li     8.085185    8.085185   10.000000    ( 0.0000,  0.0000,  0.0000)
   9 Li     0.000000    0.000000   11.617037    ( 0.0000,  0.0000,  0.0000)
  10 Li     3.234074    0.000000   11.617037    ( 0.0000,  0.0000,  0.0000)
  11 Li     6.468148    0.000000   11.617037    ( 0.0000,  0.0000,  0.0000)
  12 Li     0.000000    3.234074   11.617037    ( 0.0000,  0.0000,  0.0000)
  13 Li     3.234074    3.234074   11.617037    ( 0.0000,  0.0000,  0.0000)
  14 Li     6.468148    3.234074   11.617037    ( 0.0000,  0.0000,  0.0000)
  15 Li     0.000000    6.468148   11.617037    ( 0.0000,  0.0000,  0.0000)
  16 Li     3.234074    6.468148   11.617037    ( 0.0000,  0.0000,  0.0000)
  17 Li     6.468148    6.468148   11.617037    ( 0.0000,  0.0000,  0.0000)
  18 Li     1.617277    1.617385   13.469132    ( 0.0000,  0.0000,  0.0000)
  19 Li     4.851327    1.616727   13.470843    ( 0.0000,  0.0000,  0.0000)
  20 Li     8.084794    1.617629   13.468204    ( 0.0000,  0.0000,  0.0000)
  21 Li     1.616986    4.851095   13.470654    ( 0.0000,  0.0000,  0.0000)
  22 Li     4.850971    4.851076   13.469714    ( 0.0000,  0.0000,  0.0000)
  23 Li     8.085358    4.851131   13.470988    ( 0.0000,  0.0000,  0.0000)
  24 Li     1.617172    8.084823   13.469312    ( 0.0000,  0.0000,  0.0000)
  25 Li     4.851290    8.085499   13.470793    ( 0.0000,  0.0000,  0.0000)
  26 Li     8.084948    8.084620   13.468062    ( 0.0000,  0.0000,  0.0000)
  27 Li     0.012636   -0.000180   15.354689    ( 0.0000,  0.0000,  0.0000)
  28 Li     3.234933   -0.000070   15.445160    ( 0.0000,  0.0000,  0.0000)
  29 Li     6.472006    0.000033   15.449444    ( 0.0000,  0.0000,  0.0000)
  30 Li     0.000315    3.235635   15.445084    ( 0.0000,  0.0000,  0.0000)
  31 Li     3.234216    3.234083   15.445581    ( 0.0000,  0.0000,  0.0000)
  32 Li     6.467494    3.234916   15.445345    ( 0.0000,  0.0000,  0.0000)
  33 Li     0.000520    6.466299   15.445020    ( 0.0000,  0.0000,  0.0000)
  34 Li     3.234101    6.468277   15.445747    ( 0.0000,  0.0000,  0.0000)
  35 Li     6.467384    6.467079   15.445442    ( 0.0000,  0.0000,  0.0000)
  36 O      9.739637    9.681595   18.557042    ( 0.0000,  0.0000,  0.0000)
  37 C      9.702256    9.315938   20.886264    ( 0.0000,  0.0000,  0.0000)
  38 C      9.719587   10.340049   19.768302    ( 0.0000,  0.0000,  0.0000)
  39 C      9.695699    9.976998   22.261454    ( 0.0000,  0.0000,  0.0000)
  40 H      8.825146    8.671600   20.761360    ( 0.0000,  0.0000,  0.0000)
  41 H     10.587567    8.673012   20.786146    ( 0.0000,  0.0000,  0.0000)
  42 H      8.811225   10.946218   19.761799    ( 0.0000,  0.0000,  0.0000)
  43 H     10.583666   10.996750   19.835099    ( 0.0000,  0.0000,  0.0000)
  44 H      8.809998   10.603179   22.393951    ( 0.0000,  0.0000,  0.0000)
  45 H      9.695220    9.232007   23.057462    ( 0.0000,  0.0000,  0.0000)
  46 H     10.574382   10.612218   22.401761    ( 0.0000,  0.0000,  0.0000)
  47 H     10.492906    9.109774   18.414754    ( 0.0000,  0.0000,  0.0000)
  48 N      9.676492    9.718259   16.930772    ( 0.0000,  0.0000,  0.0000)
  49 N      8.551237    9.699985   16.885626    ( 0.0000,  0.0000,  0.0000)

Unit cell:
           periodic     x           y           z      points  spacing
  1. axis:    yes    9.702222    0.000000    0.000000    60     0.1617
  2. axis:    yes    0.000000    9.702222    0.000000    60     0.1617
  3. axis:    no     0.000000    0.000000   26.351111   164     0.1607

  Lengths:   9.702222   9.702222  26.351111
  Angles:   90.000000  90.000000  90.000000

Effective grid spacing dv^(1/3) = 0.1614

     iter     time        total  log10-change:
                         energy  eigst   dens
iter:   1 19:03:58  -329.281760  -0.82
iter:   2 19:04:06  -329.267269  -1.37  -1.88
iter:   3 19:04:13  -329.258323c -1.96  -1.97
iter:   4 19:04:25  -329.250799c -1.72  -2.27
Writing to output.gpw (mode='')

iter:   5 19:04:33  -329.253700c -2.41  -2.37
iter:   6 19:04:41  -329.253682c -2.32  -2.36
iter:   7 19:04:48  -329.249557c -2.18  -2.39
iter:   8 19:04:55  -329.249266c -2.51  -2.80
iter:   9 19:05:03  -329.249200c -3.17  -2.79
Writing to output.gpw (mode='')

iter:  10 19:05:10  -329.249286c -3.16  -3.00
iter:  11 19:05:17  -329.249267c -3.56  -3.17
iter:  12 19:05:25  -329.249206c -4.12  -3.22
iter:  13 19:05:32  -329.249226c -4.12  -3.28
iter:  14 19:05:39  -329.249150c -4.26  -3.33
Writing to output.gpw (mode='')

iter:  15 19:05:47  -329.249161c -4.31  -3.58
iter:  16 19:05:54  -329.249172c -4.61  -3.67
iter:  17 19:06:01  -329.249225c -4.72  -3.70
iter:  18 19:06:09  -329.249190c -4.43  -3.82
iter:  19 19:06:16  -329.249193c -5.23  -3.77
Writing to output.gpw (mode='')

iter:  20 19:06:23  -329.249210c -4.87  -3.86
iter:  21 19:06:31  -329.249198c -4.99  -4.02c
iter:  22 19:06:38  -329.249202c -5.59  -4.13c
iter:  23 19:06:45  -329.249205c -5.62  -4.39c
iter:  24 19:06:52  -329.249204c -5.56  -4.33c
Writing to output.gpw (mode='')

iter:  25 19:07:00  -329.249203c -5.64  -4.36c
iter:  26 19:07:07  -329.249205c -5.93  -4.64c
iter:  27 19:07:15  -329.249208c -6.03  -4.72c
iter:  28 19:07:22  -329.249208c -6.06  -4.77c
iter:  29 19:07:29  -329.249207c -6.20  -4.89c
Writing to output.gpw (mode='')

iter:  30 19:07:36  -329.249206c -6.52  -5.00c
iter:  31 19:07:46  -329.249207c -6.72  -5.17c
iter:  32 19:07:54  -329.249207c -6.59  -5.17c
iter:  33 19:08:01  -329.249208c -6.65  -5.23c
iter:  34 19:08:08  -329.249208c -6.70  -5.32c
Writing to output.gpw (mode='')

iter:  35 19:08:16  -329.249208c -6.78  -5.37c
iter:  36 19:08:23  -329.249209c -6.97  -5.41c
iter:  37 19:08:30  -329.249208c -7.12  -5.41c
iter:  38 19:08:38  -329.249208c -7.27  -5.56c
iter:  39 19:08:45  -329.249209c -7.35  -5.61c
Writing to output.gpw (mode='')

iter:  40 19:08:52  -329.249208c -7.46c -5.75c

Converged after 40 iterations.

Dipole moment: (-22.345787, -15.950655, 0.540469) |e|*Ang

Energy contributions relative to reference atoms: (reference = -15487.462483)

Kinetic:       +197.800806
Potential:     -183.687388
External:        +0.000000
XC:            -344.088279
Entropy (-ST):   -0.149601
Local:           +0.800453
--------------------------
Free energy:   -329.324009
Extrapolated:  -329.249208

Dipole-layer corrected work functions: 3.370010, 2.331044 eV

Showing only first 2 kpts
 Kpt  Band  Eigenvalues  Occupancy
  0    34     -3.11000    1.98891
  0    35     -2.99410    1.89283
  0    36     -2.72757    0.15755
  0    37     -2.60869    0.01574

  1    34     -2.92278    1.61845
  1    35     -2.87327    1.22359
  1    36     -2.77965    0.39007
  1    37     -2.76322    0.29709


Fermi level: -2.85053

Gap: 0.027 eV
Transition (v -> c):
  (s=0, k=1, n=35, [0.12, -0.12, 0.00]) -> (s=0, k=7, n=36, [0.38, 0.38, 0.00])

Forces in eV/Ang:
  0 Li    0.01623    0.00121   -0.27962
  1 Li   -0.00879   -0.00590   -0.26026
  2 Li   -0.00582    0.01906   -0.27815
  3 Li   -0.00985    0.00192   -0.26213
  4 Li    0.00373   -0.00038   -0.28323
  5 Li    0.00118   -0.00192   -0.26192
  6 Li    0.01820   -0.00202   -0.27969
  7 Li   -0.01211    0.00616   -0.26416
  8 Li   -0.00278   -0.01759   -0.27820
  9 Li   -0.00362    0.00088    0.36342
 10 Li    0.00339   -0.00075    0.24447
 11 Li   -0.00839    0.00028    0.28219
 12 Li   -0.00215    0.01621    0.26197
 13 Li    0.01090   -0.00256    0.25709
 14 Li   -0.00300    0.01190    0.25785
 15 Li   -0.00016   -0.01784    0.25701
 16 Li    0.00270    0.00221    0.26005
 17 Li    0.00038   -0.00947    0.26529
 18 Li    0.02016    0.02773   -0.04383
 19 Li    0.01468   -0.01910    0.07098
 20 Li   -0.02900    0.04100   -0.10183
 21 Li   -0.00213   -0.00144    0.05761
 22 Li   -0.00930   -0.00172   -0.00090
 23 Li    0.01054    0.00087    0.07853
 24 Li    0.01382   -0.02806   -0.03110
 25 Li    0.01246    0.01920    0.06725
 26 Li   -0.02013   -0.03965   -0.10875
 27 Li    0.78596   -0.02733   -5.15041
 28 Li    0.05569   -0.00492   -0.04866
 29 Li    0.22461    0.00067    0.20764
 30 Li    0.02137    0.10111   -0.05618
 31 Li    0.00824   -0.00039   -0.02259
 32 Li   -0.04245    0.05429   -0.03892
 33 Li    0.03311   -0.11615   -0.05942
 34 Li    0.00017    0.00986   -0.01207
 35 Li   -0.04704   -0.06662   -0.03285
 36 O     2.11272   -1.44634    5.89614
 37 C     0.00456    0.01151    0.47096
 38 C     0.37678    0.84478    1.74125
 39 C    -0.02121    0.03451    0.16143
 40 H     0.03864    0.03897   -0.00185
 41 H    -0.05650    0.04530    0.01539
 42 H    -0.04965    0.05737    0.04904
 43 H     0.19115    0.32767    0.29206
 44 H    -0.00923   -0.00318    0.00110
 45 H     0.00105   -0.02934    0.03052
 46 H    -0.00093   -0.02676   -0.01075
 47 H     0.96196   -0.65054    1.09710
 48 N    -0.75160    0.92327   -1.14141
 49 N    -3.87377   -0.11463   -3.31945

System changes: positions 

Initializing position-dependent things.

Density initialized from wave functions
       .-----------------------.  
      /|                       |  
     / |                       |  
    /  |                       |  
   /   |                       H  
  /    |                       |  
 *     |                       |  
 |     C H                  H  |  
 |     |                       |  
 |     O                       |  
 |  H  | H             H       |  
 |     |                 C     |  
 |     |                    N  |  
 |  H  Li      Li       H      |  
 C     |                       |  
 |   Li|     Li      Li        |  
 |     |                       |  
 | Li  |  LLi     LLi    NLi   |  
 |     |                       |  
 |     |Li      LLi     Li     |  
 |   Li|     Li      Li        |  
 |    Li  Li  Li  Li  Li  Li   |  
 | Li  |   Li      Li          |  
 |     |Li      Li      Li     |  
 Li    | Li      Li            |  
 |    Li      Li      Li       |  
 |     |                       |  
 |     |                       |  
 |     |                       |  
 |     |                       |  
 |     |                       |  
 |     |                       |  
 |     .-----------------------.  
 |    /                       /   
 |   /                       /    
 |  /                       /     
 | /                       /      
 |/                       /       
 *-----------------------*        

Positions:
   0 Li     1.617037    1.617037   10.000000    ( 0.0000,  0.0000,  0.0000)
   1 Li     4.851111    1.617037   10.000000    ( 0.0000,  0.0000,  0.0000)
   2 Li     8.085185    1.617037   10.000000    ( 0.0000,  0.0000,  0.0000)
   3 Li     1.617037    4.851111   10.000000    ( 0.0000,  0.0000,  0.0000)
   4 Li     4.851111    4.851111   10.000000    ( 0.0000,  0.0000,  0.0000)
   5 Li     8.085185    4.851111   10.000000    ( 0.0000,  0.0000,  0.0000)
   6 Li     1.617037    8.085185   10.000000    ( 0.0000,  0.0000,  0.0000)
   7 Li     4.851111    8.085185   10.000000    ( 0.0000,  0.0000,  0.0000)
   8 Li     8.085185    8.085185   10.000000    ( 0.0000,  0.0000,  0.0000)
   9 Li     0.000000    0.000000   11.617037    ( 0.0000,  0.0000,  0.0000)
  10 Li     3.234074    0.000000   11.617037    ( 0.0000,  0.0000,  0.0000)
  11 Li     6.468148    0.000000   11.617037    ( 0.0000,  0.0000,  0.0000)
  12 Li     0.000000    3.234074   11.617037    ( 0.0000,  0.0000,  0.0000)
  13 Li     3.234074    3.234074   11.617037    ( 0.0000,  0.0000,  0.0000)
  14 Li     6.468148    3.234074   11.617037    ( 0.0000,  0.0000,  0.0000)
  15 Li     0.000000    6.468148   11.617037    ( 0.0000,  0.0000,  0.0000)
  16 Li     3.234074    6.468148   11.617037    ( 0.0000,  0.0000,  0.0000)
  17 Li     6.468148    6.468148   11.617037    ( 0.0000,  0.0000,  0.0000)
  18 Li     1.617558    1.617733   13.468584    ( 0.0000,  0.0000,  0.0000)
  19 Li     4.851482    1.616543   13.471552    ( 0.0000,  0.0000,  0.0000)
  20 Li     8.084433    1.618092   13.467083    ( 0.0000,  0.0000,  0.0000)
  21 Li     1.616965    4.851079   13.471229    ( 0.0000,  0.0000,  0.0000)
  22 Li     4.850877    4.851060   13.469705    ( 0.0000,  0.0000,  0.0000)
  23 Li     8.085464    4.851136   13.471761    ( 0.0000,  0.0000,  0.0000)
  24 Li     1.617391    8.084475   13.468902    ( 0.0000,  0.0000,  0.0000)
  25 Li     4.851421    8.085686   13.471463    ( 0.0000,  0.0000,  0.0000)
  26 Li     8.084670    8.084163   13.466895    ( 0.0000,  0.0000,  0.0000)
  27 Li     0.020194   -0.000666   15.315412    ( 0.0000,  0.0000,  0.0000)
  28 Li     3.235491   -0.000115   15.444682    ( 0.0000,  0.0000,  0.0000)
  29 Li     6.474155    0.000024   15.451490    ( 0.0000,  0.0000,  0.0000)
  30 Li     0.000539    3.236611   15.444556    ( 0.0000,  0.0000,  0.0000)
  31 Li     3.234297    3.234081   15.445352    ( 0.0000,  0.0000,  0.0000)
  32 Li     6.467054    3.235460   15.444949    ( 0.0000,  0.0000,  0.0000)
  33 Li     0.000835    6.465195   15.444450    ( 0.0000,  0.0000,  0.0000)
  34 Li     3.234102    6.468374   15.445609    ( 0.0000,  0.0000,  0.0000)
  35 Li     6.466929    6.466436   15.445109    ( 0.0000,  0.0000,  0.0000)
  36 O      9.747080    9.667682   18.585419    ( 0.0000,  0.0000,  0.0000)
  37 C      9.702338    9.317293   20.893993    ( 0.0000,  0.0000,  0.0000)
  38 C      9.722933   10.344046   19.784628    ( 0.0000,  0.0000,  0.0000)
  39 C      9.695541    9.976654   22.264070    ( 0.0000,  0.0000,  0.0000)
  40 H      8.825655    8.672432   20.761140    ( 0.0000,  0.0000,  0.0000)
  41 H     10.586970    8.673741   20.786259    ( 0.0000,  0.0000,  0.0000)
  42 H      8.810610   10.947239   19.762893    ( 0.0000,  0.0000,  0.0000)
  43 H     10.586776   11.001703   19.839628    ( 0.0000,  0.0000,  0.0000)
  44 H      8.809898   10.603149   22.394003    ( 0.0000,  0.0000,  0.0000)
  45 H      9.695214    9.231846   23.058164    ( 0.0000,  0.0000,  0.0000)
  46 H     10.574364   10.611962   22.401710    ( 0.0000,  0.0000,  0.0000)
  47 H     10.503115    9.104712   18.425356    ( 0.0000,  0.0000,  0.0000)
  48 N      9.659327    9.725532   16.917943    ( 0.0000,  0.0000,  0.0000)
  49 N      8.534773    9.699840   16.867835    ( 0.0000,  0.0000,  0.0000)

Unit cell:
           periodic     x           y           z      points  spacing
  1. axis:    yes    9.702222    0.000000    0.000000    60     0.1617
  2. axis:    yes    0.000000    9.702222    0.000000    60     0.1617
  3. axis:    no     0.000000    0.000000   26.351111   164     0.1607

  Lengths:   9.702222   9.702222  26.351111
  Angles:   90.000000  90.000000  90.000000

Effective grid spacing dv^(1/3) = 0.1614

     iter     time        total  log10-change:
                         energy  eigst   dens
iter:   1 19:09:01  -329.852375  -0.90
iter:   2 19:09:08  -329.847595  -1.57  -2.03
iter:   3 19:09:15  -329.844124c -2.13  -2.11
iter:   4 19:09:28  -329.840248c -2.02  -2.36
Writing to output.gpw (mode='')

iter:   5 19:09:36  -329.840416c -2.51  -2.49
iter:   6 19:09:43  -329.840585c -2.56  -2.53
iter:   7 19:09:50  -329.839380c -2.64  -2.62
iter:   8 19:09:57  -329.839447c -3.09  -2.96
iter:   9 19:10:05  -329.839486c -3.62  -3.08
Writing to output.gpw (mode='')

iter:  10 19:10:12  -329.839544c -3.58  -3.13
iter:  11 19:10:20  -329.839451c -3.81  -3.29
iter:  12 19:10:27  -329.839508c -3.89  -3.31
iter:  13 19:10:34  -329.839489c -4.48  -3.37
iter:  14 19:10:42  -329.839463c -4.25  -3.43
Writing to output.gpw (mode='')

iter:  15 19:10:49  -329.839464c -4.90  -3.71
iter:  16 19:10:57  -329.839471c -4.88  -3.83
iter:  17 19:11:04  -329.839473c -5.08  -3.94
iter:  18 19:11:11  -329.839489c -5.10  -3.95
iter:  19 19:11:19  -329.839486c -5.46  -4.05c
Writing to output.gpw (mode='')

iter:  20 19:11:26  -329.839490c -5.54  -4.20c
iter:  21 19:11:33  -329.839488c -5.75  -4.24c
iter:  22 19:11:41  -329.839489c -5.77  -4.33c
iter:  23 19:11:48  -329.839491c -6.05  -4.34c
iter:  24 19:11:56  -329.839494c -5.96  -4.39c
Writing to output.gpw (mode='')

iter:  25 19:12:03  -329.839491c -6.01  -4.62c
iter:  26 19:12:10  -329.839491c -6.43  -4.83c
iter:  27 19:12:18  -329.839492c -6.18  -4.87c
iter:  28 19:12:25  -329.839491c -6.34  -4.90c
iter:  29 19:12:33  -329.839491c -6.55  -5.05c
Writing to output.gpw (mode='')

iter:  30 19:12:40  -329.839491c -6.55  -5.15c
iter:  31 19:12:47  -329.839492c -6.79  -5.19c
iter:  32 19:12:55  -329.839492c -6.93  -5.35c
iter:  33 19:13:02  -329.839492c -7.24  -5.43c
iter:  34 19:13:10  -329.839491c -7.09  -5.46c
Writing to output.gpw (mode='')

iter:  35 19:13:17  -329.839492c -7.19  -5.51c
iter:  36 19:13:24  -329.839492c -7.30  -5.59c
iter:  37 19:13:31  -329.839492c -7.33  -5.66c
iter:  38 19:13:39  -329.839492c -7.54c -5.66c

Converged after 38 iterations.

Dipole moment: (-21.292425, -15.260206, 0.516101) |e|*Ang

Energy contributions relative to reference atoms: (reference = -15487.462483)

Kinetic:       +195.746635
Potential:     -182.480118
External:        +0.000000
XC:            -343.830449
Entropy (-ST):   -0.149027
Local:           +0.798953
--------------------------
Free energy:   -329.914006
Extrapolated:  -329.839492

Dipole-layer corrected work functions: 3.370769, 2.378646 eV

Showing only first 2 kpts
 Kpt  Band  Eigenvalues  Occupancy
  0    34     -3.13594    1.98929
  0    35     -3.01890    1.89409
  0    36     -2.74871    0.14893
  0    37     -2.63416    0.01615

  1    34     -2.94536    1.60846
  1    35     -2.89636    1.21324
  1    36     -2.80045    0.36933
  1    37     -2.79071    0.31418


Fermi level: -2.87471

Gap: 0.026 eV
Transition (v -> c):
  (s=0, k=1, n=35, [0.12, -0.12, 0.00]) -> (s=0, k=7, n=36, [0.38, 0.38, 0.00])
Writing to output.gpw (mode='')


Forces in eV/Ang:
  0 Li    0.01664    0.00079   -0.28068
  1 Li   -0.00926   -0.00634   -0.25983
  2 Li   -0.00570    0.01904   -0.27932
  3 Li   -0.01035    0.00191   -0.26151
  4 Li    0.00389   -0.00044   -0.28409
  5 Li    0.00135   -0.00148   -0.26176
  6 Li    0.01816   -0.00170   -0.28068
  7 Li   -0.01226    0.00660   -0.26331
  8 Li   -0.00256   -0.01791   -0.27923
  9 Li   -0.00373    0.00082    0.36774
 10 Li    0.00341   -0.00062    0.24474
 11 Li   -0.00894    0.00037    0.28270
 12 Li   -0.00195    0.01618    0.26268
 13 Li    0.01148   -0.00163    0.25660
 14 Li   -0.00347    0.01295    0.25761
 15 Li   -0.00005   -0.01791    0.25770
 16 Li    0.00382    0.00119    0.25880
 17 Li   -0.00071   -0.01092    0.26444
 18 Li    0.02752    0.03541   -0.05351
 19 Li    0.01557   -0.01879    0.07120
 20 Li   -0.03463    0.04542   -0.10954
 21 Li   -0.00146   -0.00174    0.05702
 22 Li   -0.00973   -0.00127   -0.00072
 23 Li    0.01028    0.00044    0.07743
 24 Li    0.02157   -0.03532   -0.03962
 25 Li    0.01338    0.01872    0.06709
 26 Li   -0.02661   -0.04459   -0.11426
 27 Li    0.74302   -0.04275   -4.46025
 28 Li    0.05608   -0.00515   -0.04793
 29 Li    0.21743   -0.00112    0.20467
 30 Li    0.02273    0.09988   -0.05512
 31 Li    0.00803   -0.00053   -0.02281
 32 Li   -0.04423    0.05548   -0.03949
 33 Li    0.03269   -0.11211   -0.05812
 34 Li   -0.00063    0.01044   -0.01296
 35 Li   -0.04612   -0.06561   -0.03346
 36 O     1.60172   -1.39011    4.67132
 37 C     0.01425    0.01003    0.52692
 38 C     0.35962    0.61942    1.41704
 39 C    -0.01944    0.02968    0.25311
 40 H     0.05285    0.07333    0.01549
 41 H    -0.06105    0.06127    0.04878
 42 H     0.00145    0.03911    0.08943
 43 H     0.18999    0.33933    0.35063
 44 H    -0.01299   -0.00020    0.01715
 45 H    -0.00072   -0.03852    0.09579
 46 H     0.00181   -0.02306    0.00716
 47 H     0.94066   -0.53363    1.04223
 48 N    -0.79536    0.81586   -1.17042
 49 N    -3.29812   -0.03168   -2.76805

System changes: positions 

Initializing position-dependent things.

Density initialized from wave functions
       .-----------------------.  
      /|                       |  
     / |                       |  
    /  |                       |  
   /   |                       H  
  /    |                       |  
 *     |                       |  
 |     C H                  H  |  
 |     |                       |  
 |     O                       |  
 |  H  | H             H       |  
 |     |                 C     |  
 |     |                    N  |  
 |  H  Li      Li      LH      |  
 C     |                       |  
 |   Li|     Li      Li        |  
 |     |                       |  
 | Li  |  LLi     LLi    NLi   |  
 |     |                       |  
 |     |Li      Li      Li     |  
 |   Li|     Li      Li        |  
 |    Li  Li  Li  Li  Li  Li   |  
 | Li  |   Li      Li          |  
 |     |Li      Li      Li     |  
 Li    | Li      Li            |  
 |    Li      Li      Li       |  
 |     |                       |  
 |     |                       |  
 |     |                       |  
 |     |                       |  
 |     |                       |  
 |     |                       |  
 |     .-----------------------.  
 |    /                       /   
 |   /                       /    
 |  /                       /     
 | /                       /      
 |/                       /       
 *-----------------------*        

Positions:
   0 Li     1.617037    1.617037   10.000000    ( 0.0000,  0.0000,  0.0000)
   1 Li     4.851111    1.617037   10.000000    ( 0.0000,  0.0000,  0.0000)
   2 Li     8.085185    1.617037   10.000000    ( 0.0000,  0.0000,  0.0000)
   3 Li     1.617037    4.851111   10.000000    ( 0.0000,  0.0000,  0.0000)
   4 Li     4.851111    4.851111   10.000000    ( 0.0000,  0.0000,  0.0000)
   5 Li     8.085185    4.851111   10.000000    ( 0.0000,  0.0000,  0.0000)
   6 Li     1.617037    8.085185   10.000000    ( 0.0000,  0.0000,  0.0000)
   7 Li     4.851111    8.085185   10.000000    ( 0.0000,  0.0000,  0.0000)
   8 Li     8.085185    8.085185   10.000000    ( 0.0000,  0.0000,  0.0000)
   9 Li     0.000000    0.000000   11.617037    ( 0.0000,  0.0000,  0.0000)
  10 Li     3.234074    0.000000   11.617037    ( 0.0000,  0.0000,  0.0000)
  11 Li     6.468148    0.000000   11.617037    ( 0.0000,  0.0000,  0.0000)
  12 Li     0.000000    3.234074   11.617037    ( 0.0000,  0.0000,  0.0000)
  13 Li     3.234074    3.234074   11.617037    ( 0.0000,  0.0000,  0.0000)
  14 Li     6.468148    3.234074   11.617037    ( 0.0000,  0.0000,  0.0000)
  15 Li     0.000000    6.468148   11.617037    ( 0.0000,  0.0000,  0.0000)
  16 Li     3.234074    6.468148   11.617037    ( 0.0000,  0.0000,  0.0000)
  17 Li     6.468148    6.468148   11.617037    ( 0.0000,  0.0000,  0.0000)
  18 Li     1.617973    1.618234   13.467832    ( 0.0000,  0.0000,  0.0000)
  19 Li     4.851674    1.616330   13.472384    ( 0.0000,  0.0000,  0.0000)
  20 Li     8.083948    1.618682   13.465688    ( 0.0000,  0.0000,  0.0000)
  21 Li     1.616950    4.851057   13.471893    ( 0.0000,  0.0000,  0.0000)
  22 Li     4.850760    4.851047   13.469698    ( 0.0000,  0.0000,  0.0000)
  23 Li     8.085584    4.851136   13.472650    ( 0.0000,  0.0000,  0.0000)
  24 Li     1.617739    8.083978   13.468325    ( 0.0000,  0.0000,  0.0000)
  25 Li     4.851586    8.085898   13.472245    ( 0.0000,  0.0000,  0.0000)
  26 Li     8.084271    8.083574   13.465473    ( 0.0000,  0.0000,  0.0000)
  27 Li     0.028456   -0.001402   15.276282    ( 0.0000,  0.0000,  0.0000)
  28 Li     3.236148   -0.000173   15.444133    ( 0.0000,  0.0000,  0.0000)
  29 Li     6.476587   -0.000009   15.453845    ( 0.0000,  0.0000,  0.0000)
  30 Li     0.000817    3.237743   15.443945    ( 0.0000,  0.0000,  0.0000)
  31 Li     3.234388    3.234076   15.445083    ( 0.0000,  0.0000,  0.0000)
  32 Li     6.466518    3.236113   15.444480    ( 0.0000,  0.0000,  0.0000)
  33 Li     0.001201    6.463950   15.443796    ( 0.0000,  0.0000,  0.0000)
  34 Li     3.234091    6.468495   15.445439    ( 0.0000,  0.0000,  0.0000)
  35 Li     6.466408    6.465693   15.444714    ( 0.0000,  0.0000,  0.0000)
  36 O      9.752185    9.652142   18.609332    ( 0.0000,  0.0000,  0.0000)
  37 C      9.702569    9.318482   20.902939    ( 0.0000,  0.0000,  0.0000)
  38 C      9.726711   10.346647   19.799095    ( 0.0000,  0.0000,  0.0000)
  39 C      9.695367    9.976385   22.268206    ( 0.0000,  0.0000,  0.0000)
  40 H      8.826425    8.673788   20.761209    ( 0.0000,  0.0000,  0.0000)
  41 H     10.586215    8.674748   20.786910    ( 0.0000,  0.0000,  0.0000)
  42 H      8.810700   10.948019   19.764596    ( 0.0000,  0.0000,  0.0000)
  43 H     10.590023   11.007151   19.845310    ( 0.0000,  0.0000,  0.0000)
  44 H      8.809725   10.603160   22.394295    ( 0.0000,  0.0000,  0.0000)
  45 H      9.695184    9.231478   23.059852    ( 0.0000,  0.0000,  0.0000)
  46 H     10.574388   10.611716   22.401905    ( 0.0000,  0.0000,  0.0000)
  47 H     10.514555    9.100114   18.437011    ( 0.0000,  0.0000,  0.0000)
  48 N      9.641490    9.732993   16.902972    ( 0.0000,  0.0000,  0.0000)
  49 N      8.517559    9.700628   16.850717    ( 0.0000,  0.0000,  0.0000)

Unit cell:
           periodic     x           y           z      points  spacing
  1. axis:    yes    9.702222    0.000000    0.000000    60     0.1617
  2. axis:    yes    0.000000    9.702222    0.000000    60     0.1617
  3. axis:    no     0.000000    0.000000   26.351111   164     0.1607

  Lengths:   9.702222   9.702222  26.351111
  Angles:   90.000000  90.000000  90.000000

Effective grid spacing dv^(1/3) = 0.1614

     iter     time        total  log10-change:
                         energy  eigst   dens
iter:   1 19:13:48  -330.332802  -0.92
iter:   2 19:13:55  -330.332373  -1.66  -2.17
iter:   3 19:14:03  -330.331234c -2.17  -2.25
iter:   4 19:14:10  -330.328059c -2.11  -2.39
Writing to output.gpw (mode='')

iter:   5 19:14:23  -330.327800c -2.50  -2.53
iter:   6 19:14:31  -330.327988c -2.64  -2.64
iter:   7 19:14:38  -330.327282c -2.78  -2.70
iter:   8 19:14:46  -330.327361c -3.22  -3.03
iter:   9 19:14:53  -330.327428c -3.68  -3.10
Writing to output.gpw (mode='')

iter:  10 19:15:01  -330.327403c -3.54  -3.12
iter:  11 19:15:08  -330.327433c -3.91  -3.25
iter:  12 19:15:15  -330.327393c -4.43  -3.37
iter:  13 19:15:24  -330.327385c -4.44  -3.41
iter:  14 19:15:33  -330.327349c -4.41  -3.45
Writing to output.gpw (mode='')

iter:  15 19:15:43  -330.327370c -4.88  -3.74
iter:  16 19:15:52  -330.327371c -5.21  -3.86
iter:  17 19:15:59  -330.327375c -5.23  -3.93
iter:  18 19:16:06  -330.327376c -5.12  -4.09c
iter:  19 19:16:14  -330.327383c -5.47  -4.15c
Writing to output.gpw (mode='')

iter:  20 19:16:21  -330.327385c -5.63  -4.25c
iter:  21 19:16:28  -330.327388c -5.51  -4.29c
iter:  22 19:16:36  -330.327389c -6.04  -4.50c
iter:  23 19:16:43  -330.327389c -6.07  -4.55c
iter:  24 19:16:50  -330.327388c -6.14  -4.56c
Writing to output.gpw (mode='')

iter:  25 19:16:58  -330.327389c -6.09  -4.68c
iter:  26 19:17:05  -330.327390c -6.51  -4.68c
iter:  27 19:17:12  -330.327391c -6.53  -4.73c
iter:  28 19:17:20  -330.327389c -6.60  -4.83c
iter:  29 19:17:27  -330.327389c -6.64  -4.95c
Writing to output.gpw (mode='')

iter:  30 19:17:34  -330.327390c -6.63  -5.15c
iter:  31 19:17:42  -330.327390c -6.99  -5.19c
iter:  32 19:17:49  -330.327390c -6.92  -5.31c
iter:  33 19:17:56  -330.327390c -6.93  -5.42c
iter:  34 19:18:03  -330.327390c -7.12  -5.44c
Writing to output.gpw (mode='')

iter:  35 19:18:11  -330.327391c -7.18  -5.50c
iter:  36 19:18:18  -330.327391c -7.47c -5.56c

Converged after 36 iterations.

Dipole moment: (-20.038056, -14.511284, 0.493285) |e|*Ang

Energy contributions relative to reference atoms: (reference = -15487.462483)

Kinetic:       +193.818553
Potential:     -181.311122
External:        +0.000000
XC:            -343.559289
Entropy (-ST):   -0.148488
Local:           +0.798712
--------------------------
Free energy:   -330.401634
Extrapolated:  -330.327391

Dipole-layer corrected work functions: 3.371452, 2.423189 eV

Showing only first 2 kpts
 Kpt  Band  Eigenvalues  Occupancy
  0    34     -3.15988    1.98957
  0    35     -3.04202    1.89509
  0    36     -2.76868    0.14181
  0    37     -2.65810    0.01658

  1    34     -2.96631    1.59792
  1    35     -2.91795    1.20343
  1    36     -2.82196    0.36270
  1    37     -2.81370    0.31623


Fermi level: -2.89732

Gap: 0.024 eV
Transition (v -> c):
  (s=0, k=1, n=35, [0.12, -0.12, 0.00]) -> (s=0, k=7, n=36, [0.38, 0.38, 0.00])
Writing to output.gpw (mode='')


Forces in eV/Ang:
  0 Li    0.01703    0.00032   -0.28179
  1 Li   -0.00975   -0.00678   -0.25948
  2 Li   -0.00554    0.01899   -0.28053
  3 Li   -0.01086    0.00191   -0.26084
  4 Li    0.00405   -0.00051   -0.28494
  5 Li    0.00152   -0.00105   -0.26162
  6 Li    0.01809   -0.00137   -0.28174
  7 Li   -0.01246    0.00705   -0.26246
  8 Li   -0.00230   -0.01819   -0.28030
  9 Li   -0.00377    0.00077    0.37164
 10 Li    0.00334   -0.00050    0.24518
 11 Li   -0.00947    0.00047    0.28331
 12 Li   -0.00177    0.01617    0.26351
 13 Li    0.01216   -0.00061    0.25610
 14 Li   -0.00404    0.01402    0.25749
 15 Li    0.00007   -0.01796    0.25856
 16 Li    0.00507    0.00011    0.25759
 17 Li   -0.00185   -0.01247    0.26363
 18 Li    0.03536    0.04372   -0.06354
 19 Li    0.01648   -0.01855    0.07116
 20 Li   -0.04013    0.04987   -0.11685
 21 Li   -0.00069   -0.00210    0.05608
 22 Li   -0.01023   -0.00073   -0.00054
 23 Li    0.00994   -0.00002    0.07604
 24 Li    0.02999   -0.04324   -0.04855
 25 Li    0.01440    0.01827    0.06666
 26 Li   -0.03321   -0.04959   -0.11938
 27 Li    0.69814   -0.05636   -3.86925
 28 Li    0.05626   -0.00549   -0.04709
 29 Li    0.21172   -0.00290    0.20295
 30 Li    0.02405    0.09823   -0.05399
 31 Li    0.00788   -0.00061   -0.02296
 32 Li   -0.04602    0.05682   -0.03980
 33 Li    0.03232   -0.10744   -0.05637
 34 Li   -0.00154    0.01107   -0.01364
 35 Li   -0.04522   -0.06457   -0.03387
 36 O     1.23307   -1.23067    3.66870
 37 C     0.02467    0.02092    0.52941
 38 C     0.31686    0.45550    1.11426
 39 C    -0.01719    0.02915    0.31414
 40 H     0.06077    0.09789    0.04044
 41 H    -0.05725    0.06585    0.08991
 42 H     0.06403    0.00714    0.11779
 43 H     0.16895    0.31207    0.37334
 44 H    -0.01831    0.00440    0.03933
 45 H    -0.00270   -0.04926    0.16555
 46 H     0.00674   -0.01693    0.03211
 47 H     0.89180   -0.40820    0.99148
 48 N    -0.82569    0.79775   -1.07543
 49 N    -2.82117   -0.01787   -2.43069

System changes: positions 

Initializing position-dependent things.

Density initialized from wave functions
       .-----------------------.  
      /|                       |  
     / |                       |  
    /  |                       |  
   /   |                       H  
  /    |                       |  
 *     |                       |  
 |     C H                  H  |  
 |     |                       |  
 |     O                       |  
 |  H  | H             H       |  
 |     |                 C     |  
 |     |                    N  |  
 |  H  Li      Li      LH      |  
 C     |                       |  
 |   Li|     Li      Li        |  
 |     |                       |  
 | Li  |  LLi     LLi    NLi   |  
 |     |                       |  
 |     |Li      Li      Li     |  
 |   Li|     Li      Li        |  
 |    Li  Li  Li  Li  Li  Li   |  
 | Li  |   Li      Li          |  
 |     |Li      Li      Li     |  
 Li    | Li      Li            |  
 |    Li      Li      Li       |  
 |     |                       |  
 |     |                       |  
 |     |                       |  
[...]

Kinetic:       +164.996879
Potential:     -159.100469
External:        +0.000000
XC:            -342.459300
Entropy (-ST):   -0.161149
Local:           +0.826079
--------------------------
Free energy:   -335.897959
Extrapolated:  -335.817385

Dipole-layer corrected work functions: 3.383274, 2.687593 eV

Showing only first 2 kpts
 Kpt  Band  Eigenvalues  Occupancy
  0    34     -3.27090    1.98214
  0    35     -3.07190    1.34930
  0    36     -3.00228    0.68006
  0    37     -2.83027    0.03250

  1    34     -3.29529    1.98900
  1    35     -3.19823    1.92577
  1    36     -2.98253    0.51532
  1    37     -2.78162    0.01241


Fermi level: -3.03543

No gap
Writing to output.gpw (mode='')


Forces in eV/Ang:
  0 Li   -0.00174    0.00796   -0.29360
  1 Li    0.00855   -0.01183   -0.29736
  2 Li    0.00073    0.00011   -0.24819
  3 Li    0.00935    0.00745   -0.28582
  4 Li   -0.01006    0.01009   -0.28264
  5 Li    0.01277   -0.01006   -0.29560
  6 Li    0.01990   -0.01814   -0.28582
  7 Li   -0.00845   -0.00980   -0.28592
  8 Li   -0.00747    0.00117   -0.29089
  9 Li   -0.04745    0.05214    0.26374
 10 Li   -0.02744    0.03843    0.29696
 11 Li    0.02584    0.06363    0.32791
 12 Li   -0.06315   -0.02626    0.32922
 13 Li   -0.01167   -0.01691    0.29351
 14 Li    0.04792   -0.03748    0.28066
 15 Li   -0.03569    0.02321    0.28757
 16 Li   -0.01092    0.00334    0.27900
 17 Li    0.01514    0.00114    0.28505
 18 Li   -0.00395    0.00098   -0.00074
 19 Li   -0.00469    0.00354   -0.00171
 20 Li   -0.00345    0.00075   -0.01671
 21 Li    0.00471    0.00834   -0.00120
 22 Li   -0.00264    0.00546   -0.00047
 23 Li    0.00088   -0.00103   -0.00190
 24 Li   -0.00186    0.00116    0.01163
 25 Li   -0.00647    0.00186   -0.00137
 26 Li    0.00073    0.00574    0.00725
 27 Li    0.01363   -0.02125    0.00269
 28 Li   -0.00490    0.00051    0.00250
 29 Li    0.01253    0.00122    0.01041
 30 Li   -0.01452   -0.02011    0.00094
 31 Li    0.00789   -0.00230    0.00080
 32 Li    0.00870   -0.02666    0.00953
 33 Li   -0.00014   -0.00616    0.00279
 34 Li    0.00543   -0.00392    0.00669
 35 Li   -0.00109   -0.01236    0.00584
 36 O    -0.00799    0.01579   -0.05668
 37 C     0.00218    0.02235   -0.02613
 38 C     0.01546   -0.01351   -0.04357
 39 C    -0.01499   -0.00529   -0.03041
 40 H     0.00641    0.00832    0.03674
 41 H    -0.02256    0.01508    0.00621
 42 H     0.00003   -0.02453    0.03978
 43 H     0.01510    0.00177    0.00329
 44 H    -0.00719    0.00578   -0.00280
 45 H     0.00998    0.00548   -0.01184
 46 H    -0.00576   -0.01777    0.02037
 47 H     0.00607   -0.00583    0.01404
 48 N     0.01801    0.00282    0.01365
 49 N     0.00922   -0.01257   -0.02443

System changes: positions 

Initializing position-dependent things.

Density initialized from wave functions
       .-----------------------.  
      /|                       |  
     / |                       |  
    /  |                       |  
   /   |                       |  
  /    H                       |  
 *     |                       |  
 |     |                       |  
 |     C H                  H  |  
 |     |                       |  
 |     |                       |  
 |  H  O H             H       |  
 C     |                       |  
 |     |       Li     Li       |  
 |  H  |                H      |  
 C   Li|     Li      Li        |  
 |     |                       |  
 | Li  |  LLi     LLi     Li   |  
 |     |            N  NLi     |  
 |     |Li      Li      Li     |  
 |   Li|     Li      LLi       |  
 |    Li  Li  Li  Li      Li   |  
 | Li  |   Li      Li          |  
 |     |Li      Li      Li     |  
 Li    | Li      Li            |  
 |    Li      Li      Li       |  
 |     |                       |  
 |     |                       |  
 |     |                       |  
 |     |                       |  
 |     |                       |  
 |     |                       |  
 |     .-----------------------.  
 |    /                       /   
 |   /                       /    
 |  /                       /     
 | /                       /      
 |/                       /       
 *-----------------------*        

Positions:
   0 Li     1.617037    1.617037   10.000000    ( 0.0000,  0.0000,  0.0000)
   1 Li     4.851111    1.617037   10.000000    ( 0.0000,  0.0000,  0.0000)
   2 Li     8.085185    1.617037   10.000000    ( 0.0000,  0.0000,  0.0000)
   3 Li     1.617037    4.851111   10.000000    ( 0.0000,  0.0000,  0.0000)
   4 Li     4.851111    4.851111   10.000000    ( 0.0000,  0.0000,  0.0000)
   5 Li     8.085185    4.851111   10.000000    ( 0.0000,  0.0000,  0.0000)
   6 Li     1.617037    8.085185   10.000000    ( 0.0000,  0.0000,  0.0000)
   7 Li     4.851111    8.085185   10.000000    ( 0.0000,  0.0000,  0.0000)
   8 Li     8.085185    8.085185   10.000000    ( 0.0000,  0.0000,  0.0000)
   9 Li     0.000000    0.000000   11.617037    ( 0.0000,  0.0000,  0.0000)
  10 Li     3.234074    0.000000   11.617037    ( 0.0000,  0.0000,  0.0000)
  11 Li     6.468148    0.000000   11.617037    ( 0.0000,  0.0000,  0.0000)
  12 Li     0.000000    3.234074   11.617037    ( 0.0000,  0.0000,  0.0000)
  13 Li     3.234074    3.234074   11.617037    ( 0.0000,  0.0000,  0.0000)
  14 Li     6.468148    3.234074   11.617037    ( 0.0000,  0.0000,  0.0000)
  15 Li     0.000000    6.468148   11.617037    ( 0.0000,  0.0000,  0.0000)
  16 Li     3.234074    6.468148   11.617037    ( 0.0000,  0.0000,  0.0000)
  17 Li     6.468148    6.468148   11.617037    ( 0.0000,  0.0000,  0.0000)
  18 Li     1.552566    1.665519   13.518617    ( 0.0000,  0.0000,  0.0000)
  19 Li     4.849157    1.601833   13.486838    ( 0.0000,  0.0000,  0.0000)
  20 Li     8.093392    1.610335   13.654902    ( 0.0000,  0.0000,  0.0000)
  21 Li     1.628558    4.889366   13.484437    ( 0.0000,  0.0000,  0.0000)
  22 Li     4.887476    4.811933   13.476641    ( 0.0000,  0.0000,  0.0000)
  23 Li     8.105987    4.864537   13.493277    ( 0.0000,  0.0000,  0.0000)
  24 Li     1.543740    8.148244   13.473756    ( 0.0000,  0.0000,  0.0000)
  25 Li     4.813900    8.066174   13.471101    ( 0.0000,  0.0000,  0.0000)
  26 Li     8.034089    8.142896   13.500963    ( 0.0000,  0.0000,  0.0000)
  27 Li    -0.390541    0.354687   15.982890    ( 0.0000,  0.0000,  0.0000)
  28 Li     3.107212   -0.042810   15.362115    ( 0.0000,  0.0000,  0.0000)
  29 Li     6.242293   -0.027354   15.507169    ( 0.0000,  0.0000,  0.0000)
  30 Li     0.032186    3.445286   15.518184    ( 0.0000,  0.0000,  0.0000)
  31 Li     3.309860    3.295062   15.416854    ( 0.0000,  0.0000,  0.0000)
  32 Li     6.602724    3.118049   15.527689    ( 0.0000,  0.0000,  0.0000)
  33 Li     0.035850    6.610242   15.397961    ( 0.0000,  0.0000,  0.0000)
  34 Li     3.210755    6.493345   15.434563    ( 0.0000,  0.0000,  0.0000)
  35 Li     6.400614    6.401504   15.403552    ( 0.0000,  0.0000,  0.0000)
  36 O      9.822386    9.420937   17.780320    ( 0.0000,  0.0000,  0.0000)
  37 C      9.760710    9.183457   20.234420    ( 0.0000,  0.0000,  0.0000)
  38 C      9.793196   10.132372   19.042121    ( 0.0000,  0.0000,  0.0000)
  39 C      9.734503    9.934808   21.568845    ( 0.0000,  0.0000,  0.0000)
  40 H      8.886580    8.531216   20.140589    ( 0.0000,  0.0000,  0.0000)
  41 H     10.645352    8.536304   20.194705    ( 0.0000,  0.0000,  0.0000)
  42 H      8.890485   10.746418   18.994586    ( 0.0000,  0.0000,  0.0000)
  43 H     10.657051   10.806016   19.103276    ( 0.0000,  0.0000,  0.0000)
  44 H      8.843043   10.560050   21.653025    ( 0.0000,  0.0000,  0.0000)
  45 H      9.730431    9.237975   22.408984    ( 0.0000,  0.0000,  0.0000)
  46 H     10.606853   10.584876   21.673940    ( 0.0000,  0.0000,  0.0000)
  47 H     10.630756    8.884321   17.730654    ( 0.0000,  0.0000,  0.0000)
  48 N      8.402084   11.884909   15.669299    ( 0.0000,  0.0000,  0.0000)
  49 N      7.508858   11.001221   15.668784    ( 0.0000,  0.0000,  0.0000)

Unit cell:
           periodic     x           y           z      points  spacing
  1. axis:    yes    9.702222    0.000000    0.000000    60     0.1617
  2. axis:    yes    0.000000    9.702222    0.000000    60     0.1617
  3. axis:    no     0.000000    0.000000   26.351111   164     0.1607

  Lengths:   9.702222   9.702222  26.351111
  Angles:   90.000000  90.000000  90.000000

Effective grid spacing dv^(1/3) = 0.1614

     iter     time        total  log10-change:
                         energy  eigst   dens
iter:   1 08:06:52  -335.818576  -2.76
iter:   2 08:06:59  -335.818403  -3.39  -2.69
iter:   3 08:07:07  -335.818098c -4.13  -2.86
iter:   4 08:07:14  -335.817966c -4.54  -3.14
Writing to output.gpw (mode='')

iter:   5 08:07:21  -335.817897c -4.47  -3.33
iter:   6 08:07:29  -335.817861c -4.31  -3.52
iter:   7 08:07:36  -335.817851c -4.57  -3.68
iter:   8 08:07:43  -335.817874c -5.11  -3.88
iter:   9 08:07:51  -335.817878c -5.29  -3.99
Writing to output.gpw (mode='')

iter:  10 08:07:58  -335.817882c -5.66  -4.07c
iter:  11 08:08:05  -335.817885c -5.95  -4.13c
iter:  12 08:08:13  -335.817883c -6.21  -4.17c
iter:  13 08:08:20  -335.817877c -6.29  -4.28c
iter:  14 08:08:27  -335.817873c -6.35  -4.50c
Writing to output.gpw (mode='')

iter:  15 08:08:35  -335.817873c -6.52  -4.67c
iter:  16 08:08:42  -335.817872c -6.66  -4.71c
iter:  17 08:08:49  -335.817874c -7.08  -4.75c
iter:  18 08:08:57  -335.817874c -7.29  -4.76c
iter:  19 08:09:04  -335.817874c -7.34  -4.85c
Writing to output.gpw (mode='')

iter:  20 08:09:11  -335.817874c -7.36  -5.00c
iter:  21 08:09:23  -335.817876c -7.64c -5.08c

Converged after 21 iterations.

Dipole moment: (-34.738098, -1.177359, 0.362021) |e|*Ang

Energy contributions relative to reference atoms: (reference = -15487.462483)

Kinetic:       +165.006003
Potential:     -159.109198
External:        +0.000000
XC:            -342.460227
Entropy (-ST):   -0.161126
Local:           +0.826109
--------------------------
Free energy:   -335.898440
Extrapolated:  -335.817876

Dipole-layer corrected work functions: 3.383143, 2.687214 eV

Showing only first 2 kpts
 Kpt  Band  Eigenvalues  Occupancy
  0    34     -3.27066    1.98214
  0    35     -3.07162    1.34907
  0    36     -3.00203    0.68015
  0    37     -2.82991    0.03243

  1    34     -3.29509    1.98901
  1    35     -3.19784    1.92558
  1    36     -2.98243    0.51653
  1    37     -2.78158    0.01246


Fermi level: -3.03518

No gap
Writing to output.gpw (mode='')


Forces in eV/Ang:
  0 Li   -0.00179    0.00789   -0.29367
  1 Li    0.00849   -0.01185   -0.29726
  2 Li    0.00076    0.00019   -0.24815
  3 Li    0.00932    0.00748   -0.28571
  4 Li   -0.01011    0.01006   -0.28275
  5 Li    0.01273   -0.00998   -0.29557
  6 Li    0.01984   -0.01815   -0.28599
  7 Li   -0.00837   -0.00969   -0.28595
  8 Li   -0.00743    0.00124   -0.29088
  9 Li   -0.04724    0.05139    0.26359
 10 Li   -0.02764    0.03773    0.29709
 11 Li    0.02579    0.06345    0.32746
 12 Li   -0.06248   -0.02585    0.32927
 13 Li   -0.01128   -0.01673    0.29400
 14 Li    0.04765   -0.03787    0.28161
 15 Li   -0.03526    0.02309    0.28719
 16 Li   -0.01052    0.00416    0.27942
 17 Li    0.01448    0.00089    0.28501
 18 Li   -0.00298    0.00145    0.00096
 19 Li   -0.00445    0.00462   -0.00280
 20 Li   -0.00441    0.00077   -0.01325
 21 Li    0.00452    0.00567   -0.00190
 22 Li   -0.00219    0.00516   -0.00058
 23 Li    0.00027   -0.00134   -0.00134
 24 Li   -0.00108    0.00193    0.01014
 25 Li   -0.00598   -0.00065   -0.00189
 26 Li    0.00044    0.00556    0.00882
 27 Li    0.01520   -0.02007    0.00071
 28 Li   -0.00610    0.00120    0.00290
 29 Li    0.01825    0.00695    0.01018
 30 Li   -0.01121   -0.01667   -0.00031
 31 Li    0.00678   -0.00226   -0.00056
 32 Li    0.00677   -0.02338    0.01124
 33 Li   -0.00115   -0.00616    0.00301
 34 Li    0.00609   -0.00364    0.00710
 35 Li   -0.00112   -0.01110    0.00423
 36 O    -0.00358    0.01417   -0.03915
 37 C    -0.00270    0.01026   -0.00834
 38 C     0.00676   -0.00978   -0.03702
 39 C    -0.01497   -0.00173   -0.01802
 40 H     0.01127    0.01408    0.03005
 41 H    -0.01784    0.00927   -0.00098
 42 H     0.00766   -0.01602    0.03463
 43 H     0.00502    0.00498   -0.00562
 44 H    -0.01570    0.00610   -0.00809
 45 H     0.01050    0.00447   -0.01735
 46 H     0.00061   -0.01833    0.01431
 47 H     0.00751   -0.01074    0.00812
 48 N     0.00961   -0.00633    0.01723
 49 N     0.00103   -0.01160   -0.02983

Timing:                                      incl.     excl.
-------------------------------------------------------------------
Density initialized from wave functions:     9.615     9.610   0.0% |
 Symmetrize density:                         0.005     0.005   0.0% |
Forces:                                     76.535    76.535   0.2% |
Hamiltonian:                              1067.529     0.023   0.0% |
 Atomic:                                     0.044     0.044   0.0% |
  XC Correction:                             0.000     0.000   0.0% |
 Calculate atomic Hamiltonians:              0.076     0.076   0.0% |
 Communicate:                               15.132    15.132   0.0% |
 Hartree integrate/restrict:                 4.792     4.792   0.0% |
 Initialize Hamiltonian:                     0.000     0.000   0.0% |
 Poisson:                                   52.292    19.423   0.0% |
  Communicate from 1D:                       5.014     5.014   0.0% |
  Communicate from 2D:                       5.526     5.526   0.0% |
  Communicate to 1D:                         3.392     3.392   0.0% |
  Communicate to 2D:                         6.626     6.626   0.0% |
  FFT 1D:                                    6.264     6.264   0.0% |
  FFT 2D:                                    6.046     6.046   0.0% |
 XC 3D grid:                               994.371   148.024   0.3% |
  VdW-DF integral:                         846.347     7.050   0.0% |
   Convolution:                             76.384    76.384   0.2% |
   FFT:                                     33.332    33.332   0.1% |
   gather:                                 295.252   295.252   0.6% |
   hmm1:                                    27.740    27.740   0.1% |
   hmm2:                                    35.941    35.941   0.1% |
   iFFT:                                    34.052    34.052   0.1% |
   potential:                              332.992     8.651   0.0% |
    collect:                                49.791    49.791   0.1% |
    p1:                                    147.760   147.760   0.3% |
    p2:                                     55.108    55.108   0.1% |
    sum:                                    71.682    71.682   0.1% |
   splines:                                  3.605     3.605   0.0% |
 vbar:                                       0.800     0.800   0.0% |
LCAO initialization:                         1.191     0.183   0.0% |
 LCAO eigensolver:                           0.273     0.000   0.0% |
  Calculate projections:                     0.000     0.000   0.0% |
  DenseAtomicCorrection:                     0.000     0.000   0.0% |
  Distribute overlap matrix:                 0.151     0.151   0.0% |
  Orbital Layouts:                           0.119     0.119   0.0% |
  Potential matrix:                          0.001     0.001   0.0% |
  Sum over cells:                            0.002     0.002   0.0% |
 LCAO to grid:                               0.613     0.613   0.0% |
 Set positions (LCAO WFS):                   0.122     0.066   0.0% |
  Basic WFS set positions:                   0.001     0.001   0.0% |
  Basis functions set positions:             0.000     0.000   0.0% |
  P tci:                                     0.000     0.000   0.0% |
  ST tci:                                    0.026     0.026   0.0% |
  mktci:                                     0.029     0.029   0.0% |
Redistribute:                                0.119     0.119   0.0% |
SCF-cycle:                               47622.425   823.046   1.7% ||
 Davidson:                               12759.373  3854.430   7.9% |--|
  Apply hamiltonian:                       799.389   799.389   1.6% ||
  Subspace diag:                          2359.105     0.751   0.0% |
   calc_h_matrix:                         1175.617   371.778   0.8% |
    Apply hamiltonian:                     803.839   803.839   1.6% ||
   diagonalize:                            122.507   122.507   0.3% |
   rotate_psi:                            1060.229  1060.229   2.2% ||
  calc. matrices:                         3978.100  2084.179   4.3% |-|
   Apply hamiltonian:                     1893.921  1893.921   3.9% |-|
  diagonalize:                              38.594    38.594   0.1% |
  rotate_psi:                             1729.756  1729.756   3.5% ||
 Density:                                  233.111     0.169   0.0% |
  Atomic density matrices:                  30.591    30.591   0.1% |
  Mix:                                      96.887    96.887   0.2% |
  Multipole moments:                         9.446     9.446   0.0% |
  Pseudo density:                           96.017    95.885   0.2% |
   Symmetrize density:                       0.133     0.133   0.0% |
 Hamiltonian:                            33771.235     0.776   0.0% |
  Atomic:                                    1.648     1.631   0.0% |
   XC Correction:                            0.016     0.016   0.0% |
  Calculate atomic Hamiltonians:             2.596     2.596   0.0% |
  Communicate:                             482.248   482.248   1.0% |
  Hartree integrate/restrict:              134.853   134.853   0.3% |
  Poisson:                                1587.495   580.276   1.2% |
   Communicate from 1D:                    154.771   154.771   0.3% |
   Communicate from 2D:                    165.462   165.462   0.3% |
   Communicate to 1D:                       90.043    90.043   0.2% |
   Communicate to 2D:                      194.345   194.345   0.4% |
   FFT 1D:                                 203.829   203.829   0.4% |
   FFT 2D:                                 198.769   198.769   0.4% |
  XC 3D grid:                            31535.248  4683.698   9.6% |---|
   VdW-DF integral:                      26851.550   226.345   0.5% |
    Convolution:                          2462.400  2462.400   5.0% |-|
    FFT:                                  1074.543  1074.543   2.2% ||
    gather:                               9394.156  9394.156  19.2% |-------|
    hmm1:                                  891.255   891.255   1.8% ||
    hmm2:                                 1159.080  1159.080   2.4% ||
    iFFT:                                 1098.718  1098.718   2.2% ||
    potential:                           10544.985   281.589   0.6% |
     collect:                             1623.851  1623.851   3.3% ||
     p1:                                  4757.925  4757.925   9.7% |---|
     p2:                                  1775.293  1775.293   3.6% ||
     sum:                                 2106.327  2106.327   4.3% |-|
    splines:                                 0.068     0.068   0.0% |
  vbar:                                     26.371    26.371   0.1% |
 Orthonormalize:                            35.660     0.027   0.0% |
  calc_s_matrix:                             5.182     5.182   0.0% |
  inverse-cholesky:                         10.705    10.705   0.0% |
  projections:                               0.004     0.004   0.0% |
  rotate_psi_s:                             19.742    19.742   0.0% |
Set symmetry:                                0.026     0.026   0.0% |
Other:                                     194.459   194.459   0.4% |
-------------------------------------------------------------------
Total:                                             48971.900 100.0%

Memory usage: 1.12 GiB
Date: Sat Mar 11 08:09:25 2023
