
  ___ ___ ___ _ _ _  
 |   |   |_  | | | | 
 | | | | | . | | | | 
 |__ |  _|___|_____|  22.8.0
 |___|_|             

User:   vazumah@r445.ib.bridges2.psc.edu
Date:   Fri Mar 10 21:52:26 2023
Arch:   x86_64
Pid:    41203
CWD:    /jet/home/vazumah/Calcs/LiMEAS/proton_donors/propanediol13_z/ontop/9.702_9.702/N2_x
Python: 3.11.0
gpaw:   /jet/home/vazumah/.conda/envs/GPAW_mpich/lib/python3.11/site-packages/gpaw
_gpaw:  /jet/home/vazumah/.conda/envs/GPAW_mpich/lib/python3.11/site-packages/
        _gpaw.cpython-311-x86_64-linux-gnu.so
ase:    /jet/home/vazumah/.conda/envs/GPAW_mpich/lib/python3.11/site-packages/ase (version 3.22.1)
numpy:  /jet/home/vazumah/.conda/envs/GPAW_mpich/lib/python3.11/site-packages/numpy (version 1.24.2)
scipy:  /jet/home/vazumah/.conda/envs/GPAW_mpich/lib/python3.11/site-packages/scipy (version 1.10.1)
libxc:  5.2.3
units:  Angstrom and eV
cores: 128
OpenMP: True
OMP_NUM_THREADS: 1

Input parameters:
  h: 0.16
  kpts: {size: [4, 4, 1]}
  occupations: {name: fermi-dirac,
                width: 0.05}
  poissonsolver: {dipolelayer: xy}
  xc: BEEF-vdW

System changes: positions, numbers, cell, pbc, initial_charges, initial_magmoms 

Initialize ...

species:
  Li:
    name: Lithium
    id: 830b4218f175192f93f959cfc0aad614
    Z: 3.0
    valence: 1
    core: 2
    charge: 0.0
    file: /jet/home/vazumah/datasets/gpaw-setups-0.9.20000/Li.PBE.gz
    compensation charges: {type: gauss,
                           rc: 0.33,
                           lmax: 2}
    cutoffs: {filter: 1.91,
              core: 2.55}
    valence states:
      #              energy  rcut
      - 2s(1.00)    -2.874   1.058
      - 2p(0.00)    -1.090   1.058
      -  s          24.337   1.058
  
    # Using partial waves for Li as LCAO basis

  O:
    name: Oxygen
    id: 32ecd46bf208036f09c70b0ec9a88b78
    Z: 8.0
    valence: 6
    core: 2
    charge: 0.0
    file: /jet/home/vazumah/datasets/gpaw-setups-0.9.20000/O.PBE.gz
    compensation charges: {type: gauss,
                           rc: 0.21,
                           lmax: 2}
    cutoffs: {filter: 1.17,
              core: 0.83}
    valence states:
      #              energy  rcut
      - 2s(2.00)   -23.961   0.688
      - 2p(4.00)    -9.029   0.598
      -  s           3.251   0.688
      -  p          18.182   0.598
      -  d           0.000   0.619
  
    # Using partial waves for O as LCAO basis

  C:
    name: Carbon
    id: 4aa54d4b901d75f77cc0ea3eec22967b
    Z: 6.0
    valence: 4
    core: 2
    charge: 0.0
    file: /jet/home/vazumah/datasets/gpaw-setups-0.9.20000/C.PBE.gz
    compensation charges: {type: gauss,
                           rc: 0.20,
                           lmax: 2}
    cutoffs: {filter: 1.14,
              core: 1.14}
    valence states:
      #              energy  rcut
      - 2s(2.00)   -13.751   0.635
      - 2p(2.00)    -5.284   0.635
      -  s          13.461   0.635
      -  p          21.927   0.635
      -  d           0.000   0.635
  
    # Using partial waves for C as LCAO basis

  H:
    name: Hydrogen
    id: d65de229564ff8ea4db303e23b6d1ecf
    Z: 1.0
    valence: 1
    core: 0
    charge: 0.0
    file: /jet/home/vazumah/datasets/gpaw-setups-0.9.20000/H.PBE.gz
    compensation charges: {type: gauss,
                           rc: 0.15,
                           lmax: 2}
    cutoffs: {filter: 0.85,
              core: 0.53}
    valence states:
      #              energy  rcut
      - 1s(1.00)    -6.494   0.476
      -  s          20.717   0.476
      -  p           0.000   0.476
  
    # Using partial waves for H as LCAO basis

  N:
    name: Nitrogen
    id: f7500608b86eaa90eef8b1d9a670dc53
    Z: 7.0
    valence: 5
    core: 2
    charge: 0.0
    file: /jet/home/vazumah/datasets/gpaw-setups-0.9.20000/N.PBE.gz
    compensation charges: {type: gauss,
                           rc: 0.18,
                           lmax: 2}
    cutoffs: {filter: 1.11,
              core: 0.96}
    valence states:
      #              energy  rcut
      - 2s(2.00)   -18.583   0.603
      - 2p(3.00)    -7.089   0.529
      -  s           8.629   0.603
      -  p          20.123   0.529
      -  d           0.000   0.577
  
    # Using partial waves for N as LCAO basis

Reference energy: -17528.314784  # eV

Spin-paired calculation

Convergence criteria:
 Maximum [total energy] change in last 3 cyles: 0.0005 eV / electron
 Maximum integral of absolute [dens]ity change: 0.0001 electrons / valence electron
 Maximum integral of absolute [eigenst]ate change: 4e-08 eV^2 / valence electron
 Maximum number of scf [iter]ations: 333
 (Square brackets indicate name in SCF output, whereas a 'c' in
 the SCF output indicates the quantity has converged.)

Symmetries present (total): 1

  ( 1  0  0)
  ( 0  1  0)
  ( 0  0  1)

16 k-points: 4 x 4 x 1 Monkhorst-Pack grid
8 k-points in the irreducible part of the Brillouin zone
       k-points in crystal coordinates                weights
   0:     0.12500000   -0.37500000    0.00000000          2/16
   1:     0.12500000   -0.12500000    0.00000000          2/16
   2:     0.12500000    0.12500000    0.00000000          2/16
   3:     0.12500000    0.37500000    0.00000000          2/16
   4:     0.37500000   -0.37500000    0.00000000          2/16
   5:     0.37500000   -0.12500000    0.00000000          2/16
   6:     0.37500000    0.12500000    0.00000000          2/16
   7:     0.37500000    0.37500000    0.00000000          2/16

Wave functions: Uniform real-space grid
  Kinetic energy operator: 6*3+1=19 point O(h^6) finite-difference Laplacian
  ScaLapack parameters: grid=1x1, blocksize=None
  Wavefunction extrapolation:
    Improved wavefunction reuse through dual PAW basis 

Occupation numbers: Fermi-Dirac:
  width: 0.0500  # eV
 

Eigensolver
   Davidson(niter=2) 

Densities:
  Coarse grid: 60*60*176 grid
  Fine grid: 120*120*352 grid
  Total Charge: 0.000000 

Density mixing:
  Method: separate
  Backend: pulay
  Linear mixing parameter: 0.05
  old densities: 5
  Damping of long wavelength oscillations: 50 

Hamiltonian:
  XC and Coulomb potentials evaluated on a 120*120*352 grid
  Using the BEEF-vdW Exchange-Correlation functional
  Interpolation: tri-quintic (5. degree polynomial)
  Poisson solver: FastPoissonSolver using
    Stencil: 6*3+1=19 point O(h^6) finite-difference Laplacian
    FFT axes: [0, 1]
    FST axes: [2]

Dipole correction along z-axis 

XC parameters: BEEF-vdW with 2 nearest neighbor stencil

Memory estimate:
  Process memory now: 129.61 MiB
  Calculator: 93.74 MiB
    Density: 23.40 MiB
      Arrays: 7.76 MiB
      Localized functions: 12.69 MiB
      Mixer: 2.95 MiB
    Hamiltonian: 6.08 MiB
      Arrays: 5.07 MiB
      XC: 0.00 MiB
      Poisson: 0.00 MiB
      vbar: 1.00 MiB
    Wavefunctions: 64.26 MiB
      Arrays psit_nG: 30.12 MiB
      Eigensolver: 33.47 MiB
      Projections: 0.02 MiB
      Projectors: 0.67 MiB

Total number of cores used: 128
Parallelization over k-points: 8
Domain decomposition: 2 x 2 x 4

Number of atoms: 51
Number of atomic orbitals: 180
Number of bands in calculation: 51
Number of valence electrons: 78
Bands to converge: occupied

... initialized

Initializing position-dependent things.

Density initialized from atomic densities
Creating initial wave functions:
  51 bands from LCAO basis set

       .-----------------------.  
      /|                       |  
     / |                       |  
    /  |                       |  
   /   |                       |  
  /    |                       |  
 *     O                       |  
 |     |                       |  
 |     C                    H  |  
 |     |H                      C  
 |     |                       |  
 |     |                      C|  
 | H   |H                   H  |  
 |     |                       |  
 |     H                    N  N  
 |  H  |               H       |  
 |     |                       |  
 |     |                       |  
 O   Li|     Li      Li        |  
 |     |  Li      Li      Li   |  
 | Li  |   Li      Li          |  
 |     |Li      Li      Li     |  
 Li    | Li      Li            |  
 |   LLi     LLi     LLi       |  
 |     |  Li      Li      Li   |  
 | Li  |   Li      Li          |  
 |     |Li      Li      Li     |  
 Li    | Li      Li            |  
 |    Li      Li      Li       |  
 |     |                       |  
 |     |                       |  
 |     |                       |  
 |     |                       |  
 |     |                       |  
 |     |                       |  
 |     .-----------------------.  
 |    /                       /   
 |   /                       /    
 |  /                       /     
 | /                       /      
 |/                       /       
 *-----------------------*        

Positions:
   0 Li     1.617037    1.617037   10.000000    ( 0.0000,  0.0000,  0.0000)
   1 Li     4.851111    1.617037   10.000000    ( 0.0000,  0.0000,  0.0000)
   2 Li     8.085185    1.617037   10.000000    ( 0.0000,  0.0000,  0.0000)
   3 Li     1.617037    4.851111   10.000000    ( 0.0000,  0.0000,  0.0000)
   4 Li     4.851111    4.851111   10.000000    ( 0.0000,  0.0000,  0.0000)
   5 Li     8.085185    4.851111   10.000000    ( 0.0000,  0.0000,  0.0000)
   6 Li     1.617037    8.085185   10.000000    ( 0.0000,  0.0000,  0.0000)
   7 Li     4.851111    8.085185   10.000000    ( 0.0000,  0.0000,  0.0000)
   8 Li     8.085185    8.085185   10.000000    ( 0.0000,  0.0000,  0.0000)
   9 Li     0.000000    0.000000   11.617037    ( 0.0000,  0.0000,  0.0000)
  10 Li     3.234074    0.000000   11.617037    ( 0.0000,  0.0000,  0.0000)
  11 Li     6.468148    0.000000   11.617037    ( 0.0000,  0.0000,  0.0000)
  12 Li     0.000000    3.234074   11.617037    ( 0.0000,  0.0000,  0.0000)
  13 Li     3.234074    3.234074   11.617037    ( 0.0000,  0.0000,  0.0000)
  14 Li     6.468148    3.234074   11.617037    ( 0.0000,  0.0000,  0.0000)
  15 Li     0.000000    6.468148   11.617037    ( 0.0000,  0.0000,  0.0000)
  16 Li     3.234074    6.468148   11.617037    ( 0.0000,  0.0000,  0.0000)
  17 Li     6.468148    6.468148   11.617037    ( 0.0000,  0.0000,  0.0000)
  18 Li     1.617038    1.617038   13.469728    ( 0.0000,  0.0000,  0.0000)
  19 Li     4.851111    1.617038   13.469729    ( 0.0000,  0.0000,  0.0000)
  20 Li     8.085184    1.617038   13.469728    ( 0.0000,  0.0000,  0.0000)
  21 Li     1.617038    4.851111   13.469729    ( 0.0000,  0.0000,  0.0000)
  22 Li     4.851111    4.851111   13.469730    ( 0.0000,  0.0000,  0.0000)
  23 Li     8.085184    4.851111   13.469729    ( 0.0000,  0.0000,  0.0000)
  24 Li     1.617038    8.085184   13.469728    ( 0.0000,  0.0000,  0.0000)
  25 Li     4.851111    8.085184   13.469729    ( 0.0000,  0.0000,  0.0000)
  26 Li     8.085184    8.085184   13.469728    ( 0.0000,  0.0000,  0.0000)
  27 Li    -0.000000   -0.000000   15.445939    ( 0.0000,  0.0000,  0.0000)
  28 Li     3.234074    0.000000   15.445939    ( 0.0000,  0.0000,  0.0000)
  29 Li     6.468148    0.000000   15.445939    ( 0.0000,  0.0000,  0.0000)
  30 Li     0.000000    3.234074   15.445939    ( 0.0000,  0.0000,  0.0000)
  31 Li     3.234076    3.234076   15.445938    ( 0.0000,  0.0000,  0.0000)
  32 Li     6.468146    3.234076   15.445938    ( 0.0000,  0.0000,  0.0000)
  33 Li     0.000000    6.468148   15.445939    ( 0.0000,  0.0000,  0.0000)
  34 Li     3.234076    6.468146   15.445938    ( 0.0000,  0.0000,  0.0000)
  35 Li     6.468146    6.468146   15.445938    ( 0.0000,  0.0000,  0.0000)
  36 O      9.702222    9.702222   18.445939    ( 0.0000,  0.0000,  0.0000)
  37 O      9.708332    9.681893   23.308281    ( 0.0000,  0.0000,  0.0000)
  38 C      9.687775    9.700677   20.841854    ( 0.0000,  0.0000,  0.0000)
  39 C      9.699343    8.834403   19.590809    ( 0.0000,  0.0000,  0.0000)
  40 C      9.711704    8.870410   22.124471    ( 0.0000,  0.0000,  0.0000)
  41 H     10.562435   10.361184   20.819771    ( 0.0000,  0.0000,  0.0000)
  42 H      8.799770   10.337788   20.841713    ( 0.0000,  0.0000,  0.0000)
  43 H     10.592891    8.194144   19.585879    ( 0.0000,  0.0000,  0.0000)
  44 H      8.812658    8.185725   19.577267    ( 0.0000,  0.0000,  0.0000)
  45 H     10.579027    8.194844   22.125172    ( 0.0000,  0.0000,  0.0000)
  46 H      8.811601    8.254319   22.201319    ( 0.0000,  0.0000,  0.0000)
  47 H      9.707089    9.157865   17.650414    ( 0.0000,  0.0000,  0.0000)
  48 H     10.482849   10.256933   23.275699    ( 0.0000,  0.0000,  0.0000)
  49 N      9.702000    9.702000   16.945939    ( 0.0000,  0.0000,  0.0000)
  50 N      8.605378    9.702000   16.945939    ( 0.0000,  0.0000,  0.0000)

Unit cell:
           periodic     x           y           z      points  spacing
  1. axis:    yes    9.702222    0.000000    0.000000    60     0.1617
  2. axis:    yes    0.000000    9.702222    0.000000    60     0.1617
  3. axis:    no     0.000000    0.000000   28.351111   176     0.1611

  Lengths:   9.702222   9.702222  28.351111
  Angles:   90.000000  90.000000  90.000000

Effective grid spacing dv^(1/3) = 0.1615

     iter     time        total  log10-change:
                         energy  eigst   dens
iter:   1 21:52:42  -808.894774
iter:   2 21:52:50   102.288146  +2.67  +0.04
iter:   3 21:52:58   165.457238  +3.36  -0.13
iter:   4 21:53:06  -201.321375  +3.50  -0.22
Writing to output.gpw (mode='')

iter:   5 21:53:13  -287.694983  +2.88  -0.22
iter:   6 21:53:21  -335.140792  +2.49  -0.47
iter:   7 21:53:29  -356.586579  +2.19  -0.52
iter:   8 21:53:37  -355.457102  +2.05  -0.50
iter:   9 21:53:45  -586.583912  +2.81  -0.56
Writing to output.gpw (mode='')

iter:  10 21:53:53  -379.701755  +1.62  -0.24
iter:  11 21:54:01  -356.541372  +1.56  -0.53
iter:  12 21:54:09  -366.301224  +1.23  -0.69
iter:  13 21:54:17  -357.347113  +1.34  -0.64
iter:  14 21:54:25  -350.395015  +1.13  -0.67
Writing to output.gpw (mode='')

iter:  15 21:54:32  -367.183338  +1.53  -0.72
iter:  16 21:54:43  -347.941240  +0.77  -0.53
iter:  17 21:54:52  -346.952293  +0.61  -0.74
iter:  18 21:55:00  -345.190216  +0.61  -0.75
iter:  19 21:55:08  -342.544083  +0.48  -0.81
Writing to output.gpw (mode='')

iter:  20 21:55:15  -341.996313  +0.09  -0.88
iter:  21 21:55:23  -341.428257  +0.19  -0.90
iter:  22 21:55:31  -342.713335  +0.69  -1.01
iter:  23 21:55:39  -342.394251  +0.09  -1.01
iter:  24 21:55:47  -341.402497  -0.21  -1.13
Writing to output.gpw (mode='')

iter:  25 21:55:55  -340.200346  +0.22  -1.23
iter:  26 21:56:03  -340.329096  -0.61  -1.31
iter:  27 21:56:10  -340.138661  -0.44  -1.35
iter:  28 21:56:18  -340.116523  -0.92  -1.38
iter:  29 21:56:26  -340.304301  -0.35  -1.45
Writing to output.gpw (mode='')

iter:  30 21:56:34  -339.974655  -0.68  -1.39
iter:  31 21:56:42  -339.984785  -0.84  -1.66
iter:  32 21:56:50  -339.946218c -1.52  -1.73
iter:  33 21:56:58  -339.948399c -1.13  -1.81
iter:  34 21:57:06  -339.939321c -1.61  -1.82
Writing to output.gpw (mode='')

iter:  35 21:57:14  -339.940836c -1.95  -1.94
iter:  36 21:57:21  -339.942748c -1.67  -1.98
iter:  37 21:57:29  -339.947824c -1.90  -2.07
iter:  38 21:57:37  -339.943513c -2.07  -2.08
iter:  39 21:57:45  -339.943648c -2.10  -2.22
Writing to output.gpw (mode='')

iter:  40 21:57:53  -339.947378c -2.35  -2.42
iter:  41 21:58:01  -339.947895c -2.27  -2.55
iter:  42 21:58:09  -339.948186c -2.42  -2.74
iter:  43 21:58:17  -339.948417c -2.90  -2.85
iter:  44 21:58:25  -339.949289c -2.92  -3.00
Writing to output.gpw (mode='')

iter:  45 21:58:33  -339.949395c -3.01  -3.12
iter:  46 21:58:41  -339.949558c -3.19  -3.38
iter:  47 21:58:49  -339.949774c -3.21  -3.43
iter:  48 21:58:57  -339.949921c -3.13  -3.34
iter:  49 21:59:05  -339.950029c -3.35  -3.58
Writing to output.gpw (mode='')

iter:  50 21:59:13  -339.950083c -3.42  -3.59
iter:  51 21:59:21  -339.950151c -3.42  -3.66
iter:  52 21:59:29  -339.950217c -3.58  -3.77
iter:  53 21:59:41  -339.950292c -3.71  -3.84
iter:  54 21:59:50  -339.950323c -3.60  -3.92
Writing to output.gpw (mode='')

iter:  55 21:59:58  -339.950367c -3.84  -4.00c
iter:  56 22:00:06  -339.950411c -3.94  -4.15c
iter:  57 22:00:14  -339.950438c -4.04  -4.25c
iter:  58 22:00:22  -339.950467c -3.89  -4.25c
iter:  59 22:00:30  -339.950491c -3.98  -4.25c
Writing to output.gpw (mode='')

iter:  60 22:00:38  -339.950518c -3.87  -4.22c
iter:  61 22:00:46  -339.950539c -4.27  -4.18c
iter:  62 22:00:54  -339.950553c -4.37  -4.10c
iter:  63 22:01:02  -339.950563c -4.31  -4.08c
iter:  64 22:01:10  -339.950580c -4.45  -4.06c
Writing to output.gpw (mode='')

iter:  65 22:01:18  -339.950587c -4.48  -4.16c
iter:  66 22:01:26  -339.950596c -4.59  -4.16c
iter:  67 22:01:34  -339.950605c -4.60  -4.09c
iter:  68 22:01:42  -339.950610c -4.59  -4.18c
iter:  69 22:01:50  -339.950613c -4.67  -4.28c
Writing to output.gpw (mode='')

iter:  70 22:01:58  -339.950616c -4.71  -4.32c
iter:  71 22:02:06  -339.950613c -4.88  -4.27c
iter:  72 22:02:14  -339.950623c -4.86  -4.44c
iter:  73 22:02:22  -339.950622c -4.97  -4.48c
iter:  74 22:02:29  -339.950625c -5.07  -4.47c
Writing to output.gpw (mode='')

iter:  75 22:02:38  -339.950629c -5.12  -4.38c
iter:  76 22:02:45  -339.950628c -5.22  -4.60c
iter:  77 22:02:53  -339.950629c -5.32  -4.82c
iter:  78 22:03:01  -339.950631c -5.11  -4.87c
iter:  79 22:03:09  -339.950632c -5.10  -4.96c
Writing to output.gpw (mode='')

iter:  80 22:03:17  -339.950633c -5.41  -4.99c
iter:  81 22:03:25  -339.950633c -5.30  -4.97c
iter:  82 22:03:33  -339.950634c -5.63  -4.93c
iter:  83 22:03:41  -339.950634c -5.65  -4.93c
iter:  84 22:03:49  -339.950635c -5.79  -4.91c
Writing to output.gpw (mode='')

iter:  85 22:04:00  -339.950635c -5.81  -4.92c
iter:  86 22:04:08  -339.950635c -5.89  -4.95c
iter:  87 22:04:16  -339.950635c -5.80  -4.96c
iter:  88 22:04:24  -339.950636c -5.83  -4.95c
iter:  89 22:04:32  -339.950636c -5.85  -5.07c
Writing to output.gpw (mode='')

iter:  90 22:04:44  -339.950636c -6.01  -5.12c
iter:  91 22:04:52  -339.950636c -6.12  -5.15c
iter:  92 22:05:00  -339.950637c -6.25  -5.26c
iter:  93 22:05:08  -339.950637c -6.16  -5.32c
iter:  94 22:05:16  -339.950637c -6.15  -5.41c
Writing to output.gpw (mode='')

iter:  95 22:05:24  -339.950637c -6.38  -5.62c
iter:  96 22:05:32  -339.950637c -6.39  -5.67c
iter:  97 22:05:40  -339.950637c -6.35  -5.70c
iter:  98 22:05:48  -339.950637c -6.27  -5.83c
iter:  99 22:05:56  -339.950637c -6.36  -5.90c
Writing to output.gpw (mode='')

iter: 100 22:06:04  -339.950637c -6.42  -5.88c
iter: 101 22:06:12  -339.950637c -6.62  -5.81c
iter: 102 22:06:19  -339.950637c -6.73  -5.80c
iter: 103 22:06:27  -339.950637c -6.69  -5.84c
iter: 104 22:06:35  -339.950638c -6.76  -5.86c
Writing to output.gpw (mode='')

iter: 105 22:06:43  -339.950638c -6.77  -5.81c
iter: 106 22:06:51  -339.950638c -6.83  -5.85c
iter: 107 22:06:59  -339.950638c -6.83  -5.80c
iter: 108 22:07:07  -339.950638c -6.95  -5.86c
iter: 109 22:07:15  -339.950638c -6.99  -5.73c
Writing to output.gpw (mode='')

iter: 110 22:07:23  -339.950638c -6.96  -5.84c
iter: 111 22:07:31  -339.950638c -7.01  -5.81c
iter: 112 22:07:39  -339.950638c -7.03  -5.89c
iter: 113 22:07:47  -339.950638c -7.06  -5.97c
iter: 114 22:07:55  -339.950638c -7.13  -6.04c
Writing to output.gpw (mode='')

iter: 115 22:08:03  -339.950638c -7.02  -6.15c
iter: 116 22:08:11  -339.950638c -7.24  -6.31c
iter: 117 22:08:19  -339.950638c -7.28  -6.33c
iter: 118 22:08:27  -339.950638c -7.30  -6.37c
iter: 119 22:08:35  -339.950638c -7.34  -6.43c
Writing to output.gpw (mode='')

iter: 120 22:08:43  -339.950638c -7.37  -6.46c
iter: 121 22:08:51  -339.950638c -7.42c -6.52c

Converged after 121 iterations.

Dipole moment: (-25.384495, -15.283118, -0.042046) |e|*Ang

Energy contributions relative to reference atoms: (reference = -17528.314784)

Kinetic:       +242.042174
Potential:     -213.865130
External:        +0.000000
XC:            -369.238231
Entropy (-ST):   -0.157490
Local:           +1.189295
--------------------------
Free energy:   -340.029382
Extrapolated:  -339.950638

Dipole-layer corrected work functions: 3.396350, 3.477176 eV

Showing only first 2 kpts
 Kpt  Band  Eigenvalues  Occupancy
  0    37     -3.68415    1.98590
  0    38     -3.57659    1.88497
  0    39     -3.36191    0.36573
  0    40     -3.18371    0.01260

  1    37     -3.53355    1.74775
  1    38     -3.43346    0.96693
  1    39     -3.35156    0.30789
  1    40     -3.32783    0.20336


Fermi level: -3.43676

No gap
Writing to output.gpw (mode='')


Forces in eV/Ang:
  0 Li    0.01407    0.00587   -0.27921
  1 Li   -0.00557   -0.00392   -0.26241
  2 Li   -0.00781    0.01560   -0.27727
  3 Li   -0.00421    0.00239   -0.26617
  4 Li   -0.00068    0.00160   -0.28681
  5 Li    0.00125   -0.00255   -0.26359
  6 Li    0.01909   -0.00638   -0.28047
  7 Li   -0.00952    0.00306   -0.26927
  8 Li   -0.00639   -0.01344   -0.27827
  9 Li   -0.00426    0.00097    0.34918
 10 Li    0.00342   -0.00099    0.24165
 11 Li   -0.00552    0.00002    0.27814
 12 Li   -0.00152    0.01457    0.26466
 13 Li    0.00981   -0.00517    0.25483
 14 Li   -0.00334    0.01031    0.25865
 15 Li    0.00086   -0.01624    0.25014
 16 Li    0.00010    0.00449    0.25681
 17 Li    0.00043   -0.00685    0.26426
 18 Li    0.01288    0.01070   -0.03548
 19 Li    0.00580   -0.02031    0.06266
 20 Li   -0.01588    0.02729   -0.06853
 21 Li   -0.00725   -0.00126    0.06383
 22 Li   -0.00463   -0.00779    0.00526
 23 Li    0.00925    0.00318    0.07106
 24 Li   -0.00104   -0.01361   -0.02091
 25 Li    0.00631    0.02386    0.06828
 26 Li   -0.00344   -0.03420   -0.08782
 27 Li    0.79539    0.15975   -7.43375
 28 Li    0.03538    0.00139   -0.03232
 29 Li    0.31795    0.02277    0.28410
 30 Li    0.00203    0.07248   -0.01622
 31 Li    0.01395    0.01168   -0.03053
 32 Li   -0.02212    0.02523   -0.01618
 33 Li    0.02092   -0.14214   -0.09544
 34 Li    0.00959   -0.00908   -0.02650
 35 Li   -0.03850   -0.05030   -0.02915
 36 O     3.36755    3.89975   20.31037
 37 O    -0.01688   -0.07773   -0.09797
 38 C     0.03719    0.07965    0.14554
 39 C     1.04232   -0.68209    1.16390
 40 C     0.00512   -0.02797    0.11096
 41 H    -0.00033   -0.01717   -0.02213
 42 H    -0.00570    0.00721   -0.02475
 43 H    -0.04024   -0.04979    0.04548
 44 H    -0.05168    0.06255   -0.24265
 45 H    -0.01756    0.01839    0.00511
 46 H     0.03626    0.01089   -0.00003
 47 H     2.48403  -13.03168    8.24285
 48 H     0.00803   -0.01322    0.02840
 49 N     7.35869    7.87508  -14.77067
 50 N   -15.35697    1.79827   -7.49741

System changes: positions 

Initializing position-dependent things.

Density initialized from wave functions
       .-----------------------.  
      /|                       |  
     / |                       |  
    /  |                       |  
   /   |                       |  
  /    |                       |  
 *     O                       |  
 |     |                       |  
 |     C                    H  |  
 |     |H                      C  
 |     |                       |  
 |     |                      C|  
 | H   |H                   H  |  
 |     |                       |  
 |     H                       |  
 |  H  |               H       |  
 |     |                       |  
 |     |                       |  
 O   Li|     Li      Li        |  
 |     |  Li      Li      Li   |  
 N Li  |   Li      Li N        |  
 |     |Li      Li      Li     |  
 Li    | Li      Li            |  
 |   LLi     LLi     LLi       |  
 |     |  Li      Li      Li   |  
 | Li  |   Li      Li          |  
 |     |Li      Li      Li     |  
 Li    | Li      Li            |  
 |    Li      Li      Li       |  
 |     |                       |  
 |     |                       |  
 |     |                       |  
 |     |                       |  
 |     |                       |  
 |     |                       |  
 |     .-----------------------.  
 |    /                       /   
 |   /                       /    
 |  /                       /     
 | /                       /      
 |/                       /       
 *-----------------------*        

Positions:
   0 Li     1.617037    1.617037   10.000000    ( 0.0000,  0.0000,  0.0000)
   1 Li     4.851111    1.617037   10.000000    ( 0.0000,  0.0000,  0.0000)
   2 Li     8.085185    1.617037   10.000000    ( 0.0000,  0.0000,  0.0000)
   3 Li     1.617037    4.851111   10.000000    ( 0.0000,  0.0000,  0.0000)
   4 Li     4.851111    4.851111   10.000000    ( 0.0000,  0.0000,  0.0000)
   5 Li     8.085185    4.851111   10.000000    ( 0.0000,  0.0000,  0.0000)
   6 Li     1.617037    8.085185   10.000000    ( 0.0000,  0.0000,  0.0000)
   7 Li     4.851111    8.085185   10.000000    ( 0.0000,  0.0000,  0.0000)
   8 Li     8.085185    8.085185   10.000000    ( 0.0000,  0.0000,  0.0000)
   9 Li     0.000000    0.000000   11.617037    ( 0.0000,  0.0000,  0.0000)
  10 Li     3.234074    0.000000   11.617037    ( 0.0000,  0.0000,  0.0000)
  11 Li     6.468148    0.000000   11.617037    ( 0.0000,  0.0000,  0.0000)
  12 Li     0.000000    3.234074   11.617037    ( 0.0000,  0.0000,  0.0000)
  13 Li     3.234074    3.234074   11.617037    ( 0.0000,  0.0000,  0.0000)
  14 Li     6.468148    3.234074   11.617037    ( 0.0000,  0.0000,  0.0000)
  15 Li     0.000000    6.468148   11.617037    ( 0.0000,  0.0000,  0.0000)
  16 Li     3.234074    6.468148   11.617037    ( 0.0000,  0.0000,  0.0000)
  17 Li     6.468148    6.468148   11.617037    ( 0.0000,  0.0000,  0.0000)
  18 Li     1.617063    1.617059   13.469660    ( 0.0000,  0.0000,  0.0000)
  19 Li     4.851122    1.617000   13.469849    ( 0.0000,  0.0000,  0.0000)
  20 Li     8.085154    1.617090   13.469597    ( 0.0000,  0.0000,  0.0000)
  21 Li     1.617025    4.851109   13.469851    ( 0.0000,  0.0000,  0.0000)
  22 Li     4.851102    4.851096   13.469740    ( 0.0000,  0.0000,  0.0000)
  23 Li     8.085201    4.851117   13.469865    ( 0.0000,  0.0000,  0.0000)
  24 Li     1.617036    8.085158   13.469688    ( 0.0000,  0.0000,  0.0000)
  25 Li     4.851123    8.085229   13.469860    ( 0.0000,  0.0000,  0.0000)
  26 Li     8.085177    8.085119   13.469560    ( 0.0000,  0.0000,  0.0000)
  27 Li     0.001518    0.000305   15.431749    ( 0.0000,  0.0000,  0.0000)
  28 Li     3.234141    0.000003   15.445877    ( 0.0000,  0.0000,  0.0000)
  29 Li     6.468755    0.000043   15.446481    ( 0.0000,  0.0000,  0.0000)
  30 Li     0.000004    3.234212   15.445908    ( 0.0000,  0.0000,  0.0000)
  31 Li     3.234103    3.234099   15.445880    ( 0.0000,  0.0000,  0.0000)
  32 Li     6.468103    3.234125   15.445907    ( 0.0000,  0.0000,  0.0000)
  33 Li     0.000040    6.467877   15.445757    ( 0.0000,  0.0000,  0.0000)
  34 Li     3.234095    6.468128   15.445887    ( 0.0000,  0.0000,  0.0000)
  35 Li     6.468072    6.468050   15.445882    ( 0.0000,  0.0000,  0.0000)
  36 O      9.708651    9.709666   18.484711    ( 0.0000,  0.0000,  0.0000)
  37 O      9.708300    9.681745   23.308094    ( 0.0000,  0.0000,  0.0000)
  38 C      9.687846    9.700829   20.842132    ( 0.0000,  0.0000,  0.0000)
  39 C      9.701333    8.833100   19.593031    ( 0.0000,  0.0000,  0.0000)
  40 C      9.711714    8.870357   22.124682    ( 0.0000,  0.0000,  0.0000)
  41 H     10.562435   10.361151   20.819729    ( 0.0000,  0.0000,  0.0000)
  42 H      8.799759   10.337802   20.841666    ( 0.0000,  0.0000,  0.0000)
  43 H     10.592814    8.194049   19.585966    ( 0.0000,  0.0000,  0.0000)
  44 H      8.812559    8.185845   19.576804    ( 0.0000,  0.0000,  0.0000)
  45 H     10.578994    8.194879   22.125181    ( 0.0000,  0.0000,  0.0000)
  46 H      8.811671    8.254340   22.201319    ( 0.0000,  0.0000,  0.0000)
  47 H      9.711831    9.132988   17.666149    ( 0.0000,  0.0000,  0.0000)
  48 H     10.482864   10.256908   23.275753    ( 0.0000,  0.0000,  0.0000)
  49 N      9.716047    9.717033   16.917743    ( 0.0000,  0.0000,  0.0000)
  50 N      8.576062    9.705433   16.931627    ( 0.0000,  0.0000,  0.0000)

Unit cell:
           periodic     x           y           z      points  spacing
  1. axis:    yes    9.702222    0.000000    0.000000    60     0.1617
  2. axis:    yes    0.000000    9.702222    0.000000    60     0.1617
  3. axis:    no     0.000000    0.000000   28.351111   176     0.1611

  Lengths:   9.702222   9.702222  28.351111
  Angles:   90.000000  90.000000  90.000000

Effective grid spacing dv^(1/3) = 0.1615

     iter     time        total  log10-change:
                         energy  eigst   dens
iter:   1 22:09:00  -343.649090  -0.30
iter:   2 22:09:08  -342.554021  -0.50  -1.34
iter:   3 22:09:16  -342.355532  -0.85  -1.37
iter:   4 22:09:24  -342.443076  -0.69  -1.60
Writing to output.gpw (mode='')

iter:   5 22:09:32  -342.185190  -1.37  -1.67
iter:   6 22:09:46  -342.243156  -1.20  -2.03
iter:   7 22:09:54  -342.240708  -1.50  -1.79
iter:   8 22:10:02  -342.148874  -1.62  -1.86
iter:   9 22:10:10  -342.156894  -2.23  -2.29
Writing to output.gpw (mode='')

iter:  10 22:10:18  -342.180355c -1.61  -2.18
iter:  11 22:10:26  -342.155452c -1.93  -1.95
iter:  12 22:10:34  -342.148030c -2.76  -2.30
iter:  13 22:10:42  -342.143824c -2.91  -2.48
iter:  14 22:10:50  -342.143672c -3.44  -2.73
Writing to output.gpw (mode='')

iter:  15 22:10:58  -342.143456c -3.18  -2.91
iter:  16 22:11:06  -342.143479c -3.72  -2.98
iter:  17 22:11:14  -342.143752c -3.55  -3.06
iter:  18 22:11:22  -342.143699c -4.19  -3.25
iter:  19 22:11:30  -342.143719c -4.06  -3.35
Writing to output.gpw (mode='')

iter:  20 22:11:38  -342.143737c -4.46  -3.61
iter:  21 22:11:46  -342.143758c -4.40  -3.62
iter:  22 22:11:54  -342.143736c -4.50  -3.68
iter:  23 22:12:02  -342.143750c -4.94  -3.71
iter:  24 22:12:10  -342.143757c -4.84  -3.77
Writing to output.gpw (mode='')

iter:  25 22:12:18  -342.143752c -5.48  -3.89
iter:  26 22:12:26  -342.143757c -5.08  -3.91
iter:  27 22:12:34  -342.143751c -5.41  -4.05c
iter:  28 22:12:42  -342.143753c -5.40  -4.14c
iter:  29 22:12:50  -342.143754c -5.68  -4.14c
Writing to output.gpw (mode='')

iter:  30 22:12:58  -342.143756c -5.76  -4.24c
iter:  31 22:13:09  -342.143760c -5.51  -4.27c
iter:  32 22:13:24  -342.143752c -5.80  -4.31c
iter:  33 22:13:32  -342.143757c -6.32  -4.38c
iter:  34 22:13:40  -342.143753c -6.51  -4.45c
Writing to output.gpw (mode='')

iter:  35 22:13:48  -342.143753c -6.16  -4.50c
iter:  36 22:13:56  -342.143753c -6.47  -4.79c
iter:  37 22:14:04  -342.143754c -6.54  -4.96c
iter:  38 22:14:12  -342.143754c -6.72  -5.07c
iter:  39 22:14:20  -342.143754c -6.63  -5.16c
Writing to output.gpw (mode='')

iter:  40 22:14:28  -342.143754c -6.96  -5.25c
iter:  41 22:14:41  -342.143754c -6.83  -5.32c
iter:  42 22:14:50  -342.143754c -7.20  -5.37c
iter:  43 22:14:58  -342.143754c -7.29  -5.46c
iter:  44 22:15:07  -342.143754c -7.37  -5.55c
Writing to output.gpw (mode='')

iter:  45 22:15:15  -342.143754c -7.57c -5.61c

Converged after 45 iterations.

Dipole moment: (-27.629017, -17.792012, -0.132848) |e|*Ang

Energy contributions relative to reference atoms: (reference = -17528.314784)

Kinetic:       +229.591330
Potential:     -205.586249
External:        +0.000000
XC:            -367.261514
Entropy (-ST):   -0.158929
Local:           +1.192144
--------------------------
Free energy:   -342.223218
Extrapolated:  -342.143754

Dipole-layer corrected work functions: 3.400808, 3.656188 eV

Showing only first 2 kpts
 Kpt  Band  Eigenvalues  Occupancy
  0    37     -3.76919    1.98390
  0    38     -3.66058    1.86698
  0    39     -3.46875    0.46472
  0    40     -3.27206    0.01178

  1    37     -3.63565    1.79004
  1    38     -3.51950    0.91030
  1    39     -3.43125    0.25021
  1    40     -3.41482    0.18667


Fermi level: -3.52850

No gap

Forces in eV/Ang:
  0 Li    0.01487    0.00592   -0.28086
  1 Li   -0.00572   -0.00394   -0.26239
  2 Li   -0.00828    0.01572   -0.27905
  3 Li   -0.00420    0.00264   -0.26547
  4 Li   -0.00028    0.00180   -0.28787
  5 Li    0.00097   -0.00211   -0.26415
  6 Li    0.01968   -0.00670   -0.28201
  7 Li   -0.00959    0.00298   -0.26917
  8 Li   -0.00660   -0.01394   -0.28021
  9 Li   -0.00344    0.00111    0.35362
 10 Li    0.00315   -0.00075    0.24361
 11 Li   -0.00662    0.00017    0.27793
 12 Li   -0.00199    0.01276    0.26746
 13 Li    0.00983   -0.00307    0.25416
 14 Li   -0.00247    0.01001    0.25981
 15 Li    0.00019   -0.01477    0.25184
 16 Li    0.00071    0.00203    0.25542
 17 Li   -0.00000   -0.00677    0.26448
 18 Li    0.01804    0.01592   -0.04902
 19 Li    0.00396   -0.02038    0.06142
 20 Li   -0.01976    0.02533   -0.07611
 21 Li   -0.00999   -0.00133    0.06560
 22 Li   -0.00421   -0.00839    0.00669
 23 Li    0.01064    0.00293    0.07288
 24 Li    0.00349   -0.01855   -0.03296
 25 Li    0.00479    0.02404    0.06787
 26 Li   -0.00657   -0.03331   -0.09623
 27 Li    0.72020    0.09651   -7.78842
 28 Li    0.02859    0.00136   -0.02264
 29 Li    0.35080    0.02510    0.32102
 30 Li    0.00266    0.05752    0.00083
 31 Li    0.01582    0.01462   -0.03099
 32 Li   -0.02441    0.02523   -0.01322
 33 Li    0.02078   -0.12792   -0.08179
 34 Li    0.01080   -0.01125   -0.02786
 35 Li   -0.03977   -0.05092   -0.02730
 36 O     2.51904    2.64833   15.57514
 37 O    -0.01134   -0.07012   -0.05459
 38 C     0.04553   -0.07247    0.37676
 39 C     0.88122   -0.51952    1.33036
 40 C     0.00263    0.02193    0.10345
 41 H     0.00466   -0.02006   -0.03124
 42 H    -0.00690   -0.00337   -0.04216
 43 H     0.04924   -0.13332    0.09274
 44 H    -0.05625    0.01510   -0.19240
 45 H    -0.01281    0.01377    0.00687
 46 H     0.03245    0.00757    0.00185
 47 H     2.01932   -8.56972    5.88309
 48 H     0.00079   -0.01854    0.02501
 49 N     2.52907    5.08735   -9.38764
 50 N    -9.01747    1.57523   -5.98144

System changes: positions 

Initializing position-dependent things.

Density initialized from wave functions
       .-----------------------.  
      /|                       |  
     / |                       |  
    /  |                       |  
   /   |                       |  
  /    |                       |  
 *     O                       |  
 |     |                       |  
 |     C                    H  |  
 |     |H                      C  
 |     |                       |  
 |    C|                       |  
 | H   |H                   H  |  
 |     |                       |  
 |     H                       |  
 |  H  |               H       |  
 |     |                       |  
 |     |                       |  
 O   Li|     Li      Li        |  
 |     |  Li      Li      Li   |  
 N Li  |   Li      Li N        |  
 |     |Li      Li      Li     |  
 Li    | Li      Li            |  
 |   LLi     LLi     LLi       |  
 |     |  Li      Li      Li   |  
 | Li  |   Li      Li          |  
 |     |Li      Li      Li     |  
 Li    | Li      Li            |  
 |    Li      Li      Li       |  
 |     |                       |  
 |     |                       |  
 |     |                       |  
 |     |                       |  
 |     |                       |  
 |     |                       |  
 |     .-----------------------.  
 |    /                       /   
 |   /                       /    
 |  /                       /     
 | /                       /      
 |/                       /       
 *-----------------------*        

Positions:
   0 Li     1.617037    1.617037   10.000000    ( 0.0000,  0.0000,  0.0000)
   1 Li     4.851111    1.617037   10.000000    ( 0.0000,  0.0000,  0.0000)
   2 Li     8.085185    1.617037   10.000000    ( 0.0000,  0.0000,  0.0000)
   3 Li     1.617037    4.851111   10.000000    ( 0.0000,  0.0000,  0.0000)
   4 Li     4.851111    4.851111   10.000000    ( 0.0000,  0.0000,  0.0000)
   5 Li     8.085185    4.851111   10.000000    ( 0.0000,  0.0000,  0.0000)
   6 Li     1.617037    8.085185   10.000000    ( 0.0000,  0.0000,  0.0000)
   7 Li     4.851111    8.085185   10.000000    ( 0.0000,  0.0000,  0.0000)
   8 Li     8.085185    8.085185   10.000000    ( 0.0000,  0.0000,  0.0000)
   9 Li     0.000000    0.000000   11.617037    ( 0.0000,  0.0000,  0.0000)
  10 Li     3.234074    0.000000   11.617037    ( 0.0000,  0.0000,  0.0000)
  11 Li     6.468148    0.000000   11.617037    ( 0.0000,  0.0000,  0.0000)
  12 Li     0.000000    3.234074   11.617037    ( 0.0000,  0.0000,  0.0000)
  13 Li     3.234074    3.234074   11.617037    ( 0.0000,  0.0000,  0.0000)
  14 Li     6.468148    3.234074   11.617037    ( 0.0000,  0.0000,  0.0000)
  15 Li     0.000000    6.468148   11.617037    ( 0.0000,  0.0000,  0.0000)
  16 Li     3.234074    6.468148   11.617037    ( 0.0000,  0.0000,  0.0000)
  17 Li     6.468148    6.468148   11.617037    ( 0.0000,  0.0000,  0.0000)
  18 Li     1.617160    1.617147   13.469398    ( 0.0000,  0.0000,  0.0000)
  19 Li     4.851129    1.616918   13.470089    ( 0.0000,  0.0000,  0.0000)
  20 Li     8.085056    1.617182   13.469256    ( 0.0000,  0.0000,  0.0000)
  21 Li     1.616971    4.851103   13.470122    ( 0.0000,  0.0000,  0.0000)
  22 Li     4.851087    4.851060   13.469774    ( 0.0000,  0.0000,  0.0000)
  23 Li     8.085251    4.851128   13.470165    ( 0.0000,  0.0000,  0.0000)
  24 Li     1.617072    8.085060   13.469498    ( 0.0000,  0.0000,  0.0000)
  25 Li     4.851135    8.085326   13.470129    ( 0.0000,  0.0000,  0.0000)
  26 Li     8.085136    8.084990   13.469135    ( 0.0000,  0.0000,  0.0000)
  27 Li     0.004033    0.000384   15.398893    ( 0.0000,  0.0000,  0.0000)
  28 Li     3.234223    0.000008   15.445834    ( 0.0000,  0.0000,  0.0000)
  29 Li     6.470317    0.000155   15.447944    ( 0.0000,  0.0000,  0.0000)
  30 Li     0.000018    3.234369   15.445994    ( 0.0000,  0.0000,  0.0000)
  31 Li     3.234175    3.234171   15.445754    ( 0.0000,  0.0000,  0.0000)
  32 Li     6.467995    3.234225   15.445869    ( 0.0000,  0.0000,  0.0000)
  33 Li     0.000122    6.467435   15.445496    ( 0.0000,  0.0000,  0.0000)
  34 Li     3.234144    6.468073   15.445769    ( 0.0000,  0.0000,  0.0000)
  35 Li     6.467907    6.467843   15.445782    ( 0.0000,  0.0000,  0.0000)
  36 O      9.714605    9.714184   18.524007    ( 0.0000,  0.0000,  0.0000)
  37 O      9.708281    9.681502   23.308086    ( 0.0000,  0.0000,  0.0000)
  38 C      9.688069    9.699802   20.844760    ( 0.0000,  0.0000,  0.0000)
  39 C      9.704075    8.831812   19.599157    ( 0.0000,  0.0000,  0.0000)
  40 C      9.711712    8.870686   22.125060    ( 0.0000,  0.0000,  0.0000)
  41 H     10.562478   10.361057   20.819560    ( 0.0000,  0.0000,  0.0000)
  42 H      8.799726   10.337737   20.841413    ( 0.0000,  0.0000,  0.0000)
  43 H     10.593445    8.193111   19.586566    ( 0.0000,  0.0000,  0.0000)
  44 H      8.812312    8.185675   19.576279    ( 0.0000,  0.0000,  0.0000)
  45 H     10.578965    8.194912   22.125217    ( 0.0000,  0.0000,  0.0000)
  46 H      8.811782    8.254354   22.201336    ( 0.0000,  0.0000,  0.0000)
  47 H      9.717649    9.120372   17.678222    ( 0.0000,  0.0000,  0.0000)
  48 H     10.482833   10.256808   23.275836    ( 0.0000,  0.0000,  0.0000)
  49 N      9.702732    9.723849   16.906325    ( 0.0000,  0.0000,  0.0000)
  50 N      8.570763    9.710648   16.915069    ( 0.0000,  0.0000,  0.0000)

Unit cell:
           periodic     x           y           z      points  spacing
  1. axis:    yes    9.702222    0.000000    0.000000    60     0.1617
  2. axis:    yes    0.000000    9.702222    0.000000    60     0.1617
  3. axis:    no     0.000000    0.000000   28.351111   176     0.1611

  Lengths:   9.702222   9.702222  28.351111
  Angles:   90.000000  90.000000  90.000000

Effective grid spacing dv^(1/3) = 0.1615

     iter     time        total  log10-change:
                         energy  eigst   dens
iter:   1 22:15:24  -343.442934  -0.82
iter:   2 22:15:32  -343.427393  -1.31  -1.96
iter:   3 22:15:40  -343.418455c -1.81  -1.98
iter:   4 22:15:48  -343.399993c -1.67  -2.11
Writing to output.gpw (mode='')

iter:   5 22:15:56  -343.400967c -2.12  -2.18
iter:   6 22:16:04  -343.398947c -2.52  -2.30
iter:   7 22:16:12  -343.389245c -2.22  -2.34
iter:   8 22:16:20  -343.389019c -2.44  -2.60
iter:   9 22:16:28  -343.389344c -2.89  -2.71
Writing to output.gpw (mode='')

iter:  10 22:16:36  -343.389026c -3.41  -2.79
iter:  11 22:16:44  -343.389091c -3.18  -2.89
iter:  12 22:16:51  -343.389187c -3.69  -3.08
iter:  13 22:16:59  -343.389090c -3.94  -3.11
iter:  14 22:17:07  -343.388997c -4.20  -3.26
Writing to output.gpw (mode='')

iter:  15 22:17:15  -343.389031c -4.00  -3.40
iter:  16 22:17:23  -343.389004c -4.44  -3.44
iter:  17 22:17:31  -343.389018c -4.47  -3.54
iter:  18 22:17:39  -343.389036c -4.82  -3.68
iter:  19 22:17:47  -343.389032c -4.73  -3.81
Writing to output.gpw (mode='')

iter:  20 22:17:55  -343.389036c -5.13  -4.11c
iter:  21 22:18:03  -343.389037c -5.15  -4.12c
iter:  22 22:18:11  -343.389045c -5.28  -4.16c
iter:  23 22:18:19  -343.389041c -5.42  -4.23c
iter:  24 22:18:27  -343.389038c -5.47  -4.21c
Writing to output.gpw (mode='')

iter:  25 22:18:35  -343.389040c -5.90  -4.18c
iter:  26 22:18:43  -343.389043c -5.65  -4.58c
iter:  27 22:18:50  -343.389041c -6.22  -4.72c
iter:  28 22:18:58  -343.389042c -6.28  -4.79c
iter:  29 22:19:06  -343.389042c -6.25  -4.82c
Writing to output.gpw (mode='')

iter:  30 22:19:14  -343.389042c -6.36  -4.94c
iter:  31 22:19:22  -343.389042c -6.30  -4.99c
iter:  32 22:19:30  -343.389042c -6.76  -5.05c
iter:  33 22:19:44  -343.389042c -6.76  -5.12c
iter:  34 22:19:54  -343.389042c -6.71  -5.30c
Writing to output.gpw (mode='')

iter:  35 22:20:02  -343.389042c -6.85  -5.29c
iter:  36 22:20:10  -343.389042c -7.06  -5.31c
iter:  37 22:20:18  -343.389043c -6.93  -5.51c
iter:  38 22:20:26  -343.389043c -7.30  -5.52c
iter:  39 22:20:34  -343.389042c -7.12  -5.49c
Writing to output.gpw (mode='')

iter:  40 22:20:42  -343.389042c -7.25  -5.53c
iter:  41 22:20:50  -343.389042c -7.42c -5.59c

Converged after 41 iterations.

Dipole moment: (-27.177046, -19.218144, -0.181587) |e|*Ang

Energy contributions relative to reference atoms: (reference = -17528.314784)

Kinetic:       +226.278496
Potential:     -203.973288
External:        +0.000000
XC:            -366.803792
Entropy (-ST):   -0.158352
Local:           +1.188718
--------------------------
Free energy:   -343.468218
Extrapolated:  -343.389042

Dipole-layer corrected work functions: 3.401658, 3.750731 eV

Showing only first 2 kpts
 Kpt  Band  Eigenvalues  Occupancy
  0    37     -3.81879    1.98450
  0    38     -3.70963    1.87031
  0    39     -3.51138    0.42955
  0    40     -3.32040    0.01193

  1    37     -3.68380    1.79173
  1    38     -3.56646    0.90294
  1    39     -3.47934    0.25192
  1    40     -3.46741    0.20391


Fermi level: -3.57619

No gap
Writing to output.gpw (mode='')


Forces in eV/Ang:
  0 Li    0.01484    0.00540   -0.28116
  1 Li   -0.00567   -0.00428   -0.26142
  2 Li   -0.00839    0.01588   -0.27946
  3 Li   -0.00479    0.00288   -0.26486
  4 Li    0.00026    0.00189   -0.28848
  5 Li    0.00084   -0.00204   -0.26418
  6 Li    0.01969   -0.00632   -0.28239
  7 Li   -0.00967    0.00337   -0.26872
  8 Li   -0.00636   -0.01417   -0.28086
  9 Li   -0.00348    0.00140    0.35692
 10 Li    0.00347   -0.00082    0.24401
 11 Li   -0.00746    0.00012    0.27674
 12 Li   -0.00196    0.01262    0.26819
 13 Li    0.01078   -0.00206    0.25328
 14 Li   -0.00297    0.01086    0.25845
 15 Li    0.00020   -0.01500    0.25105
 16 Li    0.00073    0.00094    0.25473
 17 Li   -0.00030   -0.00742    0.26360
 18 Li    0.02324    0.02100   -0.05464
 19 Li    0.00485   -0.01962    0.06168
 20 Li   -0.02550    0.02781   -0.07986
 21 Li   -0.00930   -0.00159    0.06489
 22 Li   -0.00478   -0.00893    0.00669
 23 Li    0.01076    0.00270    0.07270
 24 Li    0.00702   -0.02355   -0.03679
 25 Li    0.00579    0.02343    0.06867
 26 Li   -0.01102   -0.03667   -0.10153
 27 Li    0.72263    0.07706   -7.05620
 28 Li    0.02798    0.00144   -0.01992
 29 Li    0.32937    0.02784    0.30472
 30 Li    0.00403    0.05675    0.00055
 31 Li    0.01472    0.01324   -0.03004
 32 Li   -0.02493    0.02540   -0.01533
 33 Li    0.02301   -0.13027   -0.08378
 34 Li    0.00901   -0.00945   -0.02653
 35 Li   -0.04027   -0.05177   -0.02874
 36 O     2.05181    1.79518   12.34361
 37 O    -0.00632   -0.05947   -0.00948
 38 C     0.04640   -0.13234    0.56874
 39 C     0.64570   -0.50564    1.49783
 40 C     0.00391    0.02876    0.14382
 41 H    -0.00200   -0.03571   -0.02743
 42 H     0.00774   -0.02913   -0.04715
 43 H     0.12273   -0.20102    0.14529
 44 H    -0.03804   -0.02503   -0.11074
 45 H    -0.01317    0.01281    0.01016
 46 H     0.03194    0.00725    0.00450
 47 H     2.15042   -6.24245    5.36913
 48 H    -0.00449   -0.02162    0.02414
 49 N     2.76892    3.84805   -7.80036
 50 N    -8.80632    1.56097   -5.12978

System changes: positions 

Initializing position-dependent things.

Density initialized from wave functions
       .-----------------------.  
      /|                       |  
     / |                       |  
    /  |                       |  
   /   |                       |  
  /    |                       |  
 *     O                       |  
 |     |                       |  
 |     C                    H  |  
 |     |H                      C  
 |     |                       |  
 |    C|                       |  
 | H   |H                   H  |  
 |     |                       |  
 |     H                       |  
 |  H  |               H       |  
 |     |                       |  
 |     |                       |  
 O   Li|     Li      Li        |  
 |     |  Li      Li      Li   |  
 | Li  |   Li      Li N  N     |  
 |     |Li      Li      Li     |  
 Li    | Li      Li            |  
 |   LLi     LLi     LLi       |  
 |     |  Li      Li      Li   |  
 | Li  |   Li      Li          |  
 |     |Li      Li      Li     |  
 Li    | Li      Li            |  
 |    Li      Li      Li       |  
 |     |                       |  
 |     |                       |  
 |     |                       |  
 |     |                       |  
 |     |                       |  
 |     |                       |  
 |     .-----------------------.  
 |    /                       /   
 |   /                       /    
 |  /                       /     
 | /                       /      
 |/                       /       
 *-----------------------*        

Positions:
   0 Li     1.617037    1.617037   10.000000    ( 0.0000,  0.0000,  0.0000)
   1 Li     4.851111    1.617037   10.000000    ( 0.0000,  0.0000,  0.0000)
   2 Li     8.085185    1.617037   10.000000    ( 0.0000,  0.0000,  0.0000)
   3 Li     1.617037    4.851111   10.000000    ( 0.0000,  0.0000,  0.0000)
   4 Li     4.851111    4.851111   10.000000    ( 0.0000,  0.0000,  0.0000)
   5 Li     8.085185    4.851111   10.000000    ( 0.0000,  0.0000,  0.0000)
   6 Li     1.617037    8.085185   10.000000    ( 0.0000,  0.0000,  0.0000)
   7 Li     4.851111    8.085185   10.000000    ( 0.0000,  0.0000,  0.0000)
   8 Li     8.085185    8.085185   10.000000    ( 0.0000,  0.0000,  0.0000)
   9 Li     0.000000    0.000000   11.617037    ( 0.0000,  0.0000,  0.0000)
  10 Li     3.234074    0.000000   11.617037    ( 0.0000,  0.0000,  0.0000)
  11 Li     6.468148    0.000000   11.617037    ( 0.0000,  0.0000,  0.0000)
  12 Li     0.000000    3.234074   11.617037    ( 0.0000,  0.0000,  0.0000)
  13 Li     3.234074    3.234074   11.617037    ( 0.0000,  0.0000,  0.0000)
  14 Li     6.468148    3.234074   11.617037    ( 0.0000,  0.0000,  0.0000)
  15 Li     0.000000    6.468148   11.617037    ( 0.0000,  0.0000,  0.0000)
  16 Li     3.234074    6.468148   11.617037    ( 0.0000,  0.0000,  0.0000)
  17 Li     6.468148    6.468148   11.617037    ( 0.0000,  0.0000,  0.0000)
  18 Li     1.617360    1.617334   13.468963    ( 0.0000,  0.0000,  0.0000)
  19 Li     4.851155    1.616804   13.470457    ( 0.0000,  0.0000,  0.0000)
  20 Li     8.084845    1.617356   13.468710    ( 0.0000,  0.0000,  0.0000)
  21 Li     1.616906    4.851091   13.470519    ( 0.0000,  0.0000,  0.0000)
  22 Li     4.851057    4.850999   13.469822    ( 0.0000,  0.0000,  0.0000)
  23 Li     8.085323    4.851141   13.470613    ( 0.0000,  0.0000,  0.0000)
  24 Li     1.617160    8.084860   13.469190    ( 0.0000,  0.0000,  0.0000)
  25 Li     4.851169    8.085465   13.470548    ( 0.0000,  0.0000,  0.0000)
  26 Li     8.085025    8.084751   13.468444    ( 0.0000,  0.0000,  0.0000)
  27 Li     0.008043    0.000406   15.359094    ( 0.0000,  0.0000,  0.0000)
  28 Li     3.234354    0.000017   15.445779    ( 0.0000,  0.0000,  0.0000)
  29 Li     6.472339    0.000353   15.449870    ( 0.0000,  0.0000,  0.0000)
  30 Li     0.000054    3.234632   15.446082    ( 0.0000,  0.0000,  0.0000)
  31 Li     3.234267    3.234258   15.445576    ( 0.0000,  0.0000,  0.0000)
  32 Li     6.467829    3.234380   15.445777    ( 0.0000,  0.0000,  0.0000)
  33 Li     0.000275    6.466703   15.445045    ( 0.0000,  0.0000,  0.0000)
  34 Li     3.234193    6.468016   15.445611    ( 0.0000,  0.0000,  0.0000)
  35 Li     6.467653    6.467521   15.445608    ( 0.0000,  0.0000,  0.0000)
  36 O      9.719735    9.713243   18.554029    ( 0.0000,  0.0000,  0.0000)
  37 O      9.708303    9.681248   23.308538    ( 0.0000,  0.0000,  0.0000)
  38 C      9.688397    9.697847   20.850605    ( 0.0000,  0.0000,  0.0000)
  39 C      9.705655    8.829662   19.610142    ( 0.0000,  0.0000,  0.0000)
  40 C      9.711732    8.871157   22.126152    ( 0.0000,  0.0000,  0.0000)
  41 H     10.562448   10.360725   20.819372    ( 0.0000,  0.0000,  0.0000)
  42 H      8.799861   10.337342   20.841007    ( 0.0000,  0.0000,  0.0000)
  43 H     10.595112    8.191037   19.588022    ( 0.0000,  0.0000,  0.0000)
  44 H      8.812176    8.185026   19.576387    ( 0.0000,  0.0000,  0.0000)
  45 H     10.578907    8.194960   22.125309    ( 0.0000,  0.0000,  0.0000)
  46 H      8.811953    8.254379   22.201389    ( 0.0000,  0.0000,  0.0000)
  47 H      9.729162    9.120089   17.695497    ( 0.0000,  0.0000,  0.0000)
  48 H     10.482735   10.256630   23.275960    ( 0.0000,  0.0000,  0.0000)
  49 N      9.696635    9.725091   16.896507    ( 0.0000,  0.0000,  0.0000)
  50 N      8.550841    9.718879   16.897150    ( 0.0000,  0.0000,  0.0000)

Unit cell:
           periodic     x           y           z      points  spacing
  1. axis:    yes    9.702222    0.000000    0.000000    60     0.1617
  2. axis:    yes    0.000000    9.702222    0.000000    60     0.1617
  3. axis:    no     0.000000    0.000000   28.351111   176     0.1611

  Lengths:   9.702222   9.702222  28.351111
  Angles:   90.000000  90.000000  90.000000

Effective grid spacing dv^(1/3) = 0.1615

     iter     time        total  log10-change:
                         energy  eigst   dens
iter:   1 22:20:59  -344.568883  -0.87
iter:   2 22:21:08  -344.570859  -1.12  -1.72
iter:   3 22:21:15  -344.469560  -1.71  -1.63
iter:   4 22:21:23  -344.460828  -2.24  -2.11
Writing to output.gpw (mode='')

iter:   5 22:21:31  -344.455250c -1.79  -2.40
iter:   6 22:21:40  -344.455200c -2.21  -2.44
iter:   7 22:21:48  -344.456239c -2.50  -2.59
iter:   8 22:21:56  -344.454877c -2.74  -2.62
iter:   9 22:22:04  -344.454798c -3.10  -2.74
Writing to output.gpw (mode='')

iter:  10 22:22:12  -344.454527c -3.20  -2.81
iter:  11 22:22:20  -344.454837c -3.39  -3.09
iter:  12 22:22:28  -344.454597c -3.62  -3.12
iter:  13 22:22:36  -344.454633c -3.95  -3.39
iter:  14 22:22:44  -344.454638c -3.99  -3.42
Writing to output.gpw (mode='')

iter:  15 22:22:52  -344.454645c -4.00  -3.52
iter:  16 22:23:00  -344.454679c -4.48  -3.58
iter:  17 22:23:08  -344.454687c -4.45  -3.65
iter:  18 22:23:16  -344.454686c -4.60  -3.73
iter:  19 22:23:24  -344.454682c -4.54  -3.87
Writing to output.gpw (mode='')

iter:  20 22:23:32  -344.454694c -4.94  -4.06c
iter:  21 22:23:40  -344.454697c -4.99  -4.08c
iter:  22 22:23:48  -344.454703c -5.13  -4.11c
iter:  23 22:23:56  -344.454697c -5.50  -4.22c
iter:  24 22:24:04  -344.454711c -5.43  -4.26c
Writing to output.gpw (mode='')

iter:  25 22:24:12  -344.454706c -5.65  -4.31c
iter:  26 22:24:20  -344.454702c -5.58  -4.45c
iter:  27 22:24:28  -344.454709c -5.79  -4.52c
iter:  28 22:24:41  -344.454704c -5.83  -4.58c
iter:  29 22:24:50  -344.454706c -6.00  -4.84c
Writing to output.gpw (mode='')

iter:  30 22:24:58  -344.454705c -5.92  -4.85c
iter:  31 22:25:06  -344.454706c -6.09  -4.86c
iter:  32 22:25:14  -344.454706c -6.22  -4.87c
iter:  33 22:25:22  -344.454703c -6.20  -4.95c
iter:  34 22:25:30  -344.454704c -6.45  -5.01c
Writing to output.gpw (mode='')

iter:  35 22:25:38  -344.454704c -6.49  -5.09c
iter:  36 22:25:46  -344.454704c -6.53  -5.09c
iter:  37 22:25:54  -344.454704c -6.62  -5.19c
iter:  38 22:26:02  -344.454705c -6.78  -5.20c
iter:  39 22:26:10  -344.454705c -6.95  -5.28c
Writing to output.gpw (mode='')

iter:  40 22:26:18  -344.454705c -7.14  -5.32c
iter:  41 22:26:26  -344.454706c -6.81  -5.27c
iter:  42 22:26:34  -344.454706c -7.05  -5.28c
iter:  43 22:26:42  -344.454706c -7.30  -5.22c
iter:  44 22:26:50  -344.454706c -7.20  -5.25c
Writing to output.gpw (mode='')

iter:  45 22:26:58  -344.454706c -7.27  -5.26c
iter:  46 22:27:06  -344.454706c -7.37  -5.24c
iter:  47 22:27:14  -344.454706c -7.60c -5.20c

Converged after 47 iterations.

Dipole moment: (-27.432327, -19.869842, -0.222389) |e|*Ang

Energy contributions relative to reference atoms: (reference = -17528.314784)

Kinetic:       +221.291150
Potential:     -200.780999
External:        +0.000000
XC:            -366.067748
Entropy (-ST):   -0.158504
Local:           +1.182144
--------------------------
Free energy:   -344.533958
Extrapolated:  -344.454706

Dipole-layer corrected work functions: 3.403180, 3.830688 eV

Showing only first 2 kpts
 Kpt  Band  Eigenvalues  Occupancy
  0    37     -3.85345    1.98251
  0    38     -3.74921    1.86747
  0    39     -3.55262    0.43296
  0    40     -3.36109    0.01192

  1    37     -3.72656    1.79914
  1    38     -3.60532    0.88441
  1    39     -3.51843    0.24476
  1    40     -3.50665    0.19849


Fermi level: -3.61693

No gap
Writing to output.gpw (mode='')


Forces in eV/Ang:
  0 Li    0.01513    0.00497   -0.28253
  1 Li   -0.00597   -0.00449   -0.26087
  2 Li   -0.00845    0.01582   -0.28077
  3 Li   -0.00502    0.00296   -0.26441
  4 Li    0.00050    0.00197   -0.28961
  5 Li    0.00074   -0.00196   -0.26405
  6 Li    0.01987   -0.00600   -0.28387
  7 Li   -0.00992    0.00373   -0.26830
  8 Li   -0.00628   -0.01417   -0.28235
  9 Li   -0.00351    0.00147    0.36234
 10 Li    0.00368   -0.00083    0.24442
 11 Li   -0.00803    0.00011    0.27731
 12 Li   -0.00202    0.01189    0.27001
 13 Li    0.01135   -0.00084    0.25251
 14 Li   -0.00313    0.01189    0.25800
 15 Li    0.00001   -0.01421    0.25231
 16 Li    0.00150   -0.00028    0.25396
 17 Li   -0.00101   -0.00857    0.26329
 18 Li    0.03128    0.02759   -0.06532
 19 Li    0.00509   -0.01921    0.06097
 20 Li   -0.03237    0.03196   -0.08794
 21 Li   -0.00979   -0.00145    0.06509
 22 Li   -0.00459   -0.00966    0.00710
 23 Li    0.01104    0.00238    0.07278
 24 Li    0.01469   -0.03044   -0.04798
 25 Li    0.00638    0.02333    0.06898
 26 Li   -0.01778   -0.04147   -0.11102
 27 Li    0.65076    0.08148   -6.05883
 28 Li    0.02483    0.00218   -0.01590
 29 Li    0.33963    0.03124    0.31553
 30 Li    0.00436    0.04961    0.00662
 31 Li    0.01455    0.01297   -0.02965
 32 Li   -0.02544    0.02588   -0.01550
 33 Li    0.02327   -0.12510   -0.07813
 34 Li    0.00878   -0.00964   -0.02664
 35 Li   -0.04091   -0.05161   -0.02827
 36 O     1.72055    1.69889   10.29531
 37 O    -0.00477   -0.05042    0.04018
 38 C     0.03706   -0.09023    0.61449
 39 C     0.52423   -0.63007    1.48444
 40 C     0.00791   -0.00235    0.22352
 41 H    -0.01461   -0.05812   -0.00644
 42 H     0.02888   -0.05786   -0.03187
 43 H     0.13386   -0.23897    0.22004
 44 H    -0.03340   -0.06556   -0.02142
 45 H    -0.01474    0.01219    0.01813
 46 H     0.03141    0.00625    0.01148
 47 H     2.05886   -4.95174    4.71993
 48 H    -0.00525   -0.02003    0.02542
 49 N     1.08009    3.03166   -7.23208
 50 N    -6.50280    1.41656   -4.43227

System changes: positions 

Initializing position-dependent things.

Density initialized from wave functions
       .-----------------------.  
      /|                       |  
     / |                       |  
    /  |                       |  
   /   |                       |  
  /    |                       |  
 *     O                       |  
 |     |                       |  
 |     C                    H  |  
 |     |H                      C  
 |     |                       |  
 |    C|                       |  
 | H   |H                   H  |  
 |     H                       |  
 |     |                       |  
 |  H  |               H       |  
 |     |                       |  
 |     |                       |  
 O   Li|     Li      Li        |  
 |     |  Li      Li      Li   |  
 | Li  |   Li      Li N  N     |  
 |     |Li      Li      Li     |  
 Li    | Li      Li            |  
 |   LLi     LLi     LLi       |  
 |     |  Li      Li      Li   |  
 | Li  |   Li      Li          |  
 |     |Li      Li      Li     |  
 Li    | Li      Li            |  
 |    Li      Li      Li       |  
 |     |                       |  
 |     |                       |  
 |     |                       |  
 |     |                       |  
 |     |                       |  
 |     |                       |  
 |     .-----------------------.  
 |    /                       /   
 |   /                       /    
 |  /                       /     
 | /                       /      
 |/                       /       
 *-----------------------*        

Positions:
   0 Li     1.617037    1.617037   10.000000    ( 0.0000,  0.0000,  0.0000)
   1 Li     4.851111    1.617037   10.000000    ( 0.0000,  0.0000,  0.0000)
   2 Li     8.085185    1.617037   10.000000    ( 0.0000,  0.0000,  0.0000)
   3 Li     1.617037    4.851111   10.000000    ( 0.0000,  0.0000,  0.0000)
   4 Li     4.851111    4.851111   10.000000    ( 0.0000,  0.0000,  0.0000)
   5 Li     8.085185    4.851111   10.000000    ( 0.0000,  0.0000,  0.0000)
   6 Li     1.617037    8.085185   10.000000    ( 0.0000,  0.0000,  0.0000)
   7 Li     4.851111    8.085185   10.000000    ( 0.0000,  0.0000,  0.0000)
   8 Li     8.085185    8.085185   10.000000    ( 0.0000,  0.0000,  0.0000)
   9 Li     0.000000    0.000000   11.617037    ( 0.0000,  0.0000,  0.0000)
  10 Li     3.234074    0.000000   11.617037    ( 0.0000,  0.0000,  0.0000)
  11 Li     6.468148    0.000000   11.617037    ( 0.0000,  0.0000,  0.0000)
  12 Li     0.000000    3.234074   11.617037    ( 0.0000,  0.0000,  0.0000)
  13 Li     3.234074    3.234074   11.617037    ( 0.0000,  0.0000,  0.0000)
  14 Li     6.468148    3.234074   11.617037    ( 0.0000,  0.0000,  0.0000)
  15 Li     0.000000    6.468148   11.617037    ( 0.0000,  0.0000,  0.0000)
  16 Li     3.234074    6.468148   11.617037    ( 0.0000,  0.0000,  0.0000)
  17 Li     6.468148    6.468148   11.617037    ( 0.0000,  0.0000,  0.0000)
  18 Li     1.617713    1.617649   13.468284    ( 0.0000,  0.0000,  0.0000)
  19 Li     4.851196    1.616656   13.470941    ( 0.0000,  0.0000,  0.0000)
  20 Li     8.084491    1.617645   13.467901    ( 0.0000,  0.0000,  0.0000)
  21 Li     1.616818    4.851078   13.471047    ( 0.0000,  0.0000,  0.0000)
  22 Li     4.851019    4.850911   13.469887    ( 0.0000,  0.0000,  0.0000)
  23 Li     8.085420    4.851156   13.471206    ( 0.0000,  0.0000,  0.0000)
  24 Li     1.617363    8.084522   13.468667    ( 0.0000,  0.0000,  0.0000)
  25 Li     4.851224    8.085649   13.471109    ( 0.0000,  0.0000,  0.0000)
  26 Li     8.084801    8.084371   13.467427    ( 0.0000,  0.0000,  0.0000)
  27 Li     0.012606    0.000681   15.319357    ( 0.0000,  0.0000,  0.0000)
  28 Li     3.234504    0.000039   15.445733    ( 0.0000,  0.0000,  0.0000)
  29 Li     6.475109    0.000652   15.452503    ( 0.0000,  0.0000,  0.0000)
  30 Li     0.000103    3.234926   15.446236    ( 0.0000,  0.0000,  0.0000)
  31 Li     3.234383    3.234363   15.445344    ( 0.0000,  0.0000,  0.0000)
  32 Li     6.467608    3.234592   15.445649    ( 0.0000,  0.0000,  0.0000)
  33 Li     0.000479    6.465765   15.444488    ( 0.0000,  0.0000,  0.0000)
  34 Li     3.234255    6.467941   15.445399    ( 0.0000,  0.0000,  0.0000)
  35 Li     6.467312    6.467098   15.445381    ( 0.0000,  0.0000,  0.0000)
  36 O      9.724941    9.715055   18.583130    ( 0.0000,  0.0000,  0.0000)
  37 O      9.708332    9.680998   23.309628    ( 0.0000,  0.0000,  0.0000)
  38 C      9.688687    9.696277   20.858136    ( 0.0000,  0.0000,  0.0000)
  39 C      9.706871    8.824715   19.623916    ( 0.0000,  0.0000,  0.0000)
  40 C      9.711815    8.871231   22.128628    ( 0.0000,  0.0000,  0.0000)
  41 H     10.562237   10.360015   20.819420    ( 0.0000,  0.0000,  0.0000)
  42 H      8.800304   10.336496   20.840722    ( 0.0000,  0.0000,  0.0000)
  43 H     10.597149    8.188079   19.590761    ( 0.0000,  0.0000,  0.0000)
  44 H      8.812043    8.183798   19.577481    ( 0.0000,  0.0000,  0.0000)
  45 H     10.578798    8.195029   22.125528    ( 0.0000,  0.0000,  0.0000)
  46 H      8.812183    8.254408   22.201545    ( 0.0000,  0.0000,  0.0000)
  47 H      9.744253    9.122372   17.716527    ( 0.0000,  0.0000,  0.0000)
  48 H     10.482620   10.256433   23.276151    ( 0.0000,  0.0000,  0.0000)
  49 N      9.678013    9.724655   16.875166    ( 0.0000,  0.0000,  0.0000)
  50 N      8.538595    9.728487   16.877594    ( 0.0000,  0.0000,  0.0000)

Unit cell:
           periodic     x           y           z      points  spacing
  1. axis:    yes    9.702222    0.000000    0.000000    60     0.1617
  2. axis:    yes    0.000000    9.702222    0.000000    60     0.1617
  3. axis:    no     0.000000    0.000000   28.351111   176     0.1611

  Lengths:   9.702222   9.702222  28.351111
  Angles:   90.000000  90.000000  90.000000

Effective grid spacing dv^(1/3) = 0.1615

     iter     time        total  log10-change:
                         energy  eigst   dens
iter:   1 22:27:24  -345.460639  -0.82
iter:   2 22:27:32  -345.437127  -1.30  -1.93
iter:   3 22:27:40  -345.425833c -1.94  -1.93
iter:   4 22:27:47  -345.411749c -1.77  -2.14
Writing to output.gpw (mode='')

iter:   5 22:27:55  -345.420043c -2.20  -2.28
iter:   6 22:28:03  -345.414762c -2.46  -2.23
iter:   7 22:28:11  -345.406406c -2.17  -2.35
iter:   8 22:28:19  -345.406323c -2.62  -2.64
iter:   9 22:28:27  -345.406219c -3.00  -2.83
Writing to output.gpw (mode='')

iter:  10 22:28:35  -345.406560c -3.08  -2.91
iter:  11 22:28:43  -345.406389c -3.76  -3.04
iter:  12 22:28:51  -345.406529c -3.73  -3.14
iter:  13 22:28:59  -345.406340c -4.07  -3.16
iter:  14 22:29:07  -345.406342c -3.72  -3.35
Writing to output.gpw (mode='')

iter:  15 22:29:15  -345.406344c -4.09  -3.33
iter:  16 22:29:23  -345.406357c -4.46  -3.61
iter:  17 22:29:31  -345.406353c -4.45  -3.69
iter:  18 22:29:43  -345.406369c -4.66  -3.84
iter:  19 22:29:52  -345.406363c -4.84  -3.89
Writing to output.gpw (mode='')

iter:  20 22:30:00  -345.406379c -4.93  -4.04c
iter:  21 22:30:08  -345.406376c -5.23  -4.10c
iter:  22 22:30:16  -345.406380c -5.08  -4.13c
iter:  23 22:30:24  -345.406390c -5.21  -4.27c
iter:  24 22:30:31  -345.406384c -5.29  -4.13c
Writing to output.gpw (mode='')

iter:  25 22:30:39  -345.406387c -5.46  -4.35c
iter:  26 22:30:47  -345.406387c -5.86  -4.38c
iter:  27 22:30:55  -345.406385c -5.77  -4.38c
iter:  28 22:31:03  -345.406391c -6.07  -4.62c
iter:  29 22:31:11  -345.406390c -6.12  -4.71c
Writing to output.gpw (mode='')

iter:  30 22:31:19  -345.406389c -5.87  -4.79c
iter:  31 22:31:27  -345.406389c -6.19  -4.84c
iter:  32 22:31:35  -345.406389c -6.26  -5.05c
iter:  33 22:31:43  -345.406390c -6.16  -5.22c
iter:  34 22:31:51  -345.406390c -6.61  -5.21c
Writing to output.gpw (mode='')

iter:  35 22:31:58  -345.406390c -6.69  -5.18c
iter:  36 22:32:06  -345.406390c -6.58  -5.23c
iter:  37 22:32:14  -345.406390c -6.87  -5.35c
iter:  38 22:32:22  -345.406391c -6.81  -5.35c
iter:  39 22:32:30  -345.406391c -6.72  -5.34c
Writing to output.gpw (mode='')

iter:  40 22:32:38  -345.406390c -7.03  -5.34c
iter:  41 22:32:46  -345.406390c -7.04  -5.30c
iter:  42 22:32:54  -345.406391c -7.18  -5.26c
iter:  43 22:33:02  -345.406391c -7.28  -5.27c
iter:  44 22:33:10  -345.406391c -7.21  -5.30c
Writing to output.gpw (mode='')

iter:  45 22:33:18  -345.406391c -7.36  -5.28c
iter:  46 22:33:25  -345.406391c -7.41c -5.26c

Converged after 46 iterations.

Dipole moment: (-26.328740, -20.711794, -0.249063) |e|*Ang

Energy contributions relative to reference atoms: (reference = -17528.314784)

Kinetic:       +218.865881
Potential:     -199.654214
External:        +0.000000
XC:            -365.718627
Entropy (-ST):   -0.157820
Local:           +1.179479
--------------------------
Free energy:   -345.485301
Extrapolated:  -345.406391

Dipole-layer corrected work functions: 3.403222, 3.882006 eV

Showing only first 2 kpts
 Kpt  Band  Eigenvalues  Occupancy
  0    37     -3.87900    1.98246
  0    38     -3.77546    1.86888
  0    39     -3.57117    0.38653
  0    40     -3.38910    0.01248

  1    37     -3.75269    1.80077
  1    38     -3.63105    0.88482
  1    39     -3.55001    0.27126
  1    40     -3.53115    0.19431


Fermi level: -3.64261

No gap
Writing to output.gpw (mode='')


Forces in eV/Ang:
  0 Li    0.01548    0.00404   -0.28300
  1 Li   -0.00640   -0.00510   -0.25987
  2 Li   -0.00843    0.01594   -0.28131
  3 Li   -0.00594    0.00303   -0.26347
  4 Li    0.00125    0.00197   -0.29030
  5 Li    0.00060   -0.00177   -0.26432
  6 Li    0.01989   -0.00525   -0.28451
  7 Li   -0.01018    0.00454   -0.26758
  8 Li   -0.00601   -0.01447   -0.28316
  9 Li   -0.00339    0.00171    0.36572
 10 Li    0.00405   -0.00089    0.24501
 11 Li   -0.00932   -0.00003    0.27600
 12 Li   -0.00200    0.01175    0.27099
 13 Li    0.01238    0.00083    0.25127
 14 Li   -0.00359    0.01277    0.25697
 15 Li   -0.00024   -0.01420    0.25243
 16 Li    0.00218   -0.00180    0.25325
 17 Li   -0.00137   -0.00948    0.26268
 18 Li    0.03819    0.03481   -0.07139
 19 Li    0.00649   -0.01838    0.06117
 20 Li   -0.03917    0.03493   -0.09312
 21 Li   -0.00878   -0.00137    0.06392
 22 Li   -0.00551   -0.01004    0.00696
 23 Li    0.01118    0.00186    0.07243
 24 Li    0.02098   -0.03768   -0.05441
 25 Li    0.00794    0.02258    0.06980
 26 Li   -0.02415   -0.04442   -0.11598
 27 Li    0.64273    0.07911   -5.49362
 28 Li    0.02403    0.00270   -0.01404
 29 Li    0.31803    0.03412    0.29817
 30 Li    0.00703    0.04837    0.00503
 31 Li    0.01293    0.01057   -0.02854
 32 Li   -0.02728    0.02837   -0.01854
 33 Li    0.02567   -0.12443   -0.07797
 34 Li    0.00691   -0.00774   -0.02553
 35 Li   -0.04220   -0.05273   -0.02979
 36 O     1.45415    1.19019    8.18910
 37 O    -0.00144   -0.04462    0.10645
 38 C     0.02706   -0.12264    0.64568
 39 C     0.43522   -0.54535    1.41542
 40 C     0.00858    0.00133    0.28978
 41 H    -0.01638   -0.07479    0.01722
 42 H     0.03226   -0.07421   -0.00965
 43 H     0.13675   -0.27335    0.28535
 44 H    -0.04785   -0.11836    0.05992
 45 H    -0.00866    0.00461    0.03197
 46 H     0.02401   -0.00118    0.02541
 47 H     2.01955   -3.43757    4.28359
 48 H    -0.00639   -0.01795    0.02825
 49 N     1.09068    2.16811   -6.18205
 50 N    -6.07393    1.24015   -3.72962

System changes: positions 

Initializing position-dependent things.

Density initialized from wave functions
       .-----------------------.  
      /|                       |  
     / |                       |  
    /  |                       |  
   /   |                       |  
  /    |                       |  
 *     O                       |  
 |     |                       |  
 |     C                    H  |  
 |     |H                      C  
 |     |                       |  
 |    C|                       |  
 | H   |H                   H  |  
 |     H                       |  
 |     |                       |  
 |  H  |               H       |  
 |     |                       |  
 |     |                       |  
 O   Li|     Li      Li        |  
 |     |  Li      Li      Li   |  
 | Li  |   Li      Li N  N     |  
 |     |Li      Li      Li     |  
 Li    | Li      Li            |  
 |   LLi     LLi     LLi       |  
 |     |  Li      Li      Li   |  
 | Li  |   Li      Li          |  
 |     |Li      Li      Li     |  
 Li    | Li      Li            |  
 |    Li      Li      Li       |  
 |     |                       |  
 |     |                       |  
 |     |                       |  
 |     |                       |  
 |     |                       |  
 |     |                       |  
 |     .-----------------------.  
 |    /                       /   
 |   /                       /    
 |  /                       /     
 | /                       /      
 |/                       /       
 *-----------------------*        

Positions:
   0 Li     1.617037    1.617037   10.000000    ( 0.0000,  0.0000,  0.0000)
   1 Li     4.851111    1.617037   10.000000    ( 0.0000,  0.0000,  0.0000)
   2 Li     8.085185    1.617037   10.000000    ( 0.0000,  0.0000,  0.0000)
   3 Li     1.617037    4.851111   10.000000    ( 0.0000,  0.0000,  0.0000)
   4 Li     4.851111    4.851111   10.000000    ( 0.0000,  0.0000,  0.0000)
   5 Li     8.085185    4.851111   10.000000    ( 0.0000,  0.0000,  0.0000)
   6 Li     1.617037    8.085185   10.000000    ( 0.0000,  0.0000,  0.0000)
   7 Li     4.851111    8.085185   10.000000    ( 0.0000,  0.0000,  0.0000)
   8 Li     8.085185    8.085185   10.000000    ( 0.0000,  0.0000,  0.0000)
   9 Li     0.000000    0.000000   11.617037    ( 0.0000,  0.0000,  0.0000)
  10 Li     3.234074    0.000000   11.617037    ( 0.0000,  0.0000,  0.0000)
  11 Li     6.468148    0.000000   11.617037    ( 0.0000,  0.0000,  0.0000)
  12 Li     0.000000    3.234074   11.617037    ( 0.0000,  0.0000,  0.0000)
  13 Li     3.234074    3.234074   11.617037    ( 0.0000,  0.0000,  0.0000)
  14 Li     6.468148    3.234074   11.617037    ( 0.0000,  0.0000,  0.0000)
  15 Li     0.000000    6.468148   11.617037    ( 0.0000,  0.0000,  0.0000)
  16 Li     3.234074    6.468148   11.617037    ( 0.0000,  0.0000,  0.0000)
  17 Li     6.468148    6.468148   11.617037    ( 0.0000,  0.0000,  0.0000)
  18 Li     1.618163    1.618063   13.467496    ( 0.0000,  0.0000,  0.0000)
  19 Li     4.851258    1.616501   13.471480    ( 0.0000,  0.0000,  0.0000)
  20 Li     8.084040    1.617993   13.466966    ( 0.0000,  0.0000,  0.0000)
  21 Li     1.616734    4.851066   13.471616    ( 0.0000,  0.0000,  0.0000)
  22 Li     4.850966    4.850812   13.469956    ( 0.0000,  0.0000,  0.0000)
  23 Li     8.085528    4.851167   13.471856    ( 0.0000,  0.0000,  0.0000)
  24 Li     1.617646    8.084083   13.468039    ( 0.0000,  0.0000,  0.0000)
  25 Li     4.851303    8.085844   13.471738    ( 0.0000,  0.0000,  0.0000)
  26 Li     8.084495    8.083928   13.466271    ( 0.0000,  0.0000,  0.0000)
  27 Li     0.017683    0.001074   15.279682    ( 0.0000,  0.0000,  0.0000)
  28 Li     3.234672    0.000069   15.445683    ( 0.0000,  0.0000,  0.0000)
  29 Li     6.477928    0.001005   15.455204    ( 0.0000,  0.0000,  0.0000)
  30 Li     0.000187    3.235259   15.446366    ( 0.0000,  0.0000,  0.0000)
  31 Li     3.234493    3.234451   15.445099    ( 0.0000,  0.0000,  0.0000)
  32 Li     6.467344    3.234858   15.445472    ( 0.0000,  0.0000,  0.0000)
  33 Li     0.000729    6.464726   15.443863    ( 0.0000,  0.0000,  0.0000)
  34 Li     3.234304    6.467879   15.445177    ( 0.0000,  0.0000,  0.0000)
  35 Li     6.466921    6.466618   15.445112    ( 0.0000,  0.0000,  0.0000)
  36 O      9.729891    9.714548   18.605049    ( 0.0000,  0.0000,  0.0000)
  37 O      9.708384    9.680746   23.311453    ( 0.0000,  0.0000,  0.0000)
  38 C      9.688878    9.694421   20.865995    ( 0.0000,  0.0000,  0.0000)
  39 C      9.708096    8.820241   19.637596    ( 0.0000,  0.0000,  0.0000)
  40 C      9.711911    8.871321   22.132025    ( 0.0000,  0.0000,  0.0000)
  41 H     10.562009   10.359089   20.819754    ( 0.0000,  0.0000,  0.0000)
  42 H      8.800774   10.335469   20.840711    ( 0.0000,  0.0000,  0.0000)
  43 H     10.599111    8.184694   19.594349    ( 0.0000,  0.0000,  0.0000)
  44 H      8.811652    8.181973   19.579344    ( 0.0000,  0.0000,  0.0000)
  45 H     10.578752    8.195015   22.125928    ( 0.0000,  0.0000,  0.0000)
  46 H      8.812349    8.254350   22.201880    ( 0.0000,  0.0000,  0.0000)
  47 H      9.760551    9.131462   17.738671    ( 0.0000,  0.0000,  0.0000)
  48 H     10.482504   10.256255   23.276403    ( 0.0000,  0.0000,  0.0000)
  49 N      9.662820    9.720447   16.854327    ( 0.0000,  0.0000,  0.0000)
  50 N      8.521825    9.737246   16.860157    ( 0.0000,  0.0000,  0.0000)

Unit cell:
           periodic     x           y           z      points  spacing
  1. axis:    yes    9.702222    0.000000    0.000000    60     0.1617
  2. axis:    yes    0.000000    9.702222    0.000000    60     0.1617
  3. axis:    no     0.000000    0.000000   28.351111   176     0.1611

  Lengths:   9.702222   9.702222  28.351111
  Angles:   90.000000  90.000000  90.000000

Effective grid spacing dv^(1/3) = 0.1615

     iter     time        total  log10-change:
                         energy  eigst   dens
iter:   1 22:33:35  -346.186820  -0.90
iter:   2 22:33:43  -346.187151  -1.70  -2.25
iter:   3 22:33:51  -346.186593c -2.16  -2.36
iter:   4 22:33:59  -346.182897c -1.99  -2.38
Writing to output.gpw (mode='')

iter:   5 22:34:07  -346.182523c -2.33  -2.44
iter:   6 22:34:15  -346.182913c -2.61  -2.67
iter:   7 22:34:24  -346.181757c -2.85  -2.66
iter:   8 22:34:32  -346.182217c -3.20  -2.81
iter:   9 22:34:46  -346.181684c -3.27  -2.84
Writing to output.gpw (mode='')

iter:  10 22:34:54  -346.181875c -3.58  -3.12
iter:  11 22:35:02  -346.181815c -3.85  -3.17
iter:  12 22:35:10  -346.181828c -4.33  -3.33
iter:  13 22:35:18  -346.181845c -4.03  -3.39
iter:  14 22:35:26  -346.181841c -4.36  -3.55
Writing to output.gpw (mode='')

iter:  15 22:35:34  -346.181833c -4.44  -3.67
iter:  16 22:35:42  -346.181865c -4.43  -3.90
iter:  17 22:35:52  -346.181856c -4.90  -3.98
iter:  18 22:36:00  -346.181861c -4.60  -4.01c
iter:  19 22:36:08  -346.181856c -4.85  -3.93
Writing to output.gpw (mode='')

iter:  20 22:36:16  -346.181857c -5.18  -4.11c
iter:  21 22:36:24  -346.181858c -5.21  -4.11c
iter:  22 22:36:32  -346.181859c -5.24  -4.08c
iter:  23 22:36:40  -346.181865c -5.18  -4.11c
iter:  24 22:36:48  -346.181868c -5.34  -4.12c
Writing to output.gpw (mode='')

iter:  25 22:36:56  -346.181875c -5.54  -4.09c
iter:  26 22:37:04  -346.181875c -5.75  -4.15c
iter:  27 22:37:12  -346.181876c -5.81  -4.18c
iter:  28 22:37:20  -346.181875c -5.90  -4.14c
iter:  29 22:37:28  -346.181872c -5.93  -4.09c
Writing to output.gpw (mode='')

iter:  30 22:37:36  -346.181878c -5.80  -4.24c
iter:  31 22:37:44  -346.181878c -5.80  -4.23c
iter:  32 22:37:52  -346.181877c -6.03  -4.23c
iter:  33 22:38:00  -346.181876c -6.15  -4.48c
iter:  34 22:38:08  -346.181875c -6.13  -4.50c
Writing to output.gpw (mode='')

iter:  35 22:38:16  -346.181878c -6.31  -4.55c
iter:  36 22:38:24  -346.181875c -6.76  -4.68c
iter:  37 22:38:32  -346.181877c -6.59  -4.75c
iter:  38 22:38:40  -346.181875c -6.79  -4.94c
iter:  39 22:38:48  -346.181875c -6.72  -5.13c
Writing to output.gpw (mode='')

iter:  40 22:38:56  -346.181876c -6.87  -5.28c
iter:  41 22:39:04  -346.181876c -6.99  -5.49c
iter:  42 22:39:12  -346.181876c -7.33  -5.62c
iter:  43 22:39:20  -346.181876c -6.88  -5.69c
iter:  44 22:39:28  -346.181876c -7.31  -5.75c
Writing to output.gpw (mode='')

iter:  45 22:39:41  -346.181876c -7.04  -5.74c
iter:  46 22:39:50  -346.181876c -7.48c -5.73c

Converged after 46 iterations.

Dipole moment: (-25.508795, -20.869779, -0.269263) |e|*Ang

Energy contributions relative to reference atoms: (reference = -17528.314784)

Kinetic:       +216.184598
Potential:     -198.141584
External:        +0.000000
XC:            -365.322658
Entropy (-ST):   -0.157360
Local:           +1.176448
--------------------------
Free energy:   -346.260556
Extrapolated:  -346.181876

Dipole-layer corrected work functions: 3.403456, 3.921073 eV

Showing only first 2 kpts
 Kpt  Band  Eigenvalues  Occupancy
  0    37     -3.89566    1.98139
  0    38     -3.79477    1.86804
  0    39     -3.58531    0.35336
  0    40     -3.41137    0.01315

  1    37     -3.77315    1.80366
  1    38     -3.65042    0.88210
  1    39     -3.57432    0.29385
  1    40     -3.54728    0.18231


Fermi level: -3.66226

No gap
Writing to output.gpw (mode='')


Forces in eV/Ang:
  0 Li    0.01589    0.00315   -0.28377
  1 Li   -0.00691   -0.00565   -0.25915
  2 Li   -0.00834    0.01594   -0.28206
  3 Li   -0.00666    0.00305   -0.26263
  4 Li    0.00192    0.00202   -0.29113
  5 Li    0.00048   -0.00162   -0.26463
  6 Li    0.01994   -0.00454   -0.28549
  7 Li   -0.01053    0.00531   -0.26690
  8 Li   -0.00581   -0.01465   -0.28413
  9 Li   -0.00318    0.00187    0.36902
 10 Li    0.00436   -0.00095    0.24570
 11 Li   -0.01040   -0.00020    0.27521
 12 Li   -0.00206    0.01140    0.27215
 13 Li    0.01320    0.00261    0.24999
 14 Li   -0.00391    0.01361    0.25632
 15 Li   -0.00061   -0.01369    0.25340
 16 Li    0.00323   -0.00342    0.25241
 17 Li   -0.00186   -0.01040    0.26226
 18 Li    0.04586    0.04261   -0.07883
 19 Li    0.00752   -0.01774    0.06102
 20 Li   -0.04597    0.03835   -0.09916
 21 Li   -0.00820   -0.00108    0.06311
 22 Li   -0.00609   -0.01035    0.00701
 23 Li    0.01125    0.00142    0.07205
 24 Li    0.02891   -0.04563   -0.06326
 25 Li    0.00927    0.02195    0.07033
 26 Li   -0.03104   -0.04744   -0.12168
 27 Li    0.60587    0.08598   -4.93464
 28 Li    0.02235    0.00329   -0.01218
 29 Li    0.30665    0.03697    0.29049
 30 Li    0.00919    0.04536    0.00529
 31 Li    0.01171    0.00876   -0.02768
 32 Li   -0.02894    0.03072   -0.02055
 33 Li    0.02727   -0.12077   -0.07493
 34 Li    0.00582   -0.00663   -0.02505
 35 Li   -0.04371   -0.05371   -0.03051
 36 O     1.27388    0.97658    6.79021
 37 O     0.00434   -0.03842    0.16460
 38 C     0.02950   -0.10622    0.63419
 39 C     0.36481   -0.51656    1.29642
 40 C     0.00594   -0.01030    0.33895
 41 H    -0.02136   -0.09078    0.04533
 42 H     0.03561   -0.08859    0.01546
 43 H     0.12229   -0.29141    0.34677
 44 H    -0.03734   -0.14176    0.12769
 45 H    -0.00494   -0.00077    0.05024
 46 H     0.01900   -0.00728    0.04356
 47 H     1.88245   -2.50693    3.83680
 48 H    -0.00821   -0.01464    0.03381
 49 N     0.49106    1.62458   -5.59986
 50 N    -5.01195    1.14561   -3.23625

System changes: positions 

Initializing position-dependent things.

Density initialized from wave functions
       .-----------------------.  
      /|                       |  
     / |                       |  
    /  |                       |  
   /   |                       |  
  /    |                       |  
 *     O                       |  
 |     |                       |  
 |     C                    H  |  
 |     |H                      C  
 |     |                       |  
 |    C|                       |  
 | H   |H                   H  |  
 |     H                       |  
 |     |                       |  
 |  H  |               H       |  
 |     |                       |  
 |     |                       |  
 O   Li|     Li      Li        |  
 |     |  Li      Li      Li   |  
 | Li  |   Li      Li N  N     |  
 |     |Li      Li      Li     |  
 Li    | Li      Li            |  
 |   LLi     LLi     LLi       |  
 |     |  Li      Li      Li   |  
[...]
External:        +0.000000
XC:            -361.494147
Entropy (-ST):   -0.161261
Local:           +1.193856
--------------------------
Free energy:   -354.002610
Extrapolated:  -353.921980

Dipole-layer corrected work functions: 3.383911, 3.053080 eV

Showing only first 2 kpts
 Kpt  Band  Eigenvalues  Occupancy
  0    37     -3.42276    1.96692
  0    38     -3.23846    1.19700
  0    39     -3.20153    0.83200
  0    40     -3.11339    0.21778

  1    37     -3.50378    1.99337
  1    38     -3.17899    0.62429
  1    39     -3.11144    0.21032
  1    40     -3.08002    0.11800


Fermi level: -3.21850

No gap
Writing to output.gpw (mode='')


Forces in eV/Ang:
  0 Li    0.01537    0.02067   -0.28533
  1 Li   -0.01030    0.01092   -0.28767
  2 Li   -0.01037    0.00120   -0.28643
  3 Li    0.00612   -0.00408   -0.28627
  4 Li   -0.01401   -0.00858   -0.27967
  5 Li    0.01242    0.01110   -0.29637
  6 Li   -0.00598   -0.00698   -0.29785
  7 Li    0.00339    0.01383   -0.29564
  8 Li   -0.00102    0.00092   -0.24463
  9 Li   -0.03408   -0.05428    0.25508
 10 Li   -0.00478   -0.03881    0.29961
 11 Li    0.04951   -0.05873    0.32387
 12 Li   -0.03236   -0.03291    0.27554
 13 Li    0.00858   -0.02299    0.26725
 14 Li    0.02757   -0.00878    0.26363
 15 Li   -0.04016    0.00259    0.33038
 16 Li    0.00249    0.00204    0.29499
 17 Li    0.06696    0.01307    0.26920
 18 Li   -0.00337    0.00245    0.01697
 19 Li    0.01231    0.00593    0.00037
 20 Li    0.00316   -0.00713    0.01456
 21 Li    0.00231    0.00265    0.00270
 22 Li   -0.00151    0.00823    0.00029
 23 Li    0.01199    0.01196    0.01934
 24 Li   -0.01157    0.00261    0.00232
 25 Li   -0.00855    0.01181    0.00056
 26 Li   -0.01233    0.00429    0.00290
 27 Li   -0.00126   -0.01023    0.00043
 28 Li   -0.01390   -0.01088   -0.00225
 29 Li    0.00232    0.00396    0.01155
 30 Li   -0.00332    0.00394   -0.01749
 31 Li   -0.00340    0.00638   -0.00610
 32 Li    0.00651    0.00765    0.01257
 33 Li    0.00339    0.00281   -0.00720
 34 Li   -0.01421   -0.00123    0.01161
 35 Li    0.00057   -0.01632   -0.01447
 36 O     0.04254   -0.00875   -0.03989
 37 O    -0.01251   -0.00008    0.04000
 38 C     0.01572    0.00812   -0.00333
 39 C     0.01702    0.00672   -0.01398
 40 C    -0.00167    0.00433    0.00418
 41 H    -0.01532   -0.00083   -0.01004
 42 H    -0.01014   -0.01820   -0.00374
 43 H     0.01049    0.00792    0.00526
 44 H    -0.02248    0.01747    0.01454
 45 H    -0.02018   -0.02658   -0.02273
 46 H    -0.01086    0.01665   -0.00039
 47 H    -0.01760    0.03175   -0.01307
 48 H     0.01553    0.00006    0.00045
 49 N    -0.02907    0.00802   -0.00276
 50 N     0.03671    0.00672    0.01432

System changes: positions 

Initializing position-dependent things.

Density initialized from wave functions
       .-----------------------.  
      /|                       |  
     / |                       |  
    /  |                       |  
   /   |                       |  
  /    |                       |  
 *     |                       |  
 |     |                       |  
 |     |                       |  
 |     H                   H  C|  
 |     C                       |  
 |     |                       |  
 |     C                       |  
 | H   HO H             O   H  |  
 |     |                       |  
 |     |                       |  
 |  H  |                HN    Li  
 |     |                   N   |  
 |   Li|     Li       Li       |  
 |     |  Li      Li      Li   |  
 | Li  |   Li      Li          |  
 |     |Li      Li      Li     |  
 |     | Li      Li            |  
 |   LLi     LLi     LLi       |  
 |     |  Li      Li      Li   |  
 | Li  |   Li      Li          |  
 |     |Li      Li      Li     |  
 Li    | Li      Li            |  
 |    Li      Li      Li       |  
 |     |                       |  
 |     |                       |  
 |     |                       |  
 |     |                       |  
 |     |                       |  
 |     |                       |  
 |     .-----------------------.  
 |    /                       /   
 |   /                       /    
 |  /                       /     
 | /                       /      
 |/                       /       
 *-----------------------*        

Positions:
   0 Li     1.617037    1.617037   10.000000    ( 0.0000,  0.0000,  0.0000)
   1 Li     4.851111    1.617037   10.000000    ( 0.0000,  0.0000,  0.0000)
   2 Li     8.085185    1.617037   10.000000    ( 0.0000,  0.0000,  0.0000)
   3 Li     1.617037    4.851111   10.000000    ( 0.0000,  0.0000,  0.0000)
   4 Li     4.851111    4.851111   10.000000    ( 0.0000,  0.0000,  0.0000)
   5 Li     8.085185    4.851111   10.000000    ( 0.0000,  0.0000,  0.0000)
   6 Li     1.617037    8.085185   10.000000    ( 0.0000,  0.0000,  0.0000)
   7 Li     4.851111    8.085185   10.000000    ( 0.0000,  0.0000,  0.0000)
   8 Li     8.085185    8.085185   10.000000    ( 0.0000,  0.0000,  0.0000)
   9 Li     0.000000    0.000000   11.617037    ( 0.0000,  0.0000,  0.0000)
  10 Li     3.234074    0.000000   11.617037    ( 0.0000,  0.0000,  0.0000)
  11 Li     6.468148    0.000000   11.617037    ( 0.0000,  0.0000,  0.0000)
  12 Li     0.000000    3.234074   11.617037    ( 0.0000,  0.0000,  0.0000)
  13 Li     3.234074    3.234074   11.617037    ( 0.0000,  0.0000,  0.0000)
  14 Li     6.468148    3.234074   11.617037    ( 0.0000,  0.0000,  0.0000)
  15 Li     0.000000    6.468148   11.617037    ( 0.0000,  0.0000,  0.0000)
  16 Li     3.234074    6.468148   11.617037    ( 0.0000,  0.0000,  0.0000)
  17 Li     6.468148    6.468148   11.617037    ( 0.0000,  0.0000,  0.0000)
  18 Li     1.560136    1.541818   13.472061    ( 0.0000,  0.0000,  0.0000)
  19 Li     4.844926    1.644815   13.456558    ( 0.0000,  0.0000,  0.0000)
  20 Li     8.056629    1.548911   13.506296    ( 0.0000,  0.0000,  0.0000)
  21 Li     1.648455    4.770827   13.482584    ( 0.0000,  0.0000,  0.0000)
  22 Li     4.900425    4.874985   13.473104    ( 0.0000,  0.0000,  0.0000)
  23 Li     8.105563    4.806793   13.493074    ( 0.0000,  0.0000,  0.0000)
  24 Li     1.598258    8.021255   13.510499    ( 0.0000,  0.0000,  0.0000)
  25 Li     4.901132    8.084600   13.463479    ( 0.0000,  0.0000,  0.0000)
  26 Li     8.140861    8.070753   13.634038    ( 0.0000,  0.0000,  0.0000)
  27 Li    -0.235074   -0.456158   15.965726    ( 0.0000,  0.0000,  0.0000)
  28 Li     3.244309    0.055674   15.289771    ( 0.0000,  0.0000,  0.0000)
  29 Li     6.366895    0.006378   15.505484    ( 0.0000,  0.0000,  0.0000)
  30 Li     0.044057    3.007907   15.463455    ( 0.0000,  0.0000,  0.0000)
  31 Li     3.233221    3.224922   15.449369    ( 0.0000,  0.0000,  0.0000)
  32 Li     6.403464    3.285442   15.408528    ( 0.0000,  0.0000,  0.0000)
  33 Li     0.085755    6.171130   15.483284    ( 0.0000,  0.0000,  0.0000)
  34 Li     3.379086    6.425740   15.394387    ( 0.0000,  0.0000,  0.0000)
  35 Li     6.644411    6.593711   15.544570    ( 0.0000,  0.0000,  0.0000)
  36 O     10.185696    9.355677   17.799356    ( 0.0000,  0.0000,  0.0000)
  37 O      9.386767    9.926882   22.616674    ( 0.0000,  0.0000,  0.0000)
  38 C      9.881246    9.655572   20.215971    ( 0.0000,  0.0000,  0.0000)
  39 C      9.770419    8.708823   19.024574    ( 0.0000,  0.0000,  0.0000)
  40 C      9.504077    8.989366   21.539703    ( 0.0000,  0.0000,  0.0000)
  41 H     10.911631   10.028606   20.282489    ( 0.0000,  0.0000,  0.0000)
  42 H      9.232948   10.520268   20.050222    ( 0.0000,  0.0000,  0.0000)
  43 H     10.361969    7.797365   19.173398    ( 0.0000,  0.0000,  0.0000)
  44 H      8.735123    8.408922   18.851379    ( 0.0000,  0.0000,  0.0000)
  45 H     10.229912    8.205246   21.792133    ( 0.0000,  0.0000,  0.0000)
  46 H      8.520930    8.519150   21.463573    ( 0.0000,  0.0000,  0.0000)
  47 H     11.137958    9.531490   17.840109    ( 0.0000,  0.0000,  0.0000)
  48 H     10.254898   10.314723   22.778657    ( 0.0000,  0.0000,  0.0000)
  49 N      8.485733    7.457679   15.627751    ( 0.0000,  0.0000,  0.0000)
  50 N      7.618539    8.367009   15.661867    ( 0.0000,  0.0000,  0.0000)

Unit cell:
           periodic     x           y           z      points  spacing
  1. axis:    yes    9.702222    0.000000    0.000000    60     0.1617
  2. axis:    yes    0.000000    9.702222    0.000000    60     0.1617
  3. axis:    no     0.000000    0.000000   28.351111   176     0.1611

  Lengths:   9.702222   9.702222  28.351111
  Angles:   90.000000  90.000000  90.000000

Effective grid spacing dv^(1/3) = 0.1615

     iter     time        total  log10-change:
                         energy  eigst   dens
iter:   1 16:16:09  -353.922485  -2.90
iter:   2 16:16:17  -353.922471  -3.71  -3.11
iter:   3 16:16:25  -353.922484c -4.22  -3.15
iter:   4 16:16:33  -353.922473c -4.70  -3.18
Writing to output.gpw (mode='')

iter:   5 16:16:40  -353.922446c -4.18  -3.23
iter:   6 16:16:48  -353.922440c -4.36  -3.60
iter:   7 16:16:56  -353.922440c -4.40  -3.69
iter:   8 16:17:04  -353.922423c -5.24  -3.70
iter:   9 16:17:12  -353.922402c -5.22  -3.82
Writing to output.gpw (mode='')

iter:  10 16:17:20  -353.922410c -5.64  -3.96
iter:  11 16:17:28  -353.922414c -5.95  -4.16c
iter:  12 16:17:36  -353.922418c -5.93  -4.19c
iter:  13 16:17:44  -353.922424c -6.10  -4.36c
iter:  14 16:17:52  -353.922421c -6.55  -4.46c
Writing to output.gpw (mode='')

iter:  15 16:18:00  -353.922419c -6.93  -4.51c
iter:  16 16:18:08  -353.922414c -6.68  -4.61c
iter:  17 16:18:16  -353.922416c -7.06  -4.80c
iter:  18 16:18:24  -353.922417c -7.41c -4.83c

Converged after 18 iterations.

Dipole moment: (-4.996368, 4.527104, 0.171348) |e|*Ang

Energy contributions relative to reference atoms: (reference = -17528.314784)

Kinetic:       +177.213215
Potential:     -170.766606
External:        +0.000000
XC:            -361.482136
Entropy (-ST):   -0.161256
Local:           +1.193738
--------------------------
Free energy:   -354.003045
Extrapolated:  -353.922417

Dipole-layer corrected work functions: 3.383876, 3.054486 eV

Showing only first 2 kpts
 Kpt  Band  Eigenvalues  Occupancy
  0    37     -3.42352    1.96697
  0    38     -3.23916    1.19719
  0    39     -3.20229    0.83265
  0    40     -3.11405    0.21767

  1    37     -3.50446    1.99337
  1    38     -3.17960    0.62361
  1    39     -3.11209    0.21020
  1    40     -3.08052    0.11759


Fermi level: -3.21918

No gap
Writing to output.gpw (mode='')


Forces in eV/Ang:
  0 Li    0.01533    0.02068   -0.28544
  1 Li   -0.01040    0.01091   -0.28767
  2 Li   -0.01033    0.00116   -0.28645
  3 Li    0.00602   -0.00412   -0.28625
  4 Li   -0.01405   -0.00865   -0.27952
  5 Li    0.01251    0.01109   -0.29647
  6 Li   -0.00601   -0.00700   -0.29794
  7 Li    0.00340    0.01385   -0.29556
  8 Li   -0.00094    0.00091   -0.24467
  9 Li   -0.03343   -0.05361    0.25524
 10 Li   -0.00522   -0.03830    0.29976
 11 Li    0.04949   -0.05845    0.32382
 12 Li   -0.03216   -0.03290    0.27610
 13 Li    0.00805   -0.02291    0.26692
 14 Li    0.02859   -0.00850    0.26396
 15 Li   -0.04051    0.00263    0.33072
 16 Li    0.00221    0.00217    0.29469
 17 Li    0.06741    0.01298    0.26978
 18 Li   -0.00346    0.00173    0.01403
 19 Li    0.01166    0.00447    0.00263
 20 Li    0.00258   -0.00516    0.01314
 21 Li    0.00271    0.00195    0.00145
 22 Li   -0.00108    0.00803    0.00137
 23 Li    0.01051    0.01130    0.01765
 24 Li   -0.01130    0.00212    0.00198
 25 Li   -0.00888    0.01204    0.00095
 26 Li   -0.01162    0.00121    0.00540
 27 Li    0.00657   -0.00463    0.00294
 28 Li   -0.01143   -0.01004   -0.00192
 29 Li   -0.00444    0.00784    0.01159
 30 Li   -0.00380    0.00344   -0.01586
 31 Li   -0.00293    0.00596   -0.00643
 32 Li    0.00671    0.00826    0.01136
 33 Li   -0.00196    0.00844   -0.00469
 34 Li   -0.01365   -0.00105    0.01030
 35 Li    0.00420   -0.01317   -0.01246
 36 O     0.01710   -0.01155   -0.03986
 37 O    -0.02206   -0.00103    0.02500
 38 C     0.01540    0.00667   -0.00060
 39 C     0.01551    0.00146   -0.00010
 40 C     0.00701    0.00153    0.00367
 41 H    -0.01068    0.00441   -0.00896
 42 H    -0.01137   -0.01196   -0.00249
 43 H     0.00592    0.00799    0.01080
 44 H    -0.01223    0.02044    0.01047
 45 H    -0.02290   -0.02804   -0.02384
 46 H    -0.00430    0.02089    0.00553
 47 H    -0.00329    0.03421   -0.01136
 48 H     0.01765   -0.00336   -0.00385
 49 N    -0.02460   -0.00532   -0.00946
 50 N     0.03445    0.00481    0.01168

Timing:                                      incl.     excl.
-------------------------------------------------------------------
Density initialized from wave functions:    14.656    14.649   0.0% |
 Symmetrize density:                         0.006     0.006   0.0% |
Forces:                                    129.129   129.129   0.2% |
Hamiltonian:                              1500.435     0.034   0.0% |
 Atomic:                                     0.060     0.060   0.0% |
  XC Correction:                             0.001     0.001   0.0% |
 Calculate atomic Hamiltonians:              0.104     0.104   0.0% |
 Communicate:                               21.957    21.957   0.0% |
 Hartree integrate/restrict:                 5.651     5.651   0.0% |
 Initialize Hamiltonian:                     0.000     0.000   0.0% |
 Poisson:                                   72.667    26.941   0.0% |
  Communicate from 1D:                       7.235     7.235   0.0% |
  Communicate from 2D:                       7.019     7.019   0.0% |
  Communicate to 1D:                         4.031     4.031   0.0% |
  Communicate to 2D:                         8.002     8.002   0.0% |
  FFT 1D:                                    9.496     9.496   0.0% |
  FFT 2D:                                    9.944     9.944   0.0% |
 XC 3D grid:                              1398.624   231.572   0.3% |
  VdW-DF integral:                        1167.052     9.957   0.0% |
   Convolution:                            103.309   103.309   0.2% |
   FFT:                                     44.970    44.970   0.1% |
   gather:                                 402.450   402.450   0.6% |
   hmm1:                                    39.645    39.645   0.1% |
   hmm2:                                    52.144    52.144   0.1% |
   iFFT:                                    46.607    46.607   0.1% |
   potential:                              464.302    12.013   0.0% |
    collect:                                74.017    74.017   0.1% |
    p1:                                    214.768   214.768   0.3% |
    p2:                                     80.479    80.479   0.1% |
    sum:                                    83.025    83.025   0.1% |
   splines:                                  3.668     3.668   0.0% |
 vbar:                                       1.336     1.336   0.0% |
LCAO initialization:                         1.219     0.183   0.0% |
 LCAO eigensolver:                           0.208     0.000   0.0% |
  Calculate projections:                     0.000     0.000   0.0% |
  DenseAtomicCorrection:                     0.000     0.000   0.0% |
  Distribute overlap matrix:                 0.186     0.186   0.0% |
  Orbital Layouts:                           0.020     0.020   0.0% |
  Potential matrix:                          0.001     0.001   0.0% |
  Sum over cells:                            0.001     0.001   0.0% |
 LCAO to grid:                               0.721     0.721   0.0% |
 Set positions (LCAO WFS):                   0.106     0.062   0.0% |
  Basic WFS set positions:                   0.001     0.001   0.0% |
  Basis functions set positions:             0.000     0.000   0.0% |
  P tci:                                     0.000     0.000   0.0% |
  ST tci:                                    0.012     0.012   0.0% |
  mktci:                                     0.030     0.030   0.0% |
Redistribute:                                0.150     0.150   0.0% |
SCF-cycle:                               64428.259  1089.796   1.6% ||
 Davidson:                               18674.657  5585.403   8.4% |--|
  Apply hamiltonian:                      1200.294  1200.294   1.8% ||
  Subspace diag:                          3474.502     0.937   0.0% |
   calc_h_matrix:                         1841.690   626.013   0.9% |
    Apply hamiltonian:                    1215.677  1215.677   1.8% ||
   diagonalize:                             96.087    96.087   0.1% |
   rotate_psi:                            1535.788  1535.788   2.3% ||
  calc. matrices:                         5950.418  3097.848   4.7% |-|
   Apply hamiltonian:                     2852.570  2852.570   4.3% |-|
  diagonalize:                              57.133    57.133   0.1% |
  rotate_psi:                             2406.907  2406.907   3.6% ||
 Density:                                  325.521     0.194   0.0% |
  Atomic density matrices:                  42.724    42.724   0.1% |
  Mix:                                     139.440   139.440   0.2% |
  Multipole moments:                        10.255    10.255   0.0% |
  Pseudo density:                          132.909   132.735   0.2% |
   Symmetrize density:                       0.173     0.173   0.0% |
 Hamiltonian:                            44287.814     0.988   0.0% |
  Atomic:                                    2.071     2.049   0.0% |
   XC Correction:                            0.021     0.021   0.0% |
  Calculate atomic Hamiltonians:             3.153     3.153   0.0% |
  Communicate:                             623.079   623.079   0.9% |
  Hartree integrate/restrict:              173.623   173.623   0.3% |
  Poisson:                                2156.884   798.680   1.2% |
   Communicate from 1D:                    213.868   213.868   0.3% |
   Communicate from 2D:                    210.436   210.436   0.3% |
   Communicate to 1D:                      120.384   120.384   0.2% |
   Communicate to 2D:                      242.080   242.080   0.4% |
   FFT 1D:                                 282.148   282.148   0.4% |
   FFT 2D:                                 289.289   289.289   0.4% |
  XC 3D grid:                            41291.573  6810.951  10.3% |---|
   VdW-DF integral:                      34480.621   293.936   0.4% |
    Convolution:                          3033.876  3033.876   4.6% |-|
    FFT:                                  1325.897  1325.897   2.0% ||
    gather:                              11811.177 11811.177  17.8% |------|
    hmm1:                                 1154.657  1154.657   1.7% ||
    hmm2:                                 1531.810  1531.810   2.3% ||
    iFFT:                                 1366.778  1366.778   2.1% ||
    potential:                           13962.418   354.342   0.5% |
     collect:                             2172.019  2172.019   3.3% ||
     p1:                                  6323.073  6323.073   9.5% |---|
     p2:                                  2369.031  2369.031   3.6% ||
     sum:                                 2743.953  2743.953   4.1% |-|
    splines:                                 0.072     0.072   0.0% |
  vbar:                                     36.443    36.443   0.1% |
 Orthonormalize:                            50.470     0.035   0.0% |
  calc_s_matrix:                             8.359     8.359   0.0% |
  inverse-cholesky:                         11.636    11.636   0.0% |
  projections:                               0.006     0.006   0.0% |
  rotate_psi_s:                             30.434    30.434   0.0% |
Set symmetry:                                0.002     0.002   0.0% |
Other:                                     283.977   283.977   0.4% |
-------------------------------------------------------------------
Total:                                             66357.827 100.0%

Memory usage: 1.20 GiB
Date: Sat Mar 11 16:18:24 2023
