
  ___ ___ ___ _ _ _  
 |   |   |_  | | | | 
 | | | | | . | | | | 
 |__ |  _|___|_____|  22.8.0
 |___|_|             

User:   vazumah@c16.hercules
Date:   Wed Mar  8 20:02:38 2023
Arch:   x86_64
Pid:    9614
CWD:    /home/vazumah/Python_projects/LiNRR/Li_adsorb_studies/proton_donors/on_pure_surface/Li_BCC100/adsorbates/methanol_z/bridge/8.085_1.617
Python: 3.10.8
gpaw:   /home/vazumah/.conda/envs/GPAW/lib/python3.10/site-packages/gpaw
_gpaw:  /home/vazumah/.conda/envs/GPAW/lib/python3.10/site-packages/
        _gpaw.cpython-310-x86_64-linux-gnu.so
ase:    /home/vazumah/.conda/envs/GPAW/lib/python3.10/site-packages/ase (version 3.22.1)
numpy:  /home/vazumah/.conda/envs/GPAW/lib/python3.10/site-packages/numpy (version 1.24.1)
scipy:  /home/vazumah/.conda/envs/GPAW/lib/python3.10/site-packages/scipy (version 1.10.0)
libxc:  5.2.3
units:  Angstrom and eV
cores: 24
OpenMP: True
OMP_NUM_THREADS: 1

Input parameters:
  h: 0.16
  kpts: {size: [4, 4, 1]}
  occupations: {name: fermi-dirac,
                width: 0.05}
  poissonsolver: {dipolelayer: xy}
  xc: BEEF-vdW

System changes: positions, numbers, cell, pbc, initial_charges, initial_magmoms 

Initialize ...

species:
  Li:
    name: Lithium
    id: 830b4218f175192f93f959cfc0aad614
    Z: 3.0
    valence: 1
    core: 2
    charge: 0.0
    file: /home/vazumah/.conda/envs/GPAW/share/gpaw/Li.PBE.gz
    compensation charges: {type: gauss,
                           rc: 0.33,
                           lmax: 2}
    cutoffs: {filter: 1.91,
              core: 2.55}
    valence states:
      #              energy  rcut
      - 2s(1.00)    -2.874   1.058
      - 2p(0.00)    -1.090   1.058
      -  s          24.337   1.058
  
    # Using partial waves for Li as LCAO basis

  O:
    name: Oxygen
    id: 32ecd46bf208036f09c70b0ec9a88b78
    Z: 8.0
    valence: 6
    core: 2
    charge: 0.0
    file: /home/vazumah/.conda/envs/GPAW/share/gpaw/O.PBE.gz
    compensation charges: {type: gauss,
                           rc: 0.21,
                           lmax: 2}
    cutoffs: {filter: 1.17,
              core: 0.83}
    valence states:
      #              energy  rcut
      - 2s(2.00)   -23.961   0.688
      - 2p(4.00)    -9.029   0.598
      -  s           3.251   0.688
      -  p          18.182   0.598
      -  d           0.000   0.619
  
    # Using partial waves for O as LCAO basis

  C:
    name: Carbon
    id: 4aa54d4b901d75f77cc0ea3eec22967b
    Z: 6.0
    valence: 4
    core: 2
    charge: 0.0
    file: /home/vazumah/.conda/envs/GPAW/share/gpaw/C.PBE.gz
    compensation charges: {type: gauss,
                           rc: 0.20,
                           lmax: 2}
    cutoffs: {filter: 1.14,
              core: 1.14}
    valence states:
      #              energy  rcut
      - 2s(2.00)   -13.751   0.635
      - 2p(2.00)    -5.284   0.635
      -  s          13.461   0.635
      -  p          21.927   0.635
      -  d           0.000   0.635
  
    # Using partial waves for C as LCAO basis

  H:
    name: Hydrogen
    id: d65de229564ff8ea4db303e23b6d1ecf
    Z: 1.0
    valence: 1
    core: 0
    charge: 0.0
    file: /home/vazumah/.conda/envs/GPAW/share/gpaw/H.PBE.gz
    compensation charges: {type: gauss,
                           rc: 0.15,
                           lmax: 2}
    cutoffs: {filter: 0.85,
              core: 0.53}
    valence states:
      #              energy  rcut
      - 1s(1.00)    -6.494   0.476
      -  s          20.717   0.476
      -  p           0.000   0.476
  
    # Using partial waves for H as LCAO basis

Reference energy: -10418.802594  # eV

Spin-paired calculation

Convergence criteria:
 Maximum [total energy] change in last 3 cyles: 0.0005 eV / electron
 Maximum integral of absolute [dens]ity change: 0.0001 electrons / valence electron
 Maximum integral of absolute [eigenst]ate change: 4e-08 eV^2 / valence electron
 Maximum number of scf [iter]ations: 333
 (Square brackets indicate name in SCF output, whereas a 'c' in
 the SCF output indicates the quantity has converged.)

Symmetries present (total): 1

  ( 1  0  0)
  ( 0  1  0)
  ( 0  0  1)

16 k-points: 4 x 4 x 1 Monkhorst-Pack grid
8 k-points in the irreducible part of the Brillouin zone
       k-points in crystal coordinates                weights
   0:     0.12500000   -0.37500000    0.00000000          2/16
   1:     0.12500000   -0.12500000    0.00000000          2/16
   2:     0.12500000    0.12500000    0.00000000          2/16
   3:     0.12500000    0.37500000    0.00000000          2/16
   4:     0.37500000   -0.37500000    0.00000000          2/16
   5:     0.37500000   -0.12500000    0.00000000          2/16
   6:     0.37500000    0.12500000    0.00000000          2/16
   7:     0.37500000    0.37500000    0.00000000          2/16

Wave functions: Uniform real-space grid
  Kinetic energy operator: 6*3+1=19 point O(h^6) finite-difference Laplacian
  ScaLapack parameters: grid=1x1, blocksize=None
  Wavefunction extrapolation:
    Improved wavefunction reuse through dual PAW basis 

Occupation numbers: Fermi-Dirac:
  width: 0.0500  # eV
 

Eigensolver
   Davidson(niter=2) 

Densities:
  Coarse grid: 60*60*156 grid
  Fine grid: 120*120*312 grid
  Total Charge: 0.000000 

Density mixing:
  Method: separate
  Backend: pulay
  Linear mixing parameter: 0.05
  old densities: 5
  Damping of long wavelength oscillations: 50 

Hamiltonian:
  XC and Coulomb potentials evaluated on a 120*120*312 grid
  Using the BEEF-vdW Exchange-Correlation functional
  Interpolation: tri-quintic (5. degree polynomial)
  Poisson solver: FastPoissonSolver using
    Stencil: 6*3+1=19 point O(h^6) finite-difference Laplacian
    FFT axes: [0, 1]
    FST axes: [2]

Dipole correction along z-axis 

XC parameters: BEEF-vdW with 2 nearest neighbor stencil

Memory estimate:
  Process memory now: 220.34 MiB
  Calculator: 353.93 MiB
    Density: 116.65 MiB
      Arrays: 36.75 MiB
      Localized functions: 65.89 MiB
      Mixer: 14.01 MiB
    Hamiltonian: 29.24 MiB
      Arrays: 24.03 MiB
      XC: 0.00 MiB
      Poisson: 0.00 MiB
      vbar: 5.20 MiB
    Wavefunctions: 208.04 MiB
      Arrays psit_nG: 95.25 MiB
      Eigensolver: 109.44 MiB
      Projections: 0.04 MiB
      Projectors: 3.32 MiB

Total number of cores used: 24
Parallelization over k-points: 8
Domain decomposition: 1 x 1 x 3

Number of atoms: 42
Number of atomic orbitals: 156
Number of bands in calculation: 34
Number of valence electrons: 50
Bands to converge: occupied

... initialized

Initializing position-dependent things.

Density initialized from atomic densities
Creating initial wave functions:
  34 bands from LCAO basis set

       .-----------------------.  
      /|                       |  
     / |                       |  
    /  |                       |  
   /   |                       |  
  /    |                       |  
 *     |                       |  
 |     |                       |  
 |     |                       |  
 |     |                       |  
 |     |                       |  
 |     |               H       |  
 |     |           H  CH       |  
 |     |                       |  
 |   Li|     Li      LO        |  
 |     |  Li      Li H    Li   |  
 | Li  |   Li      Li          |  
 |     |Li      Li      Li     |  
 Li    | Li      Li            |  
 |   LLi     LLi     LLi       |  
 |     |  Li      Li      Li   |  
 | Li  |   Li      Li          |  
 |     |Li      Li      Li     |  
 Li    | Li      Li            |  
 |    Li      Li      Li       |  
 |     |                       |  
 |     |                       |  
 |     |                       |  
 |     |                       |  
 |     |                       |  
 |     |                       |  
 |     .-----------------------.  
 |    /                       /   
 |   /                       /    
 |  /                       /     
 | /                       /      
 |/                       /       
 *-----------------------*        

Positions:
   0 Li     1.617037    1.617037   10.000000    ( 0.0000,  0.0000,  0.0000)
   1 Li     4.851111    1.617037   10.000000    ( 0.0000,  0.0000,  0.0000)
   2 Li     8.085185    1.617037   10.000000    ( 0.0000,  0.0000,  0.0000)
   3 Li     1.617037    4.851111   10.000000    ( 0.0000,  0.0000,  0.0000)
   4 Li     4.851111    4.851111   10.000000    ( 0.0000,  0.0000,  0.0000)
   5 Li     8.085185    4.851111   10.000000    ( 0.0000,  0.0000,  0.0000)
   6 Li     1.617037    8.085185   10.000000    ( 0.0000,  0.0000,  0.0000)
   7 Li     4.851111    8.085185   10.000000    ( 0.0000,  0.0000,  0.0000)
   8 Li     8.085185    8.085185   10.000000    ( 0.0000,  0.0000,  0.0000)
   9 Li     0.000000    0.000000   11.617037    ( 0.0000,  0.0000,  0.0000)
  10 Li     3.234074    0.000000   11.617037    ( 0.0000,  0.0000,  0.0000)
  11 Li     6.468148    0.000000   11.617037    ( 0.0000,  0.0000,  0.0000)
  12 Li     0.000000    3.234074   11.617037    ( 0.0000,  0.0000,  0.0000)
  13 Li     3.234074    3.234074   11.617037    ( 0.0000,  0.0000,  0.0000)
  14 Li     6.468148    3.234074   11.617037    ( 0.0000,  0.0000,  0.0000)
  15 Li     0.000000    6.468148   11.617037    ( 0.0000,  0.0000,  0.0000)
  16 Li     3.234074    6.468148   11.617037    ( 0.0000,  0.0000,  0.0000)
  17 Li     6.468148    6.468148   11.617037    ( 0.0000,  0.0000,  0.0000)
  18 Li     1.617038    1.617038   13.469728    ( 0.0000,  0.0000,  0.0000)
  19 Li     4.851111    1.617038   13.469729    ( 0.0000,  0.0000,  0.0000)
  20 Li     8.085184    1.617038   13.469728    ( 0.0000,  0.0000,  0.0000)
  21 Li     1.617038    4.851111   13.469729    ( 0.0000,  0.0000,  0.0000)
  22 Li     4.851111    4.851111   13.469730    ( 0.0000,  0.0000,  0.0000)
  23 Li     8.085184    4.851111   13.469729    ( 0.0000,  0.0000,  0.0000)
  24 Li     1.617038    8.085184   13.469728    ( 0.0000,  0.0000,  0.0000)
  25 Li     4.851111    8.085184   13.469729    ( 0.0000,  0.0000,  0.0000)
  26 Li     8.085184    8.085184   13.469728    ( 0.0000,  0.0000,  0.0000)
  27 Li    -0.000000   -0.000000   15.445939    ( 0.0000,  0.0000,  0.0000)
  28 Li     3.234074    0.000000   15.445939    ( 0.0000,  0.0000,  0.0000)
  29 Li     6.468148    0.000000   15.445939    ( 0.0000,  0.0000,  0.0000)
  30 Li     0.000000    3.234074   15.445939    ( 0.0000,  0.0000,  0.0000)
  31 Li     3.234076    3.234076   15.445938    ( 0.0000,  0.0000,  0.0000)
  32 Li     6.468146    3.234076   15.445938    ( 0.0000,  0.0000,  0.0000)
  33 Li     0.000000    6.468148   15.445939    ( 0.0000,  0.0000,  0.0000)
  34 Li     3.234076    6.468146   15.445938    ( 0.0000,  0.0000,  0.0000)
  35 Li     6.468146    6.468146   15.445938    ( 0.0000,  0.0000,  0.0000)
  36 O      8.085185    1.617037   17.445939    ( 0.0000,  0.0000,  0.0000)
  37 C      8.079686    1.601963   18.875902    ( 0.0000,  0.0000,  0.0000)
  38 H      8.766835    0.852010   19.280173    ( 0.0000,  0.0000,  0.0000)
  39 H      7.077897    1.423554   19.279414    ( 0.0000,  0.0000,  0.0000)
  40 H      8.412614    2.587678   19.195346    ( 0.0000,  0.0000,  0.0000)
  41 H      7.794180    0.753908   17.134284    ( 0.0000,  0.0000,  0.0000)

Unit cell:
           periodic     x           y           z      points  spacing
  1. axis:    yes    9.702222    0.000000    0.000000    60     0.1617
  2. axis:    yes    0.000000    9.702222    0.000000    60     0.1617
  3. axis:    no     0.000000    0.000000   24.851111   156     0.1593

  Lengths:   9.702222   9.702222  24.851111
  Angles:   90.000000  90.000000  90.000000

Effective grid spacing dv^(1/3) = 0.1609

     iter     time        total  log10-change:
                         energy  eigst   dens
iter:   1 20:05:46  -320.955426
iter:   2 20:08:09  -193.327724  +2.30  -0.14
iter:   3 20:10:29  -166.236585  +2.96  -0.32
iter:   4 20:12:52  -194.977238  +2.85  -0.40
Writing to output.gpw (mode='')

iter:   5 20:15:16  -219.648706  +2.65  -0.49
iter:   6 20:17:32  -234.319072  +2.24  -0.60
iter:   7 20:19:57  -238.460667  +1.78  -0.69
iter:   8 20:22:13  -237.109595  +1.48  -0.73
iter:   9 20:24:26  -240.760099  +1.52  -0.78
Writing to output.gpw (mode='')

iter:  10 20:26:47  -250.276510  +1.90  -0.85
iter:  11 20:29:15  -257.159306  +1.56  -0.71
iter:  12 20:31:30  -250.369912  +0.90  -0.72
iter:  13 20:33:46  -250.885493  +0.65  -0.87
iter:  14 20:35:58  -250.128347  +0.20  -0.89
Writing to output.gpw (mode='')

iter:  15 20:38:21  -248.386970  +0.41  -0.88
iter:  16 20:40:47  -247.757813  +0.17  -0.87
iter:  17 20:43:09  -247.694847  +0.69  -0.94
iter:  18 20:45:30  -246.836705  +0.46  -1.02
iter:  19 20:47:46  -246.983342  +0.27  -1.37
Writing to output.gpw (mode='')

iter:  20 20:50:14  -246.936742  -0.41  -1.38
iter:  21 20:52:40  -246.908442  -0.38  -1.45
iter:  22 20:55:07  -246.928098  -0.37  -1.58
iter:  23 20:57:24  -246.929076c -0.68  -1.64
iter:  24 20:59:49  -246.917993c -0.77  -1.66
Writing to output.gpw (mode='')

iter:  25 21:02:25  -246.926416c -0.92  -1.93
iter:  26 21:04:40  -246.927313c -1.06  -1.98
iter:  27 21:07:05  -246.934525c -1.15  -2.11
iter:  28 21:09:27  -246.938058c -1.46  -2.22
iter:  29 21:11:51  -246.942426c -1.28  -2.32
Writing to output.gpw (mode='')

iter:  30 21:14:24  -246.946612c -1.43  -2.48
iter:  31 21:16:45  -246.949059c -1.78  -2.46
iter:  32 21:19:00  -246.951611c -1.58  -2.47
iter:  33 21:21:24  -246.953771c -1.86  -2.57
iter:  34 21:23:48  -246.955569c -1.85  -2.68
Writing to output.gpw (mode='')

iter:  35 21:26:17  -246.957015c -2.10  -2.74
iter:  36 21:28:41  -246.958326c -2.12  -2.65
iter:  37 21:31:04  -246.959258c -2.40  -2.81
iter:  38 21:33:20  -246.960094c -2.34  -2.76
iter:  39 21:35:35  -246.960824c -2.38  -2.80
Writing to output.gpw (mode='')

iter:  40 21:37:49  -246.961440c -2.47  -2.77
iter:  41 21:40:12  -246.962010c -2.49  -2.78
iter:  42 21:42:30  -246.962488c -2.58  -2.77
iter:  43 21:44:45  -246.962955c -2.63  -2.73
iter:  44 21:46:55  -246.963307c -2.66  -2.70
Writing to output.gpw (mode='')

iter:  45 21:49:24  -246.963576c -2.71  -2.78
iter:  46 21:51:53  -246.963887c -2.72  -2.78
iter:  47 21:54:15  -246.964100c -2.88  -2.84
iter:  48 21:56:32  -246.964319c -2.95  -2.90
iter:  49 21:58:51  -246.964443c -3.29  -3.11
Writing to output.gpw (mode='')

iter:  50 22:01:12  -246.964593c -2.82  -3.14
iter:  51 22:03:32  -246.964703c -3.30  -3.22
iter:  52 22:05:51  -246.964788c -3.41  -3.31
iter:  53 22:08:11  -246.964857c -3.38  -3.31
iter:  54 22:10:37  -246.964941c -3.07  -3.32
Writing to output.gpw (mode='')

iter:  55 22:13:02  -246.964993c -3.38  -3.28
iter:  56 22:15:31  -246.965048c -3.27  -3.32
iter:  57 22:17:54  -246.965083c -3.77  -3.34
iter:  58 22:20:10  -246.965112c -3.82  -3.64
iter:  59 22:22:31  -246.965139c -3.69  -3.75
Writing to output.gpw (mode='')

iter:  60 22:24:52  -246.965160c -3.90  -3.87
iter:  61 22:27:08  -246.965178c -3.99  -3.95
iter:  62 22:29:27  -246.965194c -4.02  -3.98
iter:  63 22:31:45  -246.965211c -4.05  -4.05c
iter:  64 22:34:00  -246.965224c -4.00  -4.35c
Writing to output.gpw (mode='')

iter:  65 22:36:23  -246.965234c -4.19  -4.43c
iter:  66 22:38:47  -246.965243c -4.15  -4.38c
iter:  67 22:41:13  -246.965253c -4.10  -4.33c
iter:  68 22:43:38  -246.965260c -4.28  -4.21c
iter:  69 22:45:58  -246.965267c -4.07  -4.16c
Writing to output.gpw (mode='')

iter:  70 22:48:17  -246.965273c -4.22  -4.14c
iter:  71 22:50:37  -246.965278c -4.45  -4.15c
iter:  72 22:53:08  -246.965282c -4.43  -4.20c
iter:  73 22:55:31  -246.965285c -4.72  -4.18c
iter:  74 22:57:52  -246.965287c -4.67  -4.25c
Writing to output.gpw (mode='')

iter:  75 23:00:16  -246.965290c -4.36  -4.16c
iter:  76 23:02:35  -246.965291c -4.89  -4.20c
iter:  77 23:04:55  -246.965292c -5.00  -4.10c
iter:  78 23:07:18  -246.965294c -5.00  -4.14c
iter:  79 23:09:42  -246.965296c -5.02  -4.30c
Writing to output.gpw (mode='')

iter:  80 23:12:06  -246.965298c -4.94  -4.35c
iter:  81 23:14:21  -246.965299c -5.07  -4.67c
iter:  82 23:16:44  -246.965300c -5.05  -4.71c
iter:  83 23:19:14  -246.965300c -5.00  -4.76c
iter:  84 23:21:35  -246.965301c -5.15  -4.90c
Writing to output.gpw (mode='')

iter:  85 23:23:54  -246.965301c -5.15  -5.04c
iter:  86 23:26:21  -246.965302c -5.26  -5.09c
iter:  87 23:28:38  -246.965302c -5.34  -5.16c
iter:  88 23:31:12  -246.965302c -5.37  -5.28c
iter:  89 23:33:36  -246.965302c -5.48  -5.31c
Writing to output.gpw (mode='')

iter:  90 23:36:11  -246.965302c -5.54  -5.39c
iter:  91 23:38:28  -246.965303c -5.59  -5.61c
iter:  92 23:40:42  -246.965303c -5.63  -5.61c
iter:  93 23:43:12  -246.965303c -5.73  -5.56c
iter:  94 23:45:35  -246.965303c -5.67  -5.42c
Writing to output.gpw (mode='')

iter:  95 23:47:58  -246.965303c -5.79  -5.44c
iter:  96 23:50:21  -246.965303c -5.83  -5.38c
iter:  97 23:52:39  -246.965303c -5.89  -5.31c
iter:  98 23:55:01  -246.965303c -5.78  -5.27c
iter:  99 23:57:30  -246.965303c -5.89  -5.23c
Writing to output.gpw (mode='')

iter: 100 23:59:52  -246.965303c -5.99  -5.18c
iter: 101 00:02:09  -246.965303c -6.05  -5.16c
iter: 102 00:04:25  -246.965303c -6.12  -5.08c
iter: 103 00:06:43  -246.965303c -6.15  -5.10c
iter: 104 00:09:07  -246.965303c -6.11  -5.08c
Writing to output.gpw (mode='')

iter: 105 00:11:32  -246.965303c -6.18  -5.05c
iter: 106 00:13:55  -246.965303c -6.11  -5.07c
iter: 107 00:16:18  -246.965303c -6.34  -5.00c
iter: 108 00:18:46  -246.965303c -6.27  -4.97c
iter: 109 00:21:07  -246.965303c -6.31  -5.01c
Writing to output.gpw (mode='')

iter: 110 00:23:25  -246.965303c -6.38  -5.11c
iter: 111 00:25:50  -246.965303c -6.13  -4.98c
iter: 112 00:28:10  -246.965303c -6.49  -5.17c
iter: 113 00:30:35  -246.965303c -6.28  -5.18c
iter: 114 00:32:56  -246.965303c -6.32  -5.28c
Writing to output.gpw (mode='')

iter: 115 00:35:18  -246.965303c -6.35  -5.41c
iter: 116 00:37:42  -246.965303c -6.34  -5.50c
iter: 117 00:40:00  -246.965303c -6.67  -5.63c
iter: 118 00:42:25  -246.965303c -6.66  -5.76c
iter: 119 00:44:51  -246.965303c -6.71  -5.86c
Writing to output.gpw (mode='')

iter: 120 00:47:15  -246.965303c -6.86  -5.92c
iter: 121 00:49:40  -246.965303c -6.95  -6.00c
iter: 122 00:51:59  -246.965303c -7.01  -6.21c
iter: 123 00:54:23  -246.965303c -7.01  -6.25c
iter: 124 00:56:50  -246.965303c -7.01  -6.29c
Writing to output.gpw (mode='')

iter: 125 00:59:06  -246.965303c -7.04  -6.28c
iter: 126 01:01:31  -246.965303c -7.17  -6.27c
iter: 127 01:03:50  -246.965303c -7.22  -6.19c
iter: 128 01:06:09  -246.965303c -7.27  -6.29c
iter: 129 01:08:27  -246.965303c -7.18  -6.24c
Writing to output.gpw (mode='')

iter: 130 01:10:54  -246.965303c -7.20  -6.16c
iter: 131 01:13:17  -246.965303c -7.34  -6.11c
iter: 132 01:15:38  -246.965303c -7.36  -6.06c
iter: 133 01:18:05  -246.965303c -7.35  -6.05c
iter: 134 01:20:19  -246.965303c -7.35  -6.04c
Writing to output.gpw (mode='')

iter: 135 01:22:39  -246.965303c -7.46c -6.07c

Converged after 135 iterations.

Dipole moment: (-2.141388, -4.375057, 0.231324) |e|*Ang

Energy contributions relative to reference atoms: (reference = -10418.802594)

Kinetic:       +110.914015
Potential:     -101.485095
External:        +0.000000
XC:            -256.519195
Entropy (-ST):   -0.149199
Local:           +0.199572
--------------------------
Free energy:   -247.039902
Extrapolated:  -246.965303

Dipole-layer corrected work functions: 3.372482, 2.927797 eV

Showing only first 2 kpts
 Kpt  Band  Eigenvalues  Occupancy
  0    23     -3.40411    1.98763
  0    24     -3.31037    1.92202
  0    25     -2.98860    0.07605
  0    26     -2.89828    0.01290

  1    23     -3.19193    1.39514
  1    24     -3.14580    0.95661
  1    25     -3.11354    0.64950
  1    26     -3.07591    0.36946


Fermi level: -3.15014

No gap

Forces in eV/Ang:
  0 Li    0.01024    0.00264   -0.27266
  1 Li   -0.00901    0.00117   -0.27386
  2 Li   -0.00155   -0.00595   -0.27526
  3 Li    0.00199   -0.00293   -0.27131
  4 Li   -0.00210   -0.00366   -0.27130
  5 Li    0.00112    0.00935   -0.27107
  6 Li   -0.00297    0.00058   -0.27160
  7 Li    0.00350    0.00224   -0.27400
  8 Li   -0.00056   -0.00479   -0.27027
  9 Li    0.00537   -0.00164    0.26811
 10 Li    0.00425    0.00401    0.25982
 11 Li   -0.00817   -0.00367    0.26074
 12 Li   -0.00168   -0.00609    0.28057
 13 Li    0.00038    0.00818    0.24408
 14 Li    0.00136   -0.00490    0.27865
 15 Li   -0.00451    0.00871    0.25637
 16 Li   -0.00346   -0.01176    0.26751
 17 Li    0.00760    0.01013    0.26034
 18 Li    0.00473    0.00403    0.02886
 19 Li    0.00104    0.00673    0.03667
 20 Li   -0.00481   -0.01913   -0.07837
 21 Li   -0.01510   -0.00821    0.04901
 22 Li    0.01359   -0.00425    0.04678
 23 Li    0.00054   -0.00145    0.02579
 24 Li    0.00491    0.00412    0.03351
 25 Li   -0.00761   -0.00251    0.02498
 26 Li    0.00125    0.02807    0.07770
 27 Li    0.06235   -0.04133   -0.04163
 28 Li    0.00598    0.00756   -0.02257
 29 Li   -0.23702   -0.15904   -0.29963
 30 Li   -0.02179   -0.03175    0.06903
 31 Li    0.00147   -0.00402   -0.02895
 32 Li    0.01806   -0.02389    0.07340
 33 Li   -0.01510    0.01698   -0.01229
 34 Li   -0.00203   -0.00397   -0.02048
 35 Li    0.01777    0.02810   -0.00499
 36 O     0.21871    0.73025   -0.08720
 37 C     0.01228    0.08667    0.47261
 38 H    -0.00429   -0.01291   -0.05309
 39 H    -0.00261    0.00165   -0.05501
 40 H     0.01113    0.02829    0.01659
 41 H    -0.08018   -0.62403   -0.17074

System changes: positions 

Initializing position-dependent things.

Density initialized from wave functions
       .-----------------------.  
      /|                       |  
     / |                       |  
    /  |                       |  
   /   |                       |  
  /    |                       |  
 *     |                       |  
 |     |                       |  
 |     |                       |  
 |     |                       |  
 |     |                       |  
 |     |               H       |  
 |     Li          H  CHi      |  
 |     |                       |  
 |     |     Li      LO      Li|  
 |     |  Li      Li H    Li   |  
 |     |   Li      Li      Li  |  
 |     |Li      Li      Li     |  
 |     | Li                    |  
 |   LLi     LLi     LLi       |  
 |     |  Li      Li      Li   |  
 | Li  |   Li      Li          |  
 |     |Li      Li      Li     |  
 Li    | Li      Li            |  
 |    Li      Li      Li       |  
 |     |                       |  
 |     |                       |  
 |     |                       |  
 |     |                       |  
 |     |                       |  
 |     |                       |  
 |     .-----------------------.  
 |    /                       /   
 |   /                       /    
 |  /                       /     
 | /                       /      
 |/                       /       
 *-----------------------*        

Positions:
   0 Li     1.617037    1.617037   10.000000    ( 0.0000,  0.0000,  0.0000)
   1 Li     4.851111    1.617037   10.000000    ( 0.0000,  0.0000,  0.0000)
   2 Li     8.085185    1.617037   10.000000    ( 0.0000,  0.0000,  0.0000)
   3 Li     1.617037    4.851111   10.000000    ( 0.0000,  0.0000,  0.0000)
   4 Li     4.851111    4.851111   10.000000    ( 0.0000,  0.0000,  0.0000)
   5 Li     8.085185    4.851111   10.000000    ( 0.0000,  0.0000,  0.0000)
   6 Li     1.617037    8.085185   10.000000    ( 0.0000,  0.0000,  0.0000)
   7 Li     4.851111    8.085185   10.000000    ( 0.0000,  0.0000,  0.0000)
   8 Li     8.085185    8.085185   10.000000    ( 0.0000,  0.0000,  0.0000)
   9 Li     0.000000    0.000000   11.617037    ( 0.0000,  0.0000,  0.0000)
  10 Li     3.234074    0.000000   11.617037    ( 0.0000,  0.0000,  0.0000)
  11 Li     6.468148    0.000000   11.617037    ( 0.0000,  0.0000,  0.0000)
  12 Li     0.000000    3.234074   11.617037    ( 0.0000,  0.0000,  0.0000)
  13 Li     3.234074    3.234074   11.617037    ( 0.0000,  0.0000,  0.0000)
  14 Li     6.468148    3.234074   11.617037    ( 0.0000,  0.0000,  0.0000)
  15 Li     0.000000    6.468148   11.617037    ( 0.0000,  0.0000,  0.0000)
  16 Li     3.234074    6.468148   11.617037    ( 0.0000,  0.0000,  0.0000)
  17 Li     6.468148    6.468148   11.617037    ( 0.0000,  0.0000,  0.0000)
  18 Li     1.617106    1.617096   13.470140    ( 0.0000,  0.0000,  0.0000)
  19 Li     4.851126    1.617135   13.470253    ( 0.0000,  0.0000,  0.0000)
  20 Li     8.085115    1.616765   13.468608    ( 0.0000,  0.0000,  0.0000)
  21 Li     1.616823    4.850994   13.470430    ( 0.0000,  0.0000,  0.0000)
  22 Li     4.851305    4.851050   13.470398    ( 0.0000,  0.0000,  0.0000)
  23 Li     8.085191    4.851090   13.470098    ( 0.0000,  0.0000,  0.0000)
  24 Li     1.617108    8.085243   13.470207    ( 0.0000,  0.0000,  0.0000)
  25 Li     4.851002    8.085148   13.470086    ( 0.0000,  0.0000,  0.0000)
  26 Li     8.085202    8.085585   13.470838    ( 0.0000,  0.0000,  0.0000)
  27 Li     0.000891   -0.000590   15.445345    ( 0.0000,  0.0000,  0.0000)
  28 Li     3.234159    0.000108   15.445616    ( 0.0000,  0.0000,  0.0000)
  29 Li     6.464762   -0.002272   15.441658    ( 0.0000,  0.0000,  0.0000)
  30 Li    -0.000311    3.233620   15.446925    ( 0.0000,  0.0000,  0.0000)
  31 Li     3.234097    3.234019   15.445524    ( 0.0000,  0.0000,  0.0000)
  32 Li     6.468404    3.233735   15.446987    ( 0.0000,  0.0000,  0.0000)
  33 Li    -0.000216    6.468391   15.445763    ( 0.0000,  0.0000,  0.0000)
  34 Li     3.234048    6.468089   15.445645    ( 0.0000,  0.0000,  0.0000)
  35 Li     6.468399    6.468547   15.445867    ( 0.0000,  0.0000,  0.0000)
  36 O      8.088310    1.627469   17.444694    ( 0.0000,  0.0000,  0.0000)
  37 C      8.079861    1.603202   18.882653    ( 0.0000,  0.0000,  0.0000)
  38 H      8.766774    0.851825   19.279415    ( 0.0000,  0.0000,  0.0000)
  39 H      7.077860    1.423578   19.278628    ( 0.0000,  0.0000,  0.0000)
  40 H      8.412773    2.588082   19.195583    ( 0.0000,  0.0000,  0.0000)
  41 H      7.793035    0.744993   17.131845    ( 0.0000,  0.0000,  0.0000)

Unit cell:
           periodic     x           y           z      points  spacing
  1. axis:    yes    9.702222    0.000000    0.000000    60     0.1617
  2. axis:    yes    0.000000    9.702222    0.000000    60     0.1617
  3. axis:    no     0.000000    0.000000   24.851111   156     0.1593

  Lengths:   9.702222   9.702222  24.851111
  Angles:   90.000000  90.000000  90.000000

Effective grid spacing dv^(1/3) = 0.1609

     iter     time        total  log10-change:
                         energy  eigst   dens
iter:   1 01:25:37  -246.993817  -1.40
iter:   2 01:27:58  -246.986796  -2.07  -2.05
iter:   3 01:30:20  -246.984180c -2.85  -2.20
iter:   4 01:32:40  -246.982324c -1.58  -2.42
Writing to output.gpw (mode='')

iter:   5 01:35:09  -246.977727c -2.08  -2.21
iter:   6 01:37:33  -246.977816c -2.54  -2.58
iter:   7 01:40:01  -246.977901c -2.33  -2.65
iter:   8 01:42:22  -246.977409c -2.74  -2.67
iter:   9 01:44:36  -246.977561c -3.54  -2.85
Writing to output.gpw (mode='')

iter:  10 01:46:58  -246.977204c -3.11  -2.85
iter:  11 01:49:19  -246.977254c -3.07  -3.10
iter:  12 01:51:46  -246.977237c -3.85  -3.05
iter:  13 01:54:26  -246.977242c -3.61  -3.12
iter:  14 01:56:47  -246.977222c -4.24  -3.26
Writing to output.gpw (mode='')

iter:  15 01:59:15  -246.977222c -4.68  -3.52
iter:  16 02:01:42  -246.977224c -5.09  -3.62
iter:  17 02:04:08  -246.977227c -5.38  -3.76
iter:  18 02:06:27  -246.977226c -5.34  -3.80
iter:  19 02:08:53  -246.977224c -4.79  -4.00c
Writing to output.gpw (mode='')

iter:  20 02:11:24  -246.977225c -5.56  -3.95
iter:  21 02:13:42  -246.977226c -5.44  -4.01c
iter:  22 02:16:04  -246.977226c -6.03  -4.27c
iter:  23 02:18:23  -246.977226c -6.15  -4.42c
iter:  24 02:20:52  -246.977226c -6.42  -4.50c
Writing to output.gpw (mode='')

iter:  25 02:23:15  -246.977226c -6.45  -4.53c
iter:  26 02:25:40  -246.977226c -6.37  -4.57c
iter:  27 02:28:12  -246.977226c -6.94  -4.76c
iter:  28 02:30:37  -246.977226c -6.72  -4.82c
iter:  29 02:33:01  -246.977226c -6.95  -5.12c
Writing to output.gpw (mode='')

iter:  30 02:35:26  -246.977226c -7.13  -5.19c
iter:  31 02:37:47  -246.977226c -7.05  -5.27c
iter:  32 02:39:58  -246.977226c -7.41c -5.31c

Converged after 32 iterations.

Dipole moment: (-2.156149, -4.346583, 0.229893) |e|*Ang

Energy contributions relative to reference atoms: (reference = -10418.802594)

Kinetic:       +110.049947
Potential:     -100.876962
External:        +0.000000
XC:            -256.274470
Entropy (-ST):   -0.149105
Local:           +0.198811
--------------------------
Free energy:   -247.051778
Extrapolated:  -246.977226

Dipole-layer corrected work functions: 3.372026, 2.930092 eV

Showing only first 2 kpts
 Kpt  Band  Eigenvalues  Occupancy
  0    23     -3.40497    1.98762
  0    24     -3.31092    1.92146
  0    25     -2.98977    0.07642
  0    26     -2.89914    0.01289

  1    23     -3.19333    1.39924
  1    24     -3.14681    0.95755
  1    25     -3.11432    0.64827
  1    26     -3.07616    0.36546


Fermi level: -3.15106

No gap
Writing to output.gpw (mode='')


Forces in eV/Ang:
  0 Li    0.01015    0.00271   -0.27261
  1 Li   -0.00891    0.00123   -0.27402
  2 Li   -0.00158   -0.00610   -0.27545
  3 Li    0.00226   -0.00289   -0.27137
  4 Li   -0.00230   -0.00361   -0.27126
  5 Li    0.00115    0.00920   -0.27094
  6 Li   -0.00282    0.00047   -0.27157
  7 Li    0.00338    0.00212   -0.27421
  8 Li   -0.00059   -0.00449   -0.27035
  9 Li    0.00577   -0.00201    0.26860
 10 Li    0.00447    0.00402    0.26041
 11 Li   -0.00865   -0.00408    0.26147
 12 Li   -0.00151   -0.00612    0.28103
 13 Li    0.00031    0.00885    0.24421
 14 Li    0.00122   -0.00489    0.27913
 15 Li   -0.00463    0.00914    0.25719
 16 Li   -0.00366   -0.01241    0.26769
 17 Li    0.00786    0.01062    0.26125
 18 Li    0.00486    0.00422    0.02749
 19 Li   -0.00000    0.00763    0.03379
 20 Li   -0.00465   -0.01882   -0.07659
 21 Li   -0.01539   -0.00831    0.04832
 22 Li    0.01387   -0.00441    0.04628
 23 Li    0.00047   -0.00157    0.02495
 24 Li    0.00513    0.00384    0.03222
 25 Li   -0.00893   -0.00381    0.02214
 26 Li    0.00166    0.02703    0.07458
 27 Li    0.05472   -0.03872   -0.03517
 28 Li    0.00511    0.00705   -0.02246
 29 Li   -0.22610   -0.15280   -0.28612
 30 Li   -0.02376   -0.03399    0.07360
 31 Li    0.00135   -0.00360   -0.02871
 32 Li    0.02054   -0.02700    0.07816
 33 Li   -0.01437    0.01663   -0.01176
 34 Li   -0.00194   -0.00373   -0.02007
 35 Li    0.01714    0.02767   -0.00430
 36 O    -0.03778   -0.01249   -0.18558
 37 C     0.03344    0.11061    0.16955
 38 H     0.02137   -0.03819   -0.02581
 39 H    -0.05064   -0.00452   -0.02200
 40 H     0.03064    0.08810    0.09735
 41 H     0.16638    0.11306    0.03985

System changes: positions 

Initializing position-dependent things.

Density initialized from wave functions
       .-----------------------.  
      /|                       |  
     / |                       |  
    /  |                       |  
   /   |                       |  
  /    |                       |  
 *     |                       |  
 |     |                       |  
 |     |                       |  
 |     |                       |  
 |     |                       |  
 |     |               H       |  
 |     Li          H  CHi      |  
 |     |                       |  
 |     |     Li      LO      Li|  
 |     |  Li      Li H    Li   |  
 |     |   Li      Li      Li  |  
 |     |Li      Li      Li     |  
 |     | Li                    |  
 |   LLi     LLi     LLi       |  
 |     |  Li      Li      Li   |  
 | Li  |   Li      Li          |  
 |     |Li      Li      Li     |  
 Li    | Li      Li            |  
 |    Li      Li      Li       |  
 |     |                       |  
 |     |                       |  
 |     |                       |  
 |     |                       |  
 |     |                       |  
 |     |                       |  
 |     .-----------------------.  
 |    /                       /   
 |   /                       /    
 |  /                       /     
 | /                       /      
 |/                       /       
 *-----------------------*        

Positions:
   0 Li     1.617037    1.617037   10.000000    ( 0.0000,  0.0000,  0.0000)
   1 Li     4.851111    1.617037   10.000000    ( 0.0000,  0.0000,  0.0000)
   2 Li     8.085185    1.617037   10.000000    ( 0.0000,  0.0000,  0.0000)
   3 Li     1.617037    4.851111   10.000000    ( 0.0000,  0.0000,  0.0000)
   4 Li     4.851111    4.851111   10.000000    ( 0.0000,  0.0000,  0.0000)
   5 Li     8.085185    4.851111   10.000000    ( 0.0000,  0.0000,  0.0000)
   6 Li     1.617037    8.085185   10.000000    ( 0.0000,  0.0000,  0.0000)
   7 Li     4.851111    8.085185   10.000000    ( 0.0000,  0.0000,  0.0000)
   8 Li     8.085185    8.085185   10.000000    ( 0.0000,  0.0000,  0.0000)
   9 Li     0.000000    0.000000   11.617037    ( 0.0000,  0.0000,  0.0000)
  10 Li     3.234074    0.000000   11.617037    ( 0.0000,  0.0000,  0.0000)
  11 Li     6.468148    0.000000   11.617037    ( 0.0000,  0.0000,  0.0000)
  12 Li     0.000000    3.234074   11.617037    ( 0.0000,  0.0000,  0.0000)
  13 Li     3.234074    3.234074   11.617037    ( 0.0000,  0.0000,  0.0000)
  14 Li     6.468148    3.234074   11.617037    ( 0.0000,  0.0000,  0.0000)
  15 Li     0.000000    6.468148   11.617037    ( 0.0000,  0.0000,  0.0000)
  16 Li     3.234074    6.468148   11.617037    ( 0.0000,  0.0000,  0.0000)
  17 Li     6.468148    6.468148   11.617037    ( 0.0000,  0.0000,  0.0000)
  18 Li     1.617207    1.617183   13.470721    ( 0.0000,  0.0000,  0.0000)
  19 Li     4.851130    1.617290   13.470973    ( 0.0000,  0.0000,  0.0000)
  20 Li     8.085017    1.616370   13.466998    ( 0.0000,  0.0000,  0.0000)
  21 Li     1.616502    4.850820   13.471444    ( 0.0000,  0.0000,  0.0000)
  22 Li     4.851594    4.850959   13.471369    ( 0.0000,  0.0000,  0.0000)
  23 Li     8.085201    4.851058   13.470624    ( 0.0000,  0.0000,  0.0000)
  24 Li     1.617215    8.085324   13.470886    ( 0.0000,  0.0000,  0.0000)
  25 Li     4.850821    8.085073   13.470562    ( 0.0000,  0.0000,  0.0000)
  26 Li     8.085235    8.086155   13.472412    ( 0.0000,  0.0000,  0.0000)
  27 Li     0.002068   -0.001412   15.444581    ( 0.0000,  0.0000,  0.0000)
  28 Li     3.234270    0.000258   15.445146    ( 0.0000,  0.0000,  0.0000)
  29 Li     6.459984   -0.005497   15.435613    ( 0.0000,  0.0000,  0.0000)
  30 Li    -0.000800    3.232918   15.448446    ( 0.0000,  0.0000,  0.0000)
  31 Li     3.234126    3.233942   15.444923    ( 0.0000,  0.0000,  0.0000)
  32 Li     6.468823    3.233183   15.448603    ( 0.0000,  0.0000,  0.0000)
  33 Li    -0.000519    6.468740   15.445515    ( 0.0000,  0.0000,  0.0000)
  34 Li     3.234007    6.468010   15.445224    ( 0.0000,  0.0000,  0.0000)
  35 Li     6.468761    6.469128   15.445774    ( 0.0000,  0.0000,  0.0000)
  36 O      8.088594    1.630322   17.441222    ( 0.0000,  0.0000,  0.0000)
  37 C      8.080473    1.605416   18.887473    ( 0.0000,  0.0000,  0.0000)
  38 H      8.767114    0.851132   19.278760    ( 0.0000,  0.0000,  0.0000)
  39 H      7.077001    1.423509   19.278029    ( 0.0000,  0.0000,  0.0000)
  40 H      8.413333    2.589676   19.197282    ( 0.0000,  0.0000,  0.0000)
  41 H      7.795484    0.744269   17.131796    ( 0.0000,  0.0000,  0.0000)

Unit cell:
           periodic     x           y           z      points  spacing
  1. axis:    yes    9.702222    0.000000    0.000000    60     0.1617
  2. axis:    yes    0.000000    9.702222    0.000000    60     0.1617
  3. axis:    no     0.000000    0.000000   24.851111   156     0.1593

  Lengths:   9.702222   9.702222  24.851111
  Angles:   90.000000  90.000000  90.000000

Effective grid spacing dv^(1/3) = 0.1609

     iter     time        total  log10-change:
                         energy  eigst   dens
iter:   1 02:42:54  -246.984448  -2.23
iter:   2 02:45:12  -246.984260  -3.00  -2.67
iter:   3 02:47:24  -246.983362c -3.16  -2.73
iter:   4 02:49:40  -246.983064c -2.82  -2.92
Writing to output.gpw (mode='')

iter:   5 02:51:58  -246.983050c -4.08  -2.95
iter:   6 02:54:16  -246.982943c -3.78  -3.20
iter:   7 02:56:33  -246.983013c -3.28  -3.29
iter:   8 02:58:48  -246.982962c -4.30  -3.21
iter:   9 03:01:15  -246.982928c -3.79  -3.30
Writing to output.gpw (mode='')

iter:  10 03:03:34  -246.982919c -4.02  -3.46
iter:  11 03:05:59  -246.982932c -4.09  -3.65
iter:  12 03:08:26  -246.982911c -4.60  -3.61
iter:  13 03:10:39  -246.982915c -5.37  -3.83
iter:  14 03:13:11  -246.982916c -5.18  -3.97
Writing to output.gpw (mode='')

iter:  15 03:15:33  -246.982917c -5.81  -4.02c
iter:  16 03:17:56  -246.982914c -5.43  -4.07c
iter:  17 03:20:15  -246.982915c -6.03  -4.25c
iter:  18 03:22:37  -246.982916c -5.85  -4.30c
iter:  19 03:24:54  -246.982914c -5.97  -4.41c
Writing to output.gpw (mode='')

iter:  20 03:27:26  -246.982914c -6.24  -4.38c
iter:  21 03:29:50  -246.982915c -6.52  -4.54c
iter:  22 03:32:11  -246.982915c -6.86  -4.85c
iter:  23 03:34:31  -246.982915c -7.53c -4.85c

Converged after 23 iterations.

Dipole moment: (-2.157281, -4.296112, 0.233673) |e|*Ang

Energy contributions relative to reference atoms: (reference = -10418.802594)

Kinetic:       +109.710992
Potential:     -100.638450
External:        +0.000000
XC:            -256.179317
Entropy (-ST):   -0.149065
Local:           +0.198394
--------------------------
Free energy:   -247.057447
Extrapolated:  -246.982915

Dipole-layer corrected work functions: 3.371749, 2.922548 eV

Showing only first 2 kpts
 Kpt  Band  Eigenvalues  Occupancy
  0    23     -3.40100    1.98760
  0    24     -3.30695    1.92137
  0    25     -2.98574    0.07624
  0    26     -2.89514    0.01286

  1    23     -3.18927    1.39796
  1    24     -3.14301    0.95865
  1    25     -3.11069    0.65076
  1    26     -3.07196    0.36371


Fermi level: -3.14715

No gap
Writing to output.gpw (mode='')


Forces in eV/Ang:
  0 Li    0.01016    0.00262   -0.27254
  1 Li   -0.00892    0.00111   -0.27403
  2 Li   -0.00159   -0.00616   -0.27553
  3 Li    0.00223   -0.00284   -0.27137
  4 Li   -0.00217   -0.00351   -0.27116
  5 Li    0.00113    0.00920   -0.27086
  6 Li   -0.00272    0.00058   -0.27154
  7 Li    0.00333    0.00216   -0.27433
  8 Li   -0.00065   -0.00446   -0.27040
  9 Li    0.00631   -0.00256    0.26895
 10 Li    0.00463    0.00410    0.26101
 11 Li   -0.00922   -0.00469    0.26222
 12 Li   -0.00117   -0.00583    0.28120
 13 Li    0.00031    0.00922    0.24478
 14 Li    0.00084   -0.00454    0.27934
 15 Li   -0.00474    0.00946    0.25800
 16 Li   -0.00383   -0.01289    0.26858
 17 Li    0.00809    0.01105    0.26205
 18 Li    0.00461    0.00443    0.02618
 19 Li   -0.00083    0.00866    0.03093
 20 Li   -0.00444   -0.01813   -0.07382
 21 Li   -0.01544   -0.00844    0.04704
 22 Li    0.01394   -0.00468    0.04509
 23 Li    0.00039   -0.00192    0.02450
 24 Li    0.00511    0.00341    0.03050
 25 Li   -0.01034   -0.00543    0.01895
 26 Li    0.00221    0.02559    0.07067
 27 Li    0.05181   -0.03712   -0.03365
 28 Li    0.00413    0.00668   -0.02182
 29 Li   -0.21599   -0.14659   -0.27413
 30 Li   -0.02453   -0.03520    0.07464
 31 Li    0.00123   -0.00358   -0.02784
 32 Li    0.02175   -0.02942    0.07970
 33 Li   -0.01388    0.01592   -0.01106
 34 Li   -0.00161   -0.00310   -0.01915
 35 Li    0.01654    0.02642   -0.00378
 36 O    -0.05446   -0.06087   -0.03221
 37 C     0.01356    0.04443   -0.05452
 38 H     0.01778   -0.02230   -0.01856
 39 H    -0.04049    0.00541   -0.01120
 40 H     0.04043    0.11772    0.11549
 41 H     0.17979    0.17085    0.05173

System changes: positions 

Initializing position-dependent things.

Density initialized from wave functions
       .-----------------------.  
      /|                       |  
     / |                       |  
    /  |                       |  
   /   |                       |  
  /    |                       |  
 *     |                       |  
 |     |                       |  
 |     |                       |  
 |     |                       |  
 |     |                       |  
 |     |               H       |  
 |     Li          H  CHi      |  
 |     |                       |  
 |     |     Li      LO      Li|  
 |     |  Li      Li H    Li   |  
 |     |   Li      Li      Li  |  
 |     |Li      Li      Li     |  
 |     | Li                    |  
 |   LLi     LLi     LLi       |  
 |     |  Li      Li      Li   |  
 | Li  |   Li      Li          |  
 |     |Li      Li      Li     |  
 Li    | Li      Li            |  
 |    Li      Li      Li       |  
 |     |                       |  
 |     |                       |  
 |     |                       |  
 |     |                       |  
 |     |                       |  
 |     |                       |  
 |     .-----------------------.  
 |    /                       /   
 |   /                       /    
 |  /                       /     
 | /                       /      
 |/                       /       
 *-----------------------*        

Positions:
   0 Li     1.617037    1.617037   10.000000    ( 0.0000,  0.0000,  0.0000)
   1 Li     4.851111    1.617037   10.000000    ( 0.0000,  0.0000,  0.0000)
   2 Li     8.085185    1.617037   10.000000    ( 0.0000,  0.0000,  0.0000)
   3 Li     1.617037    4.851111   10.000000    ( 0.0000,  0.0000,  0.0000)
   4 Li     4.851111    4.851111   10.000000    ( 0.0000,  0.0000,  0.0000)
   5 Li     8.085185    4.851111   10.000000    ( 0.0000,  0.0000,  0.0000)
   6 Li     1.617037    8.085185   10.000000    ( 0.0000,  0.0000,  0.0000)
   7 Li     4.851111    8.085185   10.000000    ( 0.0000,  0.0000,  0.0000)
   8 Li     8.085185    8.085185   10.000000    ( 0.0000,  0.0000,  0.0000)
   9 Li     0.000000    0.000000   11.617037    ( 0.0000,  0.0000,  0.0000)
  10 Li     3.234074    0.000000   11.617037    ( 0.0000,  0.0000,  0.0000)
  11 Li     6.468148    0.000000   11.617037    ( 0.0000,  0.0000,  0.0000)
  12 Li     0.000000    3.234074   11.617037    ( 0.0000,  0.0000,  0.0000)
  13 Li     3.234074    3.234074   11.617037    ( 0.0000,  0.0000,  0.0000)
  14 Li     6.468148    3.234074   11.617037    ( 0.0000,  0.0000,  0.0000)
  15 Li     0.000000    6.468148   11.617037    ( 0.0000,  0.0000,  0.0000)
  16 Li     3.234074    6.468148   11.617037    ( 0.0000,  0.0000,  0.0000)
  17 Li     6.468148    6.468148   11.617037    ( 0.0000,  0.0000,  0.0000)
  18 Li     1.617638    1.617577   13.473203    ( 0.0000,  0.0000,  0.0000)
  19 Li     4.851109    1.618022   13.473985    ( 0.0000,  0.0000,  0.0000)
  20 Li     8.084598    1.614672   13.460077    ( 0.0000,  0.0000,  0.0000)
  21 Li     1.615094    4.850054   13.475825    ( 0.0000,  0.0000,  0.0000)
  22 Li     4.852864    4.850544   13.475564    ( 0.0000,  0.0000,  0.0000)
  23 Li     8.085242    4.850900   13.472904    ( 0.0000,  0.0000,  0.0000)
  24 Li     1.617680    8.085660   13.473781    ( 0.0000,  0.0000,  0.0000)
  25 Li     4.849959    8.084670   13.472490    ( 0.0000,  0.0000,  0.0000)
  26 Li     8.085406    8.088583   13.479118    ( 0.0000,  0.0000,  0.0000)
  27 Li     0.007078   -0.004931   15.441318    ( 0.0000,  0.0000,  0.0000)
  28 Li     3.234707    0.000895   15.443115    ( 0.0000,  0.0000,  0.0000)
  29 Li     6.439547   -0.019318   15.409718    ( 0.0000,  0.0000,  0.0000)
  30 Li    -0.002980    3.229785   15.455162    ( 0.0000,  0.0000,  0.0000)
  31 Li     3.234247    3.233606   15.442328    ( 0.0000,  0.0000,  0.0000)
  32 Li     6.470720    3.230648   15.455756    ( 0.0000,  0.0000,  0.0000)
  33 Li    -0.001826    6.470237   15.444461    ( 0.0000,  0.0000,  0.0000)
  34 Li     3.233843    6.467693   15.443420    ( 0.0000,  0.0000,  0.0000)
  35 Li     6.470315    6.471613   15.445392    ( 0.0000,  0.0000,  0.0000)
  36 O      8.088768    1.639703   17.433113    ( 0.0000,  0.0000,  0.0000)
  37 C      8.082239    1.612033   18.897709    ( 0.0000,  0.0000,  0.0000)
  38 H      8.768462    0.848814   19.276265    ( 0.0000,  0.0000,  0.0000)
  39 H      7.073664    1.423668   19.275952    ( 0.0000,  0.0000,  0.0000)
  40 H      8.416265    2.598111   19.205665    ( 0.0000,  0.0000,  0.0000)
  41 H      7.807114    0.744645   17.132377    ( 0.0000,  0.0000,  0.0000)

Unit cell:
           periodic     x           y           z      points  spacing
  1. axis:    yes    9.702222    0.000000    0.000000    60     0.1617
  2. axis:    yes    0.000000    9.702222    0.000000    60     0.1617
  3. axis:    no     0.000000    0.000000   24.851111   156     0.1593

  Lengths:   9.702222   9.702222  24.851111
  Angles:   90.000000  90.000000  90.000000

Effective grid spacing dv^(1/3) = 0.1609

     iter     time        total  log10-change:
                         energy  eigst   dens
iter:   1 03:37:26  -247.011909  -1.25
iter:   2 03:39:46  -247.009760  -2.00  -2.10
iter:   3 03:42:08  -247.006024c -2.52  -2.19
iter:   4 03:44:36  -247.000974c -1.61  -2.28
Writing to output.gpw (mode='')

iter:   5 03:47:01  -247.000371c -2.59  -2.32
iter:   6 03:49:19  -246.999399c -3.03  -2.61
iter:   7 03:51:39  -246.999927c -2.14  -2.69
iter:   8 03:53:58  -246.998946c -3.09  -2.58
iter:   9 03:56:22  -246.998773c -3.12  -2.74
Writing to output.gpw (mode='')

iter:  10 03:58:41  -246.998586c -3.02  -2.90
iter:  11 04:01:00  -246.998603c -3.52  -3.09
iter:  12 04:03:21  -246.998594c -3.86  -3.09
iter:  13 04:05:40  -246.998599c -3.96  -3.17
iter:  14 04:08:00  -246.998598c -4.25  -3.24
Writing to output.gpw (mode='')

iter:  15 04:10:22  -246.998591c -4.12  -3.38
iter:  16 04:12:45  -246.998596c -4.54  -3.58
iter:  17 04:15:06  -246.998594c -5.07  -3.57
iter:  18 04:17:31  -246.998593c -5.30  -3.62
iter:  19 04:19:53  -246.998592c -5.44  -3.74
Writing to output.gpw (mode='')

iter:  20 04:22:14  -246.998592c -5.51  -3.83
iter:  21 04:24:27  -246.998591c -5.71  -3.94
iter:  22 04:26:52  -246.998591c -5.31  -4.02c
iter:  23 04:29:17  -246.998591c -6.09  -4.20c
iter:  24 04:31:37  -246.998591c -6.23  -4.26c
Writing to output.gpw (mode='')

iter:  25 04:34:04  -246.998591c -6.22  -4.45c
iter:  26 04:36:23  -246.998592c -6.36  -4.61c
iter:  27 04:38:43  -246.998592c -6.53  -4.68c
iter:  28 04:41:08  -246.998592c -6.95  -4.74c
iter:  29 04:43:39  -246.998592c -7.12  -4.81c
Writing to output.gpw (mode='')

iter:  30 04:46:07  -246.998592c -7.13  -5.04c
iter:  31 04:48:25  -246.998592c -6.96  -5.11c
iter:  32 04:50:45  -246.998592c -7.48c -5.04c

Converged after 32 iterations.

Dipole moment: (-2.163028, -4.069803, 0.241690) |e|*Ang

Energy contributions relative to reference atoms: (reference = -10418.802594)

Kinetic:       +108.730848
Potential:      -99.941727
External:        +0.000000
XC:            -255.910099
Entropy (-ST):   -0.148938
Local:           +0.196854
--------------------------
Free energy:   -247.073061
Extrapolated:  -246.998592

Dipole-layer corrected work functions: 3.371446, 2.906834 eV

Showing only first 2 kpts
 Kpt  Band  Eigenvalues  Occupancy
  0    23     -3.39271    1.98753
  0    24     -3.29880    1.92116
  0    25     -2.97705    0.07525
  0    26     -2.88675    0.01277

  1    23     -3.18052    1.39172
  1    24     -3.13522    0.96083
  1    25     -3.10415    0.66368
  1    26     -3.06297    0.35795


Fermi level: -3.13914

No gap
Writing to output.gpw (mode='')


Forces in eV/Ang:
  0 Li    0.01017    0.00256   -0.27260
  1 Li   -0.00899    0.00093   -0.27446
  2 Li   -0.00160   -0.00631   -0.27597
  3 Li    0.00223   -0.00266   -0.27197
  4 Li   -0.00185   -0.00317   -0.27126
  5 Li    0.00118    0.00916   -0.27096
  6 Li   -0.00235    0.00079   -0.27191
  7 Li    0.00307    0.00210   -0.27538
  8 Li   -0.00079   -0.00435   -0.27095
  9 Li    0.00842   -0.00486    0.27029
 10 Li    0.00544    0.00466    0.26390
 11 Li   -0.01149   -0.00727    0.26541
 12 Li    0.00025   -0.00471    0.28164
 13 Li    0.00034    0.01078    0.24718
 14 Li   -0.00076   -0.00317    0.27987
 15 Li   -0.00523    0.01087    0.26161
 16 Li   -0.00463   -0.01523    0.27200
 17 Li    0.00911    0.01298    0.26582
 18 Li    0.00314    0.00532    0.02130
 19 Li   -0.00406    0.01315    0.01930
 20 Li   -0.00364   -0.01532   -0.06062
 21 Li   -0.01564   -0.00903    0.04184
 22 Li    0.01424   -0.00579    0.04029
 23 Li    0.00005   -0.00349    0.02340
 24 Li    0.00493    0.00151    0.02346
 25 Li   -0.01665   -0.01286    0.00505
 26 Li    0.00468    0.01941    0.05424
 27 Li    0.04201   -0.03264   -0.03134
 28 Li   -0.00020    0.00543   -0.01885
 29 Li   -0.17440   -0.12183   -0.22646
 30 Li   -0.02611   -0.03825    0.07600
 31 Li    0.00061   -0.00388   -0.02382
 32 Li    0.02491   -0.03755    0.08234
 33 Li   -0.01206    0.01264   -0.00805
 34 Li   -0.00022   -0.00034   -0.01534
 35 Li    0.01424    0.02073   -0.00165
 36 O    -0.07490   -0.15541    0.32716
 37 C    -0.01072   -0.00063   -0.41537
 38 H    -0.01993    0.05480   -0.02005
 39 H     0.03733    0.04171   -0.00262
 40 H     0.01456    0.04163    0.09835
 41 H     0.18889    0.26484    0.04938

System changes: positions 

Initializing position-dependent things.

Density initialized from wave functions
       .-----------------------.  
      /|                       |  
     / |                       |  
    /  |                       |  
   /   |                       |  
  /    |                       |  
 *     |                       |  
 |     |                       |  
 |     |                       |  
 |     |                       |  
 |     |                       |  
 |     |               H       |  
 |     Li          H  CHi      |  
 |     |                       |  
 |     |     Li      LO      Li|  
 |     |  Li      Li H    Li   |  
 |     |   Li      Li      Li  |  
 |     |Li      Li      Li     |  
 |     | Li                    |  
 |   LLi     LLi     LLi       |  
 |     |  Li      Li      Li   |  
 | Li  |   Li      Li          |  
 |     |Li      Li      Li     |  
 Li    | Li      Li            |  
 |    Li      Li      Li       |  
 |     |                       |  
 |     |                       |  
 |     |                       |  
 |     |                       |  
 |     |                       |  
 |     |                       |  
 |     .-----------------------.  
 |    /                       /   
 |   /                       /    
 |  /                       /     
 | /                       /      
 |/                       /       
 *-----------------------*        

Positions:
   0 Li     1.617037    1.617037   10.000000    ( 0.0000,  0.0000,  0.0000)
   1 Li     4.851111    1.617037   10.000000    ( 0.0000,  0.0000,  0.0000)
   2 Li     8.085185    1.617037   10.000000    ( 0.0000,  0.0000,  0.0000)
   3 Li     1.617037    4.851111   10.000000    ( 0.0000,  0.0000,  0.0000)
   4 Li     4.851111    4.851111   10.000000    ( 0.0000,  0.0000,  0.0000)
   5 Li     8.085185    4.851111   10.000000    ( 0.0000,  0.0000,  0.0000)
   6 Li     1.617037    8.085185   10.000000    ( 0.0000,  0.0000,  0.0000)
   7 Li     4.851111    8.085185   10.000000    ( 0.0000,  0.0000,  0.0000)
   8 Li     8.085185    8.085185   10.000000    ( 0.0000,  0.0000,  0.0000)
   9 Li     0.000000    0.000000   11.617037    ( 0.0000,  0.0000,  0.0000)
  10 Li     3.234074    0.000000   11.617037    ( 0.0000,  0.0000,  0.0000)
  11 Li     6.468148    0.000000   11.617037    ( 0.0000,  0.0000,  0.0000)
  12 Li     0.000000    3.234074   11.617037    ( 0.0000,  0.0000,  0.0000)
  13 Li     3.234074    3.234074   11.617037    ( 0.0000,  0.0000,  0.0000)
  14 Li     6.468148    3.234074   11.617037    ( 0.0000,  0.0000,  0.0000)
  15 Li     0.000000    6.468148   11.617037    ( 0.0000,  0.0000,  0.0000)
  16 Li     3.234074    6.468148   11.617037    ( 0.0000,  0.0000,  0.0000)
  17 Li     6.468148    6.468148   11.617037    ( 0.0000,  0.0000,  0.0000)
  18 Li     1.618107    1.618049   13.475976    ( 0.0000,  0.0000,  0.0000)
  19 Li     4.851020    1.618959   13.477237    ( 0.0000,  0.0000,  0.0000)
  20 Li     8.084130    1.612764   13.452340    ( 0.0000,  0.0000,  0.0000)
  21 Li     1.613461    4.849157   13.480787    ( 0.0000,  0.0000,  0.0000)
  22 Li     4.854338    4.850043   13.480318    ( 0.0000,  0.0000,  0.0000)
  23 Li     8.085282    4.850686   13.475519    ( 0.0000,  0.0000,  0.0000)
  24 Li     1.618215    8.086012   13.476988    ( 0.0000,  0.0000,  0.0000)
  25 Li     4.848836    8.084056   13.474442    ( 0.0000,  0.0000,  0.0000)
  26 Li     8.085653    8.091266   13.486544    ( 0.0000,  0.0000,  0.0000)
  27 Li     0.012672   -0.008911   15.437591    ( 0.0000,  0.0000,  0.0000)
  28 Li     3.235125    0.001607   15.440826    ( 0.0000,  0.0000,  0.0000)
  29 Li     6.416749   -0.034805   15.380729    ( 0.0000,  0.0000,  0.0000)
  30 Li    -0.005531    3.226102   15.462954    ( 0.0000,  0.0000,  0.0000)
  31 Li     3.234373    3.233211   15.439408    ( 0.0000,  0.0000,  0.0000)
  32 Li     6.472975    3.227557   15.464079    ( 0.0000,  0.0000,  0.0000)
  33 Li    -0.003300    6.471903   15.443302    ( 0.0000,  0.0000,  0.0000)
  34 Li     3.233681    6.467382   15.441411    ( 0.0000,  0.0000,  0.0000)
  35 Li     6.472066    6.474373   15.444993    ( 0.0000,  0.0000,  0.0000)
  36 O      8.088308    1.647879   17.430141    ( 0.0000,  0.0000,  0.0000)
  37 C      8.083942    1.619258   18.903106    ( 0.0000,  0.0000,  0.0000)
  38 H      8.769273    0.847633   19.273329    ( 0.0000,  0.0000,  0.0000)
  39 H      7.071334    1.424546   19.273695    ( 0.0000,  0.0000,  0.0000)
  40 H      8.419051    2.606084   19.214960    ( 0.0000,  0.0000,  0.0000)
  41 H      7.820990    0.747658   17.133195    ( 0.0000,  0.0000,  0.0000)

Unit cell:
           periodic     x           y           z      points  spacing
  1. axis:    yes    9.702222    0.000000    0.000000    60     0.1617
  2. axis:    yes    0.000000    9.702222    0.000000    60     0.1617
  3. axis:    no     0.000000    0.000000   24.851111   156     0.1593

  Lengths:   9.702222   9.702222  24.851111
  Angles:   90.000000  90.000000  90.000000

Effective grid spacing dv^(1/3) = 0.1609

     iter     time        total  log10-change:
                         energy  eigst   dens
iter:   1 04:53:44  -247.023572  -1.32
iter:   2 04:56:07  -247.019197  -2.04  -2.01
iter:   3 04:58:23  -247.017368c -2.63  -2.21
iter:   4 05:00:36  -247.012997c -2.14  -2.28
Writing to output.gpw (mode='')

iter:   5 05:03:12  -247.013240c -3.43  -2.53
iter:   6 05:05:45  -247.012116c -2.66  -2.58
iter:   7 05:08:11  -247.012162c -2.51  -2.79
iter:   8 05:10:38  -247.012040c -3.41  -2.86
iter:   9 05:13:00  -247.012009c -3.31  -3.10
Writing to output.gpw (mode='')

iter:  10 05:15:29  -247.012030c -3.31  -3.18
iter:  11 05:17:50  -247.012001c -4.04  -3.28
iter:  12 05:20:16  -247.012008c -3.94  -3.38
iter:  13 05:22:46  -247.012015c -4.14  -3.55
iter:  14 05:25:12  -247.012015c -4.55  -3.60
Writing to output.gpw (mode='')

iter:  15 05:27:37  -247.012008c -4.87  -3.67
iter:  16 05:30:01  -247.012006c -5.01  -3.73
iter:  17 05:32:31  -247.012006c -5.21  -3.81
iter:  18 05:34:57  -247.012005c -5.36  -3.85
iter:  19 05:37:22  -247.012000c -5.13  -3.93
Writing to output.gpw (mode='')

iter:  20 05:39:48  -247.012001c -5.82  -4.02c
iter:  21 05:42:23  -247.012002c -5.55  -4.11c
iter:  22 05:44:50  -247.012002c -5.98  -4.31c
iter:  23 05:47:21  -247.012002c -6.05  -4.38c
iter:  24 05:49:48  -247.012002c -5.99  -4.52c
Writing to output.gpw (mode='')

iter:  25 05:52:11  -247.012002c -6.53  -4.56c
iter:  26 05:54:38  -247.012002c -6.44  -4.64c
iter:  27 05:57:07  -247.012003c -6.54  -4.79c
iter:  28 05:59:35  -247.012003c -6.80  -4.88c
iter:  29 06:01:55  -247.012003c -6.72  -5.05c
Writing to output.gpw (mode='')

iter:  30 06:04:29  -247.012003c -6.81  -5.12c
iter:  31 06:07:09  -247.012003c -6.81  -5.18c
iter:  32 06:09:40  -247.012003c -7.07  -5.27c
iter:  33 06:12:00  -247.012003c -7.24  -5.38c
iter:  34 06:14:19  -247.012003c -7.23  -5.43c
Writing to output.gpw (mode='')

iter:  35 06:16:46  -247.012003c -7.36  -5.48c
iter:  36 06:19:08  -247.012002c -7.46c -5.62c

Converged after 36 iterations.

Dipole moment: (-2.169717, -3.804898, 0.245348) |e|*Ang

Energy contributions relative to reference atoms: (reference = -10418.802594)

Kinetic:       +108.177248
Potential:      -99.542487
External:        +0.000000
XC:            -255.768404
Entropy (-ST):   -0.148836
Local:           +0.196059
--------------------------
Free energy:   -247.086421
Extrapolated:  -247.012002

Dipole-layer corrected work functions: 3.371246, 2.899603 eV

Showing only first 2 kpts
 Kpt  Band  Eigenvalues  Occupancy
  0    23     -3.38860    1.98743
  0    24     -3.29497    1.92099
  0    25     -2.97252    0.07407
  0    26     -2.88257    0.01265

  1    23     -3.17596    1.38454
  1    24     -3.13159    0.96172
  1    25     -3.10221    0.67953
  1    26     -3.05834    0.35260


Fermi level: -3.13542

No gap
Writing to output.gpw (mode='')


Forces in eV/Ang:
  0 Li    0.01015    0.00239   -0.27247
  1 Li   -0.00904    0.00062   -0.27476
  2 Li   -0.00161   -0.00646   -0.27626
  3 Li    0.00207   -0.00247   -0.27242
  4 Li   -0.00127   -0.00278   -0.27116
  5 Li    0.00122    0.00913   -0.27085
  6 Li   -0.00196    0.00117   -0.27213
  7 Li    0.00283    0.00215   -0.27640
  8 Li   -0.00097   -0.00424   -0.27144
  9 Li    0.01089   -0.00744    0.27133
 10 Li    0.00637    0.00532    0.26723
 11 Li   -0.01414   -0.01023    0.26849
 12 Li    0.00179   -0.00339    0.28178
 13 Li    0.00032    0.01256    0.24998
 14 Li   -0.00249   -0.00152    0.28005
 15 Li   -0.00570    0.01234    0.26564
 16 Li   -0.00563   -0.01797    0.27581
 17 Li    0.01023    0.01510    0.27001
 18 Li    0.00134    0.00631    0.01616
 19 Li   -0.00757    0.01844    0.00661
 20 Li   -0.00292   -0.01236   -0.04483
 21 Li   -0.01579   -0.00963    0.03598
 22 Li    0.01452   -0.00694    0.03498
 23 Li   -0.00034   -0.00538    0.02238
 24 Li    0.00492   -0.00077    0.01549
 25 Li   -0.02461   -0.02212   -0.01148
 26 Li    0.00760    0.01257    0.03621
 27 Li    0.03330   -0.02922   -0.03134
 28 Li   -0.00523    0.00422   -0.01532
 29 Li   -0.13090   -0.09644   -0.17694
 30 Li   -0.02677   -0.04042    0.07580
 31 Li   -0.00008   -0.00432   -0.01906
 32 Li    0.02697   -0.04525    0.08286
 33 Li   -0.01004    0.00887   -0.00454
 34 Li    0.00136    0.00276   -0.01114
 35 Li    0.01172    0.01409    0.00080
 36 O    -0.05694   -0.16030    0.49742
 37 C    -0.03552   -0.07260   -0.54846
 38 H    -0.06355    0.14066   -0.02594
 39 H     0.11757    0.07976    0.00150
 40 H    -0.01242   -0.03883    0.06058
 41 H     0.16124    0.26499    0.03321

System changes: positions 

Initializing position-dependent things.

Density initialized from wave functions
       .-----------------------.  
      /|                       |  
     / |                       |  
    /  |                       |  
   /   |                       |  
  /    |                       |  
 *     |                       |  
 |     |                       |  
 |     |                       |  
 |     |                       |  
 |     |                       |  
 |     |               H       |  
 |     Li          H  CHi      |  
 |     |                       |  
 |     |     Li      LO      Li|  
 |     |  Li      Li H    Li   |  
 |     |   Li      Li      Li  |  
 |     |Li      Li      Li     |  
 |     | Li                    |  
 |   LLi     LLi     LLi       |  
 |     |  Li      Li      Li   |  
 | Li  |   Li      Li          |  
 |     |Li      Li      Li     |  
 Li    | Li      Li            |  
 |    Li      Li      Li       |  
 |     |                       |  
 |     |                       |  
 |     |                       |  
 |     |                       |  
 |     |                       |  
 |     |                       |  
 |     .-----------------------.  
 |    /                       /   
 |   /                       /    
 |  /                       /     
 | /                       /      
 |/                       /       
 *-----------------------*        

Positions:
   0 Li     1.617037    1.617037   10.000000    ( 0.0000,  0.0000,  0.0000)
   1 Li     4.851111    1.617037   10.000000    ( 0.0000,  0.0000,  0.0000)
   2 Li     8.085185    1.617037   10.000000    ( 0.0000,  0.0000,  0.0000)
   3 Li     1.617037    4.851111   10.000000    ( 0.0000,  0.0000,  0.0000)
   4 Li     4.851111    4.851111   10.000000    ( 0.0000,  0.0000,  0.0000)
   5 Li     8.085185    4.851111   10.000000    ( 0.0000,  0.0000,  0.0000)
   6 Li     1.617037    8.085185   10.000000    ( 0.0000,  0.0000,  0.0000)
   7 Li     4.851111    8.085185   10.000000    ( 0.0000,  0.0000,  0.0000)
   8 Li     8.085185    8.085185   10.000000    ( 0.0000,  0.0000,  0.0000)
   9 Li     0.000000    0.000000   11.617037    ( 0.0000,  0.0000,  0.0000)
  10 Li     3.234074    0.000000   11.617037    ( 0.0000,  0.0000,  0.0000)
  11 Li     6.468148    0.000000   11.617037    ( 0.0000,  0.0000,  0.0000)
  12 Li     0.000000    3.234074   11.617037    ( 0.0000,  0.0000,  0.0000)
  13 Li     3.234074    3.234074   11.617037    ( 0.0000,  0.0000,  0.0000)
  14 Li     6.468148    3.234074   11.617037    ( 0.0000,  0.0000,  0.0000)
  15 Li     0.000000    6.468148   11.617037    ( 0.0000,  0.0000,  0.0000)
  16 Li     3.234074    6.468148   11.617037    ( 0.0000,  0.0000,  0.0000)
  17 Li     6.468148    6.468148   11.617037    ( 0.0000,  0.0000,  0.0000)
  18 Li     1.618556    1.618562   13.478744    ( 0.0000,  0.0000,  0.0000)
  19 Li     4.850849    1.620047   13.480335    ( 0.0000,  0.0000,  0.0000)
  20 Li     8.083659    1.610847   13.444641    ( 0.0000,  0.0000,  0.0000)
  21 Li     1.611761    4.848211   13.485817    ( 0.0000,  0.0000,  0.0000)
  22 Li     4.855878    4.849497   13.485145    ( 0.0000,  0.0000,  0.0000)
  23 Li     8.085315    4.850422   13.478214    ( 0.0000,  0.0000,  0.0000)
  24 Li     1.618770    8.086327   13.480146    ( 0.0000,  0.0000,  0.0000)
  25 Li     4.847497    8.083216   13.476110    ( 0.0000,  0.0000,  0.0000)
  26 Li     8.085973    8.093906   13.493865    ( 0.0000,  0.0000,  0.0000)
  27 Li     0.018280   -0.012967   15.433734    ( 0.0000,  0.0000,  0.0000)
  28 Li     3.235450    0.002320   15.438523    ( 0.0000,  0.0000,  0.0000)
  29 Li     6.394023   -0.050334   15.351705    ( 0.0000,  0.0000,  0.0000)
  30 Li    -0.008203    3.222221   15.471060    ( 0.0000,  0.0000,  0.0000)
  31 Li     3.234489    3.232792   15.436477    ( 0.0000,  0.0000,  0.0000)
  32 Li     6.475371    3.224169   15.472755    ( 0.0000,  0.0000,  0.0000)
  33 Li    -0.004788    6.473551   15.442174    ( 0.0000,  0.0000,  0.0000)
  34 Li     3.233547    6.467127   15.439414    ( 0.0000,  0.0000,  0.0000)
  35 Li     6.473830    6.477098   15.444633    ( 0.0000,  0.0000,  0.0000)
  36 O      8.087731    1.654887   17.431236    ( 0.0000,  0.0000,  0.0000)
  37 C      8.085243    1.625504   18.904840    ( 0.0000,  0.0000,  0.0000)
  38 H      8.769191    0.848246   19.270180    ( 0.0000,  0.0000,  0.0000)
  39 H      7.070640    1.426283   19.271479    ( 0.0000,  0.0000,  0.0000)
  40 H      8.421328    2.612531   19.223914    ( 0.0000,  0.0000,  0.0000)
  41 H      7.835279    0.752153   17.134013    ( 0.0000,  0.0000,  0.0000)

Unit cell:
           periodic     x           y           z      points  spacing
  1. axis:    yes    9.702222    0.000000    0.000000    60     0.1617
  2. axis:    yes    0.000000    9.702222    0.000000    60     0.1617
  3. axis:    no     0.000000    0.000000   24.851111   156     0.1593

  Lengths:   9.702222   9.702222  24.851111
  Angles:   90.000000  90.000000  90.000000

Effective grid spacing dv^(1/3) = 0.1609

     iter     time        total  log10-change:
                         energy  eigst   dens
iter:   1 06:22:13  -247.037269  -1.39
iter:   2 06:24:35  -247.029841  -2.11  -1.95
iter:   3 06:26:46  -247.028299c -2.74  -2.22
iter:   4 06:29:06  -247.025545c -2.38  -2.32
Writing to output.gpw (mode='')

iter:   5 06:31:36  -247.025609c -3.58  -2.58
iter:   6 06:33:55  -247.024940c -2.62  -2.62
iter:   7 06:36:19  -247.025017c -2.81  -2.87
iter:   8 06:38:36  -247.024975c -3.47  -2.97
iter:   9 06:40:50  -247.024927c -3.43  -3.07
Writing to output.gpw (mode='')

iter:  10 06:43:13  -247.024943c -3.48  -3.23
iter:  11 06:45:36  -247.024917c -4.35  -3.30
iter:  12 06:48:00  -247.024926c -4.10  -3.48
iter:  13 06:50:20  -247.024928c -4.47  -3.62
iter:  14 06:52:36  -247.024932c -4.56  -3.72
Writing to output.gpw (mode='')

iter:  15 06:55:04  -247.024928c -4.90  -3.76
iter:  16 06:57:27  -247.024928c -5.15  -3.83
iter:  17 06:59:48  -247.024923c -5.04  -3.85
iter:  18 07:02:07  -247.024922c -5.34  -3.99
iter:  19 07:04:28  -247.024924c -5.44  -4.13c
Writing to output.gpw (mode='')

iter:  20 07:06:51  -247.024924c -5.64  -4.24c
iter:  21 07:09:17  -247.024923c -5.76  -4.40c
iter:  22 07:11:33  -247.024923c -6.00  -4.49c
iter:  23 07:14:00  -247.024923c -6.02  -4.52c
iter:  24 07:16:15  -247.024923c -6.33  -4.63c
Writing to output.gpw (mode='')

iter:  25 07:18:34  -247.024924c -6.29  -4.70c
iter:  26 07:20:49  -247.024924c -6.43  -4.73c
iter:  27 07:23:18  -247.024924c -6.63  -4.99c
iter:  28 07:25:34  -247.024924c -6.72  -5.02c
iter:  29 07:28:03  -247.024924c -6.63  -5.11c
Writing to output.gpw (mode='')

iter:  30 07:30:16  -247.024924c -6.92  -5.26c
iter:  31 07:32:33  -247.024924c -6.99  -5.31c
iter:  32 07:35:02  -247.024924c -6.86  -5.33c
iter:  33 07:37:27  -247.024924c -6.90  -5.44c
iter:  34 07:39:57  -247.024924c -7.31  -5.64c
Writing to output.gpw (mode='')

iter:  35 07:42:23  -247.024924c -7.08  -5.66c
iter:  36 07:44:54  -247.024924c -7.32  -5.68c
iter:  37 07:47:22  -247.024924c -7.51c -5.75c

Converged after 37 iterations.

Dipole moment: (-2.176798, -3.531742, 0.245993) |e|*Ang

Energy contributions relative to reference atoms: (reference = -10418.802594)

Kinetic:       +108.021464
Potential:      -99.425148
External:        +0.000000
XC:            -255.742949
Entropy (-ST):   -0.148759
Local:           +0.196088
--------------------------
Free energy:   -247.099303
Extrapolated:  -247.024924

Dipole-layer corrected work functions: 3.371350, 2.898466 eV

Showing only first 2 kpts
 Kpt  Band  Eigenvalues  Occupancy
  0    23     -3.38770    1.98734
  0    24     -3.29436    1.92084
  0    25     -2.97114    0.07285
  0    26     -2.88163    0.01254

  1    23     -3.17458    1.37716
  1    24     -3.13109    0.96180
  1    25     -3.10351    0.69591
  1    26     -3.05700    0.34783


Fermi level: -3.13491

No gap
Writing to output.gpw (mode='')


Forces in eV/Ang:
  0 Li    0.01016    0.00223   -0.27240
  1 Li   -0.00910    0.00032   -0.27514
  2 Li   -0.00163   -0.00662   -0.27662
  3 Li    0.00190   -0.00230   -0.27298
  4 Li   -0.00068   -0.00241   -0.27112
  5 Li    0.00127    0.00913   -0.27081
  6 Li   -0.00159    0.00158   -0.27241
  7 Li    0.00261    0.00221   -0.27748
  8 Li   -0.00116   -0.00414   -0.27203
  9 Li    0.01344   -0.01005    0.27214
 10 Li    0.00732    0.00606    0.27062
 11 Li   -0.01686   -0.01327    0.27126
 12 Li    0.00331   -0.00204    0.28173
 13 Li    0.00024    0.01443    0.25275
 14 Li   -0.00421    0.00020    0.27997
 15 Li   -0.00611    0.01370    0.26966
 16 Li   -0.00673   -0.02093    0.27943
 17 Li    0.01136    0.01718    0.27421
 18 Li   -0.00061    0.00732    0.01132
 19 Li   -0.01098    0.02402   -0.00576
 20 Li   -0.00234   -0.00958   -0.02862
 21 Li   -0.01588   -0.01020    0.03014
 22 Li    0.01477   -0.00807    0.02976
 23 Li   -0.00075   -0.00742    0.02165
 24 Li    0.00501   -0.00316    0.00752
 25 Li   -0.03342   -0.03238   -0.02895
 26 Li    0.01070    0.00574    0.01832
 27 Li    0.02588   -0.02665   -0.03251
 28 Li   -0.01043    0.00318   -0.01156
 29 Li   -0.08917   -0.07135   -0.12915
 30 Li   -0.02661   -0.04165    0.07461
 31 Li   -0.00079   -0.00481   -0.01405
 32 Li    0.02798   -0.05188    0.08184
 33 Li   -0.00800    0.00500   -0.00090
 34 Li    0.00290    0.00585   -0.00690
 35 Li    0.00926    0.00726    0.00337
 36 O    -0.02109   -0.11434    0.51760
 37 C    -0.04859   -0.10534   -0.54456
 38 H    -0.08323    0.19097   -0.02488
 39 H     0.15944    0.10436    0.01176
 40 H    -0.03670   -0.11794    0.01678
 41 H     0.11489    0.22722    0.00894

System changes: positions 

Initializing position-dependent things.

Density initialized from wave functions
       .-----------------------.  
      /|                       |  
     / |                       |  
    /  |                       |  
   /   |                       |  
  /    |                       |  
 *     |                       |  
 |     |                       |  
 |     |                       |  
 |     |                       |  
 |     |                       |  
 |     |               H       |  
 |     Li          H  CHi      |  
 |     |                       |  
 |     |     Li      LO      Li|  
 |     |  Li      Li H    Li   |  
 |     |   Li      Li      Li  |  
 |     |Li      Li      Li     |  
 |     | Li                    |  
 |   LLi     LLi     LLi       |  
 |     |  Li      Li      Li   |  
 | Li  |   Li      Li          |  
 |     |Li      Li      Li     |  
 Li    | Li      Li            |  
 |    Li      Li      Li       |  
 |     |                       |  
 |     |                       |  
 |     |                       |  
 |     |                       |  
 |     |                       |  
 |     |                       |  
 |     .-----------------------.  
 |    /                       /   
 |   /                       /    
 |  /                       /     
 | /                       /      
 |/                       /       
 *-----------------------*        

Positions:
   0 Li     1.617037    1.617037   10.000000    ( 0.0000,  0.0000,  0.0000)
   1 Li     4.851111    1.617037   10.000000    ( 0.0000,  0.0000,  0.0000)
   2 Li     8.085185    1.617037   10.000000    ( 0.0000,  0.0000,  0.0000)
   3 Li     1.617037    4.851111   10.000000    ( 0.0000,  0.0000,  0.0000)
   4 Li     4.851111    4.851111   10.000000    ( 0.0000,  0.0000,  0.0000)
   5 Li     8.085185    4.851111   10.000000    ( 0.0000,  0.0000,  0.0000)
   6 Li     1.617037    8.085185   10.000000    ( 0.0000,  0.0000,  0.0000)
   7 Li     4.851111    8.085185   10.000000    ( 0.0000,  0.0000,  0.0000)
   8 Li     8.085185    8.085185   10.000000    ( 0.0000,  0.0000,  0.0000)
   9 Li     0.000000    0.000000   11.617037    ( 0.0000,  0.0000,  0.0000)
  10 Li     3.234074    0.000000   11.617037    ( 0.0000,  0.0000,  0.0000)
  11 Li     6.468148    0.000000   11.617037    ( 0.0000,  0.0000,  0.0000)
  12 Li     0.000000    3.234074   11.617037    ( 0.0000,  0.0000,  0.0000)
  13 Li     3.234074    3.234074   11.617037    ( 0.0000,  0.0000,  0.0000)
  14 Li     6.468148    3.234074   11.617037    ( 0.0000,  0.0000,  0.0000)
  15 Li     0.000000    6.468148   11.617037    ( 0.0000,  0.0000,  0.0000)
  16 Li     3.234074    6.468148   11.617037    ( 0.0000,  0.0000,  0.0000)
  17 Li     6.468148    6.468148   11.617037    ( 0.0000,  0.0000,  0.0000)
  18 Li     1.618975    1.619130   13.481508    ( 0.0000,  0.0000,  0.0000)
  19 Li     4.850571    1.621345   13.483230    ( 0.0000,  0.0000,  0.0000)
  20 Li     8.083184    1.608915   13.437010    ( 0.0000,  0.0000,  0.0000)
  21 Li     1.609971    4.847201   13.490932    ( 0.0000,  0.0000,  0.0000)
  22 Li     4.857502    4.848891   13.490063    ( 0.0000,  0.0000,  0.0000)
  23 Li     8.085338    4.850090   13.481018    ( 0.0000,  0.0000,  0.0000)
  24 Li     1.619354    8.086592   13.483237    ( 0.0000,  0.0000,  0.0000)
  25 Li     4.845851    8.082057   13.477377    ( 0.0000,  0.0000,  0.0000)
  26 Li     8.086395    8.096482   13.501039    ( 0.0000,  0.0000,  0.0000)
  27 Li     0.023924   -0.017133   15.429683    ( 0.0000,  0.0000,  0.0000)
  28 Li     3.235646    0.003036   15.436208    ( 0.0000,  0.0000,  0.0000)
  29 Li     6.371388   -0.065908   15.322635    ( 0.0000,  0.0000,  0.0000)
  30 Li    -0.011019    3.218094   15.479561    ( 0.0000,  0.0000,  0.0000)
  31 Li     3.234592    3.232339   15.433537    ( 0.0000,  0.0000,  0.0000)
  32 Li     6.477935    3.220403   15.481867    ( 0.0000,  0.0000,  0.0000)
  33 Li    -0.006291    6.475174   15.441092    ( 0.0000,  0.0000,  0.0000)
  34 Li     3.233451    6.466946   15.437437    ( 0.0000,  0.0000,  0.0000)
  35 Li     6.475611    6.479768   15.444327    ( 0.0000,  0.0000,  0.0000)
  36 O      8.087382    1.661444   17.435193    ( 0.0000,  0.0000,  0.0000)
  37 C      8.086166    1.630960   18.903870    ( 0.0000,  0.0000,  0.0000)
  38 H      8.768382    0.850589   19.266900    ( 0.0000,  0.0000,  0.0000)
  39 H      7.071396    1.428921   19.269460    ( 0.0000,  0.0000,  0.0000)
  40 H      8.423021    2.617102   19.232336    ( 0.0000,  0.0000,  0.0000)
  41 H      7.849705    0.757792   17.134651    ( 0.0000,  0.0000,  0.0000)

Unit cell:
           periodic     x           y           z      points  spacing
  1. axis:    yes    9.702222    0.000000    0.000000    60     0.1617
  2. axis:    yes    0.000000    9.702222    0.000000    60     0.1617
  3. axis:    no     0.000000    0.000000   24.851111   156     0.1593

  Lengths:   9.702222   9.702222  24.851111
  Angles:   90.000000  90.000000  90.000000

Effective grid spacing dv^(1/3) = 0.1609

     iter     time        total  log10-change:
                         energy  eigst   dens
iter:   1 07:50:20  -247.052374  -1.39
iter:   2 07:52:36  -247.041834  -2.12  -1.90
iter:   3 07:54:57  -247.040227c -2.75  -2.20
iter:   4 07:57:16  -247.038047c -2.40  -2.34
Writing to output.gpw (mode='')

iter:   5 07:59:30  -247.038057c -3.56  -2.59
iter:   6 08:01:57  -247.037595c -2.65  -2.63
iter:   7 08:04:17  -247.037651c -2.74  -2.84
iter:   8 08:06:39  -247.037541c -3.55  -2.95
iter:   9 08:08:56  -247.037532c -3.66  -3.21
Writing to output.gpw (mode='')

iter:  10 08:11:19  -247.037547c -3.76  -3.31
iter:  11 08:13:33  -247.037525c -4.39  -3.34
iter:  12 08:15:56  -247.037531c -4.34  -3.56
iter:  13 08:18:20  -247.037532c -4.83  -3.68
iter:  14 08:20:35  -247.037535c -4.75  -3.76
Writing to output.gpw (mode='')

iter:  15 08:23:07  -247.037533c -4.97  -3.81
iter:  16 08:25:33  -247.037534c -5.15  -3.90
iter:  17 08:27:56  -247.037532c -5.15  -3.92
iter:  18 08:30:18  -247.037532c -5.53  -3.97
iter:  19 08:32:35  -247.037531c -5.40  -4.05c
Writing to output.gpw (mode='')

iter:  20 08:35:07  -247.037532c -5.66  -4.25c
iter:  21 08:37:43  -247.037533c -5.74  -4.38c
iter:  22 08:40:12  -247.037533c -5.88  -4.47c
iter:  23 08:42:32  -247.037533c -6.15  -4.50c
iter:  24 08:44:46  -247.037532c -6.07  -4.54c
Writing to output.gpw (mode='')

iter:  25 08:47:08  -247.037533c -6.29  -4.73c
iter:  26 08:49:27  -247.037532c -6.44  -4.79c
iter:  27 08:51:51  -247.037532c -6.40  -5.03c
iter:  28 08:54:09  -247.037533c -6.70  -5.04c
iter:  29 08:56:40  -247.037533c -6.66  -5.10c
Writing to output.gpw (mode='')

iter:  30 08:59:03  -247.037533c -6.75  -5.24c
iter:  31 09:01:23  -247.037533c -6.82  -5.32c
iter:  32 09:03:45  -247.037533c -7.01  -5.38c
iter:  33 09:06:08  -247.037533c -7.01  -5.55c
iter:  34 09:08:28  -247.037533c -7.22  -5.73c
Writing to output.gpw (mode='')

iter:  35 09:10:45  -247.037533c -7.25  -5.72c
iter:  36 09:13:04  -247.037533c -7.19  -5.72c
iter:  37 09:15:30  -247.037533c -7.11  -5.70c
iter:  38 09:17:45  -247.037533c -7.31  -5.57c
iter:  39 09:20:05  -247.037533c -7.58c -5.73c

Converged after 39 iterations.

Dipole moment: (-2.183850, -3.252376, 0.244470) |e|*Ang

Energy contributions relative to reference atoms: (reference = -10418.802594)

Kinetic:       +108.187304
Potential:      -99.537224
External:        +0.000000
XC:            -255.809513
Entropy (-ST):   -0.148699
Local:           +0.196250
--------------------------
Free energy:   -247.111882
Extrapolated:  -247.037533

Dipole-layer corrected work functions: 3.371596, 2.901641 eV

Showing only first 2 kpts
 Kpt  Band  Eigenvalues  Occupancy
  0    23     -3.38903    1.98724
  0    24     -3.29597    1.92068
  0    25     -2.97200    0.07167
  0    26     -2.88294    0.01244

  1    23     -3.17545    1.36992
  1    24     -3.13277    0.96155
  1    25     -3.10700    0.71219
  1    26     -3.05794    0.34340


Fermi level: -3.13662

No gap
Writing to output.gpw (mode='')


Forces in eV/Ang:
  0 Li    0.01018    0.00208   -0.27235
  1 Li   -0.00916    0.00003   -0.27554
  2 Li   -0.00165   -0.00679   -0.27700
  3 Li    0.00172   -0.00213   -0.27357
  4 Li   -0.00005   -0.00204   -0.27108
  5 Li    0.00132    0.00914   -0.27076
  6 Li   -0.00121    0.00202   -0.27269
  7 Li    0.00237    0.00228   -0.27858
  8 Li   -0.00133   -0.00403   -0.27267
  9 Li    0.01605   -0.01265    0.27277
 10 Li    0.00829    0.00686    0.27407
 11 Li   -0.01965   -0.01635    0.27381
 12 Li    0.00478   -0.00068    0.28152
 13 Li    0.00008    0.01643    0.25549
 14 Li   -0.00586    0.00199    0.27964
 15 Li   -0.00646    0.01495    0.27366
 16 Li   -0.00799   -0.02417    0.28284
 17 Li    0.01251    0.01921    0.27841
 18 Li   -0.00268    0.00830    0.00669
 19 Li   -0.01427    0.02974   -0.01778
 20 Li   -0.00189   -0.00693   -0.01228
 21 Li   -0.01590   -0.01072    0.02430
 22 Li    0.01499   -0.00914    0.02463
 23 Li   -0.00116   -0.00956    0.02113
 24 Li    0.00518   -0.00566   -0.00043
 25 Li   -0.04296   -0.04352   -0.04718
 26 Li    0.01388   -0.00107    0.00053
 27 Li    0.01938   -0.02466   -0.03429
 28 Li   -0.01570    0.00226   -0.00772
 29 Li   -0.04879   -0.04543   -0.08298
 30 Li   -0.02562   -0.04206    0.07256
 31 Li   -0.00149   -0.00530   -0.00888
 32 Li    0.02799   -0.05749    0.07946
 33 Li   -0.00587    0.00105    0.00280
 34 Li    0.00440    0.00891   -0.00272
 35 Li    0.00680    0.00031    0.00599
 36 O     0.01668   -0.03640    0.43020
 37 C    -0.04905   -0.10528   -0.44031
 38 H    -0.07956    0.20541   -0.01730
 39 H     0.16333    0.11418    0.02659
 40 H    -0.05406   -0.17735   -0.02728
 41 H     0.07274    0.17729   -0.01344

System changes: positions 

Initializing position-dependent things.

Density initialized from wave functions
       .-----------------------.  
      /|                       |  
     / |                       |  
    /  |                       |  
   /   |                       |  
  /    |                       |  
 *     |                       |  
 |     |                       |  
 |     |                       |  
 |     |                       |  
 |     |                       |  
 |     |               H       |  
 |     Li          H  CHi      |  
 |     |                       |  
 |     |     Li      LO      Li|  
 |     |  Li      Li H    Li   |  
 |     |   Li      Li      Li  |  
 |     |Li      Li      Li     |  
 |     | Li                    |  
 |   LLi     LLi     LLi       |  
 |     |  Li      Li      Li   |  
 | Li  |   Li      Li          |  
 |     |Li      Li      Li     |  
 Li    | Li      Li            |  
 |    Li      Li      Li       |  
 |     |                       |  
 |     |                       |  
 |     |                       |  
 |     |                       |  
 |     |                       |  
 |     |                       |  
 |     .-----------------------.  
 |    /                       /   
 |   /                       /    
 |  /                       /     
 | /                       /      
 |/                       /       
 *-----------------------*        

Positions:
   0 Li     1.617037    1.617037   10.000000    ( 0.0000,  0.0000,  0.0000)
   1 Li     4.851111    1.617037   10.000000    ( 0.0000,  0.0000,  0.0000)
   2 Li     8.085185    1.617037   10.000000    ( 0.0000,  0.0000,  0.0000)
   3 Li     1.617037    4.851111   10.000000    ( 0.0000,  0.0000,  0.0000)
[...]
iter:   6 16:36:56  -247.518276c -3.94  -3.05
iter:   7 16:39:15  -247.518293c -3.35  -3.25
iter:   8 16:41:34  -247.518281c -4.42  -3.32
iter:   9 16:43:51  -247.518281c -4.80  -3.61
Writing to output.gpw (mode='')

iter:  10 16:46:31  -247.518281c -4.69  -3.73
iter:  11 16:48:52  -247.518276c -5.12  -3.82
iter:  12 16:51:09  -247.518275c -5.57  -3.86
iter:  13 16:53:22  -247.518274c -5.56  -3.93
iter:  14 16:55:45  -247.518277c -5.50  -4.07c
Writing to output.gpw (mode='')

iter:  15 16:58:25  -247.518277c -6.06  -4.20c
iter:  16 17:01:06  -247.518278c -5.95  -4.23c
iter:  17 17:03:24  -247.518279c -6.18  -4.34c
iter:  18 17:05:49  -247.518279c -6.50  -4.51c
iter:  19 17:08:04  -247.518279c -6.41  -4.61c
Writing to output.gpw (mode='')

iter:  20 17:10:44  -247.518279c -6.95  -4.79c
iter:  21 17:13:08  -247.518279c -6.79  -4.88c
iter:  22 17:15:30  -247.518279c -7.24  -4.99c
iter:  23 17:17:55  -247.518279c -7.28  -5.17c
iter:  24 17:20:22  -247.518279c -7.47c -5.23c

Converged after 24 iterations.

Dipole moment: (-1.881249, 0.964567, 0.280188) |e|*Ang

Energy contributions relative to reference atoms: (reference = -10418.802594)

Kinetic:       +111.408103
Potential:     -101.991118
External:        +0.000000
XC:            -257.057507
Entropy (-ST):   -0.146456
Local:           +0.195471
--------------------------
Free energy:   -247.591506
Extrapolated:  -247.518279

Dipole-layer corrected work functions: 3.368496, 2.829878 eV

Showing only first 2 kpts
 Kpt  Band  Eigenvalues  Occupancy
  0    23     -3.34634    1.98583
  0    24     -3.26025    1.92326
  0    25     -2.93556    0.07305
  0    26     -2.84350    0.01196

  1    23     -3.13389    1.33375
  1    24     -3.10757    1.08358
  1    25     -3.07302    0.74416
  1    26     -2.99721    0.23021


Fermi level: -3.09919

No gap
Writing to output.gpw (mode='')


Forces in eV/Ang:
  0 Li   -0.00132    0.00453   -0.27559
  1 Li    0.00025    0.00433   -0.27722
  2 Li    0.00036   -0.01197   -0.27157
  3 Li    0.00311    0.00263   -0.27411
  4 Li   -0.00416    0.00210   -0.27276
  5 Li   -0.00045    0.00678   -0.27297
  6 Li    0.00760   -0.00093   -0.27368
  7 Li   -0.00783    0.00039   -0.27264
  8 Li    0.00032    0.00498   -0.26851
  9 Li    0.04927   -0.02015    0.26185
 10 Li   -0.00648    0.07233    0.29578
 11 Li   -0.04065   -0.01860    0.26882
 12 Li   -0.00100    0.00291    0.27471
 13 Li   -0.00312    0.01216    0.27002
 14 Li    0.01419   -0.00239    0.28060
 15 Li    0.02686   -0.00183    0.26224
 16 Li    0.00080   -0.11452    0.24959
 17 Li   -0.02380    0.00156    0.26465
 18 Li    0.02194   -0.00223   -0.01889
 19 Li    0.00325    0.00339    0.01408
 20 Li   -0.02410   -0.00554    0.01560
 21 Li   -0.00508   -0.00090   -0.00549
 22 Li   -0.00809    0.00091   -0.00755
 23 Li    0.00521    0.00366   -0.00833
 24 Li   -0.00945    0.00089    0.01790
 25 Li    0.01200   -0.00597    0.00760
 26 Li    0.00300   -0.01175    0.01416
 27 Li   -0.00824   -0.00868   -0.00889
 28 Li   -0.00448   -0.00734   -0.01722
 29 Li    0.01101    0.00300   -0.00645
 30 Li   -0.00088    0.01567   -0.00696
 31 Li    0.00457    0.01470    0.00174
 32 Li    0.01605    0.00338    0.02560
 33 Li   -0.00766    0.00901   -0.01009
 34 Li    0.00332   -0.00180   -0.02196
 35 Li    0.00709    0.00863    0.00111
 36 O    -0.01063   -0.06431   -0.00972
 37 C    -0.01049    0.01113    0.00234
 38 H    -0.00673    0.03213    0.00365
 39 H     0.00043    0.00944    0.02756
 40 H     0.00623    0.02441    0.01306
 41 H     0.00139    0.02752    0.02400

System changes: positions 

Initializing position-dependent things.

Density initialized from wave functions
       .-----------------------.  
      /|                       |  
     / |                       |  
    /  |                       |  
   /   |                       |  
  /    |                       |  
 *     |                       |  
 |     |                       |  
 |     |                       |  
 |     |                       |  
 |     |                       |  
 |     |                       |  
 |     Li      Li      Hi      |  
 |     |            H  CH      |  
 |   Li|     Li      LiO       |  
 |     |  Li      Li      LLi  |  
 |     |   Li      Li H        |  
 |     |Li      Li      Li     |  
 |     |                       |  
 |   LLi     LLi     LLi       |  
 |     |  Li      Li      Li   |  
 | Li  |   Li      Li          |  
 |     |Li      Li      Li     |  
 Li    | Li      Li            |  
 |    Li      Li      Li       |  
 |     |                       |  
 |     |                       |  
 |     |                       |  
 |     |                       |  
 |     |                       |  
 |     |                       |  
 |     .-----------------------.  
 |    /                       /   
 |   /                       /    
 |  /                       /     
 | /                       /      
 |/                       /       
 *-----------------------*        

Positions:
   0 Li     1.617037    1.617037   10.000000    ( 0.0000,  0.0000,  0.0000)
   1 Li     4.851111    1.617037   10.000000    ( 0.0000,  0.0000,  0.0000)
   2 Li     8.085185    1.617037   10.000000    ( 0.0000,  0.0000,  0.0000)
   3 Li     1.617037    4.851111   10.000000    ( 0.0000,  0.0000,  0.0000)
   4 Li     4.851111    4.851111   10.000000    ( 0.0000,  0.0000,  0.0000)
   5 Li     8.085185    4.851111   10.000000    ( 0.0000,  0.0000,  0.0000)
   6 Li     1.617037    8.085185   10.000000    ( 0.0000,  0.0000,  0.0000)
   7 Li     4.851111    8.085185   10.000000    ( 0.0000,  0.0000,  0.0000)
   8 Li     8.085185    8.085185   10.000000    ( 0.0000,  0.0000,  0.0000)
   9 Li     0.000000    0.000000   11.617037    ( 0.0000,  0.0000,  0.0000)
  10 Li     3.234074    0.000000   11.617037    ( 0.0000,  0.0000,  0.0000)
  11 Li     6.468148    0.000000   11.617037    ( 0.0000,  0.0000,  0.0000)
  12 Li     0.000000    3.234074   11.617037    ( 0.0000,  0.0000,  0.0000)
  13 Li     3.234074    3.234074   11.617037    ( 0.0000,  0.0000,  0.0000)
  14 Li     6.468148    3.234074   11.617037    ( 0.0000,  0.0000,  0.0000)
  15 Li     0.000000    6.468148   11.617037    ( 0.0000,  0.0000,  0.0000)
  16 Li     3.234074    6.468148   11.617037    ( 0.0000,  0.0000,  0.0000)
  17 Li     6.468148    6.468148   11.617037    ( 0.0000,  0.0000,  0.0000)
  18 Li     1.586884    1.654724   13.532255    ( 0.0000,  0.0000,  0.0000)
  19 Li     4.873712    1.650379   13.508673    ( 0.0000,  0.0000,  0.0000)
  20 Li     8.104553    1.582409   13.436572    ( 0.0000,  0.0000,  0.0000)
  21 Li     1.604656    4.812281   13.536440    ( 0.0000,  0.0000,  0.0000)
  22 Li     4.877211    4.813564   13.534087    ( 0.0000,  0.0000,  0.0000)
  23 Li     8.090940    4.853091   13.448239    ( 0.0000,  0.0000,  0.0000)
  24 Li     1.664568    8.048829   13.429211    ( 0.0000,  0.0000,  0.0000)
  25 Li     4.796345    8.050714   13.432813    ( 0.0000,  0.0000,  0.0000)
  26 Li     8.084925    8.068069   13.431077    ( 0.0000,  0.0000,  0.0000)
  27 Li     0.043534   -0.156743   15.305760    ( 0.0000,  0.0000,  0.0000)
  28 Li     3.238251   -0.016905   15.425227    ( 0.0000,  0.0000,  0.0000)
  29 Li     6.427975   -0.143867   15.293352    ( 0.0000,  0.0000,  0.0000)
  30 Li    -0.035463    3.271667   15.632647    ( 0.0000,  0.0000,  0.0000)
  31 Li     3.248743    3.226841   15.471255    ( 0.0000,  0.0000,  0.0000)
  32 Li     6.554979    3.277187   15.610275    ( 0.0000,  0.0000,  0.0000)
  33 Li     0.016083    6.480602   15.386594    ( 0.0000,  0.0000,  0.0000)
  34 Li     3.226845    6.469018   15.474062    ( 0.0000,  0.0000,  0.0000)
  35 Li     6.448649    6.488376   15.375603    ( 0.0000,  0.0000,  0.0000)
  36 O      8.116524    2.596130   16.757542    ( 0.0000,  0.0000,  0.0000)
  37 C      8.132530    2.396840   18.203229    ( 0.0000,  0.0000,  0.0000)
  38 H      8.976128    1.763242   18.483515    ( 0.0000,  0.0000,  0.0000)
  39 H      7.197898    1.933358   18.520698    ( 0.0000,  0.0000,  0.0000)
  40 H      8.237860    3.380680   18.654017    ( 0.0000,  0.0000,  0.0000)
  41 H      8.095831    1.693579   16.309440    ( 0.0000,  0.0000,  0.0000)

Unit cell:
           periodic     x           y           z      points  spacing
  1. axis:    yes    9.702222    0.000000    0.000000    60     0.1617
  2. axis:    yes    0.000000    9.702222    0.000000    60     0.1617
  3. axis:    no     0.000000    0.000000   24.851111   156     0.1593

  Lengths:   9.702222   9.702222  24.851111
  Angles:   90.000000  90.000000  90.000000

Effective grid spacing dv^(1/3) = 0.1609

     iter     time        total  log10-change:
                         energy  eigst   dens
iter:   1 17:23:38  -247.520104  -2.22
iter:   2 17:25:51  -247.519216  -3.01  -2.47
iter:   3 17:28:09  -247.519130c -3.68  -2.70
iter:   4 17:30:30  -247.518906c -3.66  -2.83
Writing to output.gpw (mode='')

iter:   5 17:33:10  -247.518880c -4.26  -3.11
iter:   6 17:35:45  -247.518845c -3.79  -3.17
iter:   7 17:38:08  -247.518860c -3.74  -3.29
iter:   8 17:40:34  -247.518836c -4.47  -3.43
iter:   9 17:42:54  -247.518838c -4.87  -3.67
Writing to output.gpw (mode='')

iter:  10 17:45:32  -247.518839c -5.08  -3.76
iter:  11 17:48:16  -247.518834c -5.17  -3.92
iter:  12 17:50:34  -247.518837c -5.50  -4.05c
iter:  13 17:52:57  -247.518837c -6.01  -4.08c
iter:  14 17:55:17  -247.518839c -5.93  -4.17c
Writing to output.gpw (mode='')

iter:  15 17:58:05  -247.518840c -6.19  -4.31c
iter:  16 18:00:38  -247.518841c -6.07  -4.30c
iter:  17 18:03:01  -247.518842c -6.10  -4.57c
iter:  18 18:05:31  -247.518841c -6.68  -4.65c
iter:  19 18:07:54  -247.518841c -6.63  -4.82c
Writing to output.gpw (mode='')

iter:  20 18:10:34  -247.518841c -6.78  -4.89c
iter:  21 18:12:57  -247.518841c -7.08  -4.89c
iter:  22 18:15:31  -247.518840c -7.15  -5.05c
iter:  23 18:17:52  -247.518840c -7.33  -5.11c
iter:  24 18:20:15  -247.518840c -7.50c -5.20c

Converged after 24 iterations.

Dipole moment: (-1.861796, 0.936957, 0.280383) |e|*Ang

Energy contributions relative to reference atoms: (reference = -10418.802594)

Kinetic:       +111.417100
Potential:     -101.995462
External:        +0.000000
XC:            -257.062728
Entropy (-ST):   -0.146437
Local:           +0.195468
--------------------------
Free energy:   -247.592059
Extrapolated:  -247.518840

Dipole-layer corrected work functions: 3.368521, 2.829528 eV

Showing only first 2 kpts
 Kpt  Band  Eigenvalues  Occupancy
  0    23     -3.34615    1.98583
  0    24     -3.26019    1.92341
  0    25     -2.93541    0.07307
  0    26     -2.84329    0.01194

  1    23     -3.13399    1.33607
  1    24     -3.10699    1.07946
  1    25     -3.07300    0.74549
  1    26     -2.99693    0.22973


Fermi level: -3.09902

No gap
Writing to output.gpw (mode='')


Forces in eV/Ang:
  0 Li   -0.00120    0.00439   -0.27558
  1 Li    0.00024    0.00426   -0.27707
  2 Li    0.00027   -0.01197   -0.27160
  3 Li    0.00320    0.00264   -0.27392
  4 Li   -0.00430    0.00226   -0.27289
  5 Li   -0.00040    0.00678   -0.27286
  6 Li    0.00751   -0.00085   -0.27386
  7 Li   -0.00772    0.00042   -0.27287
  8 Li    0.00025    0.00496   -0.26848
  9 Li    0.04818   -0.02020    0.26291
 10 Li   -0.00568    0.07043    0.29637
 11 Li   -0.04024   -0.01912    0.26890
 12 Li   -0.00113    0.00219    0.27483
 13 Li   -0.00258    0.01181    0.26910
 14 Li    0.01378   -0.00233    0.28093
 15 Li    0.02710   -0.00105    0.26210
 16 Li    0.00085   -0.11248    0.25085
 17 Li   -0.02377    0.00140    0.26477
 18 Li    0.01842   -0.00127   -0.01594
 19 Li    0.00304    0.00514    0.01252
 20 Li   -0.02036   -0.00546    0.01386
 21 Li   -0.00615   -0.00132   -0.00434
 22 Li   -0.00460    0.00052   -0.00584
 23 Li    0.00307    0.00234   -0.00631
 24 Li   -0.00752    0.00016    0.01396
 25 Li    0.00938   -0.00568    0.00447
 26 Li    0.00305   -0.00969    0.01135
 27 Li   -0.00566   -0.00814   -0.00945
 28 Li   -0.00415   -0.00648   -0.01467
 29 Li    0.00773   -0.00059   -0.00673
 30 Li   -0.00861    0.01195   -0.00383
 31 Li    0.00440    0.01360    0.00144
 32 Li    0.01385    0.00609    0.02463
 33 Li   -0.00722    0.00720   -0.00841
 34 Li    0.00315   -0.00223   -0.02107
 35 Li    0.00692    0.00590    0.00227
 36 O     0.01733   -0.01754   -0.01290
 37 C     0.00462    0.00631    0.03609
 38 H    -0.00079    0.02969   -0.01471
 39 H    -0.01580    0.01196    0.03810
 40 H    -0.00900    0.01659   -0.01171
 41 H     0.00115    0.00958    0.02187

Timing:                                      incl.     excl.
-------------------------------------------------------------------
Density initialized from wave functions:   170.137   170.134   0.0% |
 Symmetrize density:                         0.003     0.003   0.0% |
Forces:                                    590.327   590.327   0.1% |
Hamiltonian:                              8142.313     0.015   0.0% |
 Atomic:                                    12.792     0.201   0.0% |
  XC Correction:                            12.590    12.590   0.0% |
 Calculate atomic Hamiltonians:             41.223    41.223   0.0% |
 Communicate:                               41.584    41.584   0.0% |
 Hartree integrate/restrict:                14.921    14.921   0.0% |
 Initialize Hamiltonian:                     0.000     0.000   0.0% |
 Poisson:                                  324.309   145.386   0.0% |
  Communicate from 1D:                      25.200    25.200   0.0% |
  Communicate from 2D:                      40.008    40.008   0.0% |
  Communicate to 1D:                         9.491     9.491   0.0% |
  Communicate to 2D:                        38.229    38.229   0.0% |
  FFT 1D:                                   32.553    32.553   0.0% |
  FFT 2D:                                   33.443    33.443   0.0% |
 XC 3D grid:                              7703.846   790.538   0.2% |
  VdW-DF integral:                        6913.308    16.769   0.0% |
   Convolution:                            465.160   465.160   0.1% |
   FFT:                                     81.465    81.465   0.0% |
   gather:                                5480.016  5480.016   1.3% ||
   hmm1:                                    78.472    78.472   0.0% |
   hmm2:                                   104.210   104.210   0.0% |
   iFFT:                                    84.936    84.936   0.0% |
   potential:                              589.240     6.748   0.0% |
    collect:                                53.673    53.673   0.0% |
    p1:                                    229.193   229.193   0.1% |
    p2:                                    153.836   153.836   0.0% |
    sum:                                   145.789   145.789   0.0% |
   splines:                                 13.040    13.040   0.0% |
 vbar:                                       3.623     3.623   0.0% |
LCAO initialization:                        10.807     0.482   0.0% |
 LCAO eigensolver:                           3.599     0.001   0.0% |
  Calculate projections:                     0.000     0.000   0.0% |
  DenseAtomicCorrection:                     0.000     0.000   0.0% |
  Distribute overlap matrix:                 3.414     3.414   0.0% |
  Orbital Layouts:                           0.100     0.100   0.0% |
  Potential matrix:                          0.080     0.080   0.0% |
  Sum over cells:                            0.004     0.004   0.0% |
 LCAO to grid:                               4.599     4.599   0.0% |
 Set positions (LCAO WFS):                   2.126     1.806   0.0% |
  Basic WFS set positions:                   0.003     0.003   0.0% |
  Basis functions set positions:             0.001     0.001   0.0% |
  P tci:                                     0.001     0.001   0.0% |
  ST tci:                                    0.224     0.224   0.0% |
  mktci:                                     0.091     0.091   0.0% |
Redistribute:                                0.108     0.108   0.0% |
SCF-cycle:                               411288.861  6790.231   1.6% ||
 Davidson:                               104217.375 44201.341  10.5% |---|
  Apply hamiltonian:                      6784.631  6784.631   1.6% ||
  Subspace diag:                         14296.397     1.072   0.0% |
   calc_h_matrix:                         8981.191  2362.734   0.6% |
    Apply hamiltonian:                    6618.457  6618.457   1.6% ||
   diagonalize:                            552.659   552.659   0.1% |
   rotate_psi:                            4761.476  4761.476   1.1% |
  calc. matrices:                        29896.189 17595.094   4.2% |-|
   Apply hamiltonian:                    12301.096 12301.096   2.9% ||
  diagonalize:                              34.594    34.594   0.0% |
  rotate_psi:                             9004.223  9004.223   2.1% ||
 Density:                                 2632.285     0.188   0.0% |
  Atomic density matrices:                 707.632   707.632   0.2% |
  Mix:                                     884.513   884.513   0.2% |
  Multipole moments:                        10.921    10.921   0.0% |
  Pseudo density:                         1029.030  1028.890   0.2% |
   Symmetrize density:                       0.140     0.140   0.0% |
 Hamiltonian:                            297438.006     0.835   0.0% |
  Atomic:                                  462.592     5.832   0.0% |
   XC Correction:                          456.761   456.761   0.1% |
  Calculate atomic Hamiltonians:          1527.956  1527.956   0.4% |
  Communicate:                            1448.149  1448.149   0.3% |
  Hartree integrate/restrict:              542.324   542.324   0.1% |
  Poisson:                               11883.734  5378.536   1.3% ||
   Communicate from 1D:                    879.341   879.341   0.2% |
   Communicate from 2D:                   1450.479  1450.479   0.3% |
   Communicate to 1D:                      359.106   359.106   0.1% |
   Communicate to 2D:                     1371.840  1371.840   0.3% |
   FFT 1D:                                1220.615  1220.615   0.3% |
   FFT 2D:                                1223.818  1223.818   0.3% |
  XC 3D grid:                            281439.343 28881.173   6.8% |--|
   VdW-DF integral:                      252558.170   623.288   0.1% |
    Convolution:                         17118.808 17118.808   4.1% |-|
    FFT:                                  2918.692  2918.692   0.7% |
    gather:                              200424.476 200424.476  47.5% |------------------|
    hmm1:                                 2957.304  2957.304   0.7% |
    hmm2:                                 3927.110  3927.110   0.9% |
    iFFT:                                 3072.134  3072.134   0.7% |
    potential:                           21516.306   252.922   0.1% |
     collect:                             2029.646  2029.646   0.5% |
     p1:                                  8548.451  8548.451   2.0% ||
     p2:                                  5601.231  5601.231   1.3% ||
     sum:                                 5084.055  5084.055   1.2% |
    splines:                                 0.053     0.053   0.0% |
  vbar:                                    133.074   133.074   0.0% |
 Orthonormalize:                           210.964     0.035   0.0% |
  calc_s_matrix:                            30.091    30.091   0.0% |
  inverse-cholesky:                          7.507     7.507   0.0% |
  projections:                             104.553   104.553   0.0% |
  rotate_psi_s:                             68.777    68.777   0.0% |
Set symmetry:                                0.002     0.002   0.0% |
Other:                                    2070.749  2070.749   0.5% |
-------------------------------------------------------------------
Total:                                             422273.304 100.0%

Memory usage: 1.50 GiB
Date: Mon Mar 13 18:20:31 2023
