
  ___ ___ ___ _ _ _  
 |   |   |_  | | | | 
 | | | | | . | | | | 
 |__ |  _|___|_____|  22.8.0
 |___|_|             

User:   vazumah@c12.hercules
Date:   Thu Mar  2 01:08:56 2023
Arch:   x86_64
Pid:    21759
CWD:    /home/vazumah/Python_projects/LiNRR/Li_adsorb_studies/proton_donors/N2_with_proton_donor/Li_BCC_100/adsorbates/HBr/bridge/8.085_1.617/N2_x
Python: 3.10.8
gpaw:   /home/vazumah/.conda/envs/GPAW/lib/python3.10/site-packages/gpaw
_gpaw:  /home/vazumah/.conda/envs/GPAW/lib/python3.10/site-packages/
        _gpaw.cpython-310-x86_64-linux-gnu.so
ase:    /home/vazumah/.conda/envs/GPAW/lib/python3.10/site-packages/ase (version 3.22.1)
numpy:  /home/vazumah/.conda/envs/GPAW/lib/python3.10/site-packages/numpy (version 1.24.1)
scipy:  /home/vazumah/.conda/envs/GPAW/lib/python3.10/site-packages/scipy (version 1.10.0)
libxc:  5.2.3
units:  Angstrom and eV
cores: 24
OpenMP: True
OMP_NUM_THREADS: 1

Input parameters:
  h: 0.16
  kpts: {size: [4, 4, 1]}
  occupations: {name: fermi-dirac,
                width: 0.05}
  poissonsolver: {dipolelayer: xy}
  xc: BEEF-vdW

System changes: positions, numbers, cell, pbc, initial_charges, initial_magmoms 

Initialize ...

species:
  Li:
    name: Lithium
    id: 830b4218f175192f93f959cfc0aad614
    Z: 3.0
    valence: 1
    core: 2
    charge: 0.0
    file: /home/vazumah/.conda/envs/GPAW/share/gpaw/Li.PBE.gz
    compensation charges: {type: gauss,
                           rc: 0.33,
                           lmax: 2}
    cutoffs: {filter: 1.91,
              core: 2.55}
    valence states:
      #              energy  rcut
      - 2s(1.00)    -2.874   1.058
      - 2p(0.00)    -1.090   1.058
      -  s          24.337   1.058
  
    # Using partial waves for Li as LCAO basis

  Br:
    name: Bromine
    id: 39dc90fcf3bf77f2d83386b416c2c495
    Z: 35.0
    valence: 7
    core: 28
    charge: 0.0
    file: /home/vazumah/.conda/envs/GPAW/share/gpaw/Br.PBE.gz
    compensation charges: {type: gauss,
                           rc: 0.35,
                           lmax: 2}
    cutoffs: {filter: 1.98,
              core: 2.38}
    valence states:
      #              energy  rcut
      - 4s(2.00)   -20.121   1.111
      - 4p(5.00)    -7.861   1.111
      -  s           7.091   1.111
      -  p          19.351   1.111
      -  d           0.000   1.111
  
    # Using partial waves for Br as LCAO basis

  H:
    name: Hydrogen
    id: d65de229564ff8ea4db303e23b6d1ecf
    Z: 1.0
    valence: 1
    core: 0
    charge: 0.0
    file: /home/vazumah/.conda/envs/GPAW/share/gpaw/H.PBE.gz
    compensation charges: {type: gauss,
                           rc: 0.15,
                           lmax: 2}
    cutoffs: {filter: 0.85,
              core: 0.53}
    valence states:
      #              energy  rcut
      - 1s(1.00)    -6.494   0.476
      -  s          20.717   0.476
      -  p           0.000   0.476
  
    # Using partial waves for H as LCAO basis

  N:
    name: Nitrogen
    id: f7500608b86eaa90eef8b1d9a670dc53
    Z: 7.0
    valence: 5
    core: 2
    charge: 0.0
    file: /home/vazumah/.conda/envs/GPAW/share/gpaw/N.PBE.gz
    compensation charges: {type: gauss,
                           rc: 0.18,
                           lmax: 2}
    cutoffs: {filter: 1.11,
              core: 0.96}
    valence states:
      #              energy  rcut
      - 2s(2.00)   -18.583   0.603
      - 2p(3.00)    -7.089   0.529
      -  s           8.629   0.603
      -  p          20.123   0.529
      -  d           0.000   0.577
  
    # Using partial waves for N as LCAO basis

Reference energy: -81178.542429  # eV

Spin-paired calculation

Convergence criteria:
 Maximum [total energy] change in last 3 cyles: 0.0005 eV / electron
 Maximum integral of absolute [dens]ity change: 0.0001 electrons / valence electron
 Maximum integral of absolute [eigenst]ate change: 4e-08 eV^2 / valence electron
 Maximum number of scf [iter]ations: 333
 (Square brackets indicate name in SCF output, whereas a 'c' in
 the SCF output indicates the quantity has converged.)

Symmetries present (total): 1

  ( 1  0  0)
  ( 0  1  0)
  ( 0  0  1)

16 k-points: 4 x 4 x 1 Monkhorst-Pack grid
8 k-points in the irreducible part of the Brillouin zone
       k-points in crystal coordinates                weights
   0:     0.12500000   -0.37500000    0.00000000          2/16
   1:     0.12500000   -0.12500000    0.00000000          2/16
   2:     0.12500000    0.12500000    0.00000000          2/16
   3:     0.12500000    0.37500000    0.00000000          2/16
   4:     0.37500000   -0.37500000    0.00000000          2/16
   5:     0.37500000   -0.12500000    0.00000000          2/16
   6:     0.37500000    0.12500000    0.00000000          2/16
   7:     0.37500000    0.37500000    0.00000000          2/16

Wave functions: Uniform real-space grid
  Kinetic energy operator: 6*3+1=19 point O(h^6) finite-difference Laplacian
  ScaLapack parameters: grid=1x1, blocksize=None
  Wavefunction extrapolation:
    Improved wavefunction reuse through dual PAW basis 

Occupation numbers: Fermi-Dirac:
  width: 0.0500  # eV
 

Eigensolver
   Davidson(niter=2) 

Densities:
  Coarse grid: 60*60*168 grid
  Fine grid: 120*120*336 grid
  Total Charge: 0.000000 

Density mixing:
  Method: separate
  Backend: pulay
  Linear mixing parameter: 0.05
  old densities: 5
  Damping of long wavelength oscillations: 50 

Hamiltonian:
  XC and Coulomb potentials evaluated on a 120*120*336 grid
  Using the BEEF-vdW Exchange-Correlation functional
  Interpolation: tri-quintic (5. degree polynomial)
  Poisson solver: FastPoissonSolver using
    Stencil: 6*3+1=19 point O(h^6) finite-difference Laplacian
    FFT axes: [0, 1]
    FST axes: [2]

Dipole correction along z-axis 

XC parameters: BEEF-vdW with 2 nearest neighbor stencil

Memory estimate:
  Process memory now: 230.98 MiB
  Calculator: 395.41 MiB
    Density: 121.75 MiB
      Arrays: 39.61 MiB
      Localized functions: 67.04 MiB
      Mixer: 15.11 MiB
    Hamiltonian: 31.20 MiB
      Arrays: 25.90 MiB
      XC: 0.00 MiB
      Poisson: 0.00 MiB
      vbar: 5.30 MiB
    Wavefunctions: 242.46 MiB
      Arrays psit_nG: 111.79 MiB
      Eigensolver: 127.10 MiB
      Projections: 0.04 MiB
      Projectors: 3.53 MiB

Total number of cores used: 24
Parallelization over k-points: 8
Domain decomposition: 1 x 1 x 3

Number of atoms: 40
Number of atomic orbitals: 157
Number of bands in calculation: 37
Number of valence electrons: 54
Bands to converge: occupied

... initialized

Initializing position-dependent things.

Density initialized from atomic densities
Creating initial wave functions:
  37 bands from LCAO basis set

       .-----------------------.  
      /|                       |  
     / |                       |  
    /  |                       |  
   /   |                       |  
  /    |                       |  
 *     |                       |  
 |     |                       |  
 |     |                       |  
 |     |                       |  
 |     |                       |  
 |     |                       |  
 |     |                       |  
 |     |                       |  
 |     |          H   Br       |  
 |     |                       |  
 |   Li|     Li      Li        |  
 |     |  Li      LN  N   Li   |  
 | Li  |   Li      Li          |  
 |     |Li      Li      Li     |  
 Li    | Li      Li            |  
 |   LLi     LLi     LLi       |  
 |     |  Li      Li      Li   |  
 | Li  |   Li      Li          |  
 |     |Li      Li      Li     |  
 Li    | Li      Li            |  
 |    Li      Li      Li       |  
 |     |                       |  
 |     |                       |  
 |     |                       |  
 |     |                       |  
 |     |                       |  
 |     |                       |  
 |     .-----------------------.  
 |    /                       /   
 |   /                       /    
 |  /                       /     
 | /                       /      
 |/                       /       
 *-----------------------*        

Positions:
   0 Li     1.617037    1.617037   10.000000    ( 0.0000,  0.0000,  0.0000)
   1 Li     4.851111    1.617037   10.000000    ( 0.0000,  0.0000,  0.0000)
   2 Li     8.085185    1.617037   10.000000    ( 0.0000,  0.0000,  0.0000)
   3 Li     1.617037    4.851111   10.000000    ( 0.0000,  0.0000,  0.0000)
   4 Li     4.851111    4.851111   10.000000    ( 0.0000,  0.0000,  0.0000)
   5 Li     8.085185    4.851111   10.000000    ( 0.0000,  0.0000,  0.0000)
   6 Li     1.617037    8.085185   10.000000    ( 0.0000,  0.0000,  0.0000)
   7 Li     4.851111    8.085185   10.000000    ( 0.0000,  0.0000,  0.0000)
   8 Li     8.085185    8.085185   10.000000    ( 0.0000,  0.0000,  0.0000)
   9 Li     0.000000    0.000000   11.617037    ( 0.0000,  0.0000,  0.0000)
  10 Li     3.234074    0.000000   11.617037    ( 0.0000,  0.0000,  0.0000)
  11 Li     6.468148    0.000000   11.617037    ( 0.0000,  0.0000,  0.0000)
  12 Li     0.000000    3.234074   11.617037    ( 0.0000,  0.0000,  0.0000)
  13 Li     3.234074    3.234074   11.617037    ( 0.0000,  0.0000,  0.0000)
  14 Li     6.468148    3.234074   11.617037    ( 0.0000,  0.0000,  0.0000)
  15 Li     0.000000    6.468148   11.617037    ( 0.0000,  0.0000,  0.0000)
  16 Li     3.234074    6.468148   11.617037    ( 0.0000,  0.0000,  0.0000)
  17 Li     6.468148    6.468148   11.617037    ( 0.0000,  0.0000,  0.0000)
  18 Li     1.617038    1.617038   13.469728    ( 0.0000,  0.0000,  0.0000)
  19 Li     4.851111    1.617038   13.469729    ( 0.0000,  0.0000,  0.0000)
  20 Li     8.085184    1.617038   13.469728    ( 0.0000,  0.0000,  0.0000)
  21 Li     1.617038    4.851111   13.469729    ( 0.0000,  0.0000,  0.0000)
  22 Li     4.851111    4.851111   13.469730    ( 0.0000,  0.0000,  0.0000)
  23 Li     8.085184    4.851111   13.469729    ( 0.0000,  0.0000,  0.0000)
  24 Li     1.617038    8.085184   13.469728    ( 0.0000,  0.0000,  0.0000)
  25 Li     4.851111    8.085184   13.469729    ( 0.0000,  0.0000,  0.0000)
  26 Li     8.085184    8.085184   13.469728    ( 0.0000,  0.0000,  0.0000)
  27 Li    -0.000000   -0.000000   15.445939    ( 0.0000,  0.0000,  0.0000)
  28 Li     3.234074    0.000000   15.445939    ( 0.0000,  0.0000,  0.0000)
  29 Li     6.468148    0.000000   15.445939    ( 0.0000,  0.0000,  0.0000)
  30 Li     0.000000    3.234074   15.445939    ( 0.0000,  0.0000,  0.0000)
  31 Li     3.234076    3.234076   15.445938    ( 0.0000,  0.0000,  0.0000)
  32 Li     6.468146    3.234076   15.445938    ( 0.0000,  0.0000,  0.0000)
  33 Li     0.000000    6.468148   15.445939    ( 0.0000,  0.0000,  0.0000)
  34 Li     3.234076    6.468146   15.445938    ( 0.0000,  0.0000,  0.0000)
  35 Li     6.468146    6.468146   15.445938    ( 0.0000,  0.0000,  0.0000)
  36 Br     8.085185    1.617037   19.445939    ( 0.0000,  0.0000,  0.0000)
  37 H      6.663328    1.617037   19.445939    ( 0.0000,  0.0000,  0.0000)
  38 N      8.085000    1.617000   17.445939    ( 0.0000,  0.0000,  0.0000)
  39 N      6.988378    1.617000   17.445939    ( 0.0000,  0.0000,  0.0000)

Unit cell:
           periodic     x           y           z      points  spacing
  1. axis:    yes    9.702222    0.000000    0.000000    60     0.1617
  2. axis:    yes    0.000000    9.702222    0.000000    60     0.1617
  3. axis:    no     0.000000    0.000000   26.851111   168     0.1598

  Lengths:   9.702222   9.702222  26.851111
  Angles:   90.000000  90.000000  90.000000

Effective grid spacing dv^(1/3) = 0.1611

     iter     time        total  log10-change:
                         energy  eigst   dens
iter:   1 01:12:20  -482.942554
iter:   2 01:14:57  -255.152378  +2.33  -0.07
iter:   3 01:17:32  -203.151268  +3.24  -0.22
iter:   4 01:19:57  -285.761127  +3.17  -0.18
Writing to output.gpw (mode='')

iter:   5 01:22:26  -274.919691  +2.58  -0.19
iter:   6 01:25:05  -292.065739  +2.43  -0.45
iter:   7 01:27:39  -300.807437  +2.10  -0.61
iter:   8 01:30:07  -318.980652  +2.19  -0.70
iter:   9 01:32:35  -328.813182  +2.09  -0.62
Writing to output.gpw (mode='')

iter:  10 01:35:01  -335.601959  +1.99  -0.67
iter:  11 01:37:34  -346.231197  +1.90  -0.58
iter:  12 01:40:02  -377.319722  +2.02  -0.49
iter:  13 01:42:36  -372.243848  +1.50  -0.42
iter:  14 01:45:05  -409.337378  +2.08  -0.51
Writing to output.gpw (mode='')

iter:  15 01:47:35  -396.989444  +1.61  -0.27
iter:  16 01:50:13  -335.837491  +1.31  -0.35
iter:  17 01:52:45  -328.297557  +1.73  -0.51
iter:  18 01:55:16  -329.730894  +0.67  -0.72
iter:  19 01:57:40  -328.392858  +0.31  -0.70
Writing to output.gpw (mode='')

iter:  20 02:00:13  -326.996522  +0.44  -0.78
iter:  21 02:02:40  -327.109226  +0.79  -0.88
iter:  22 02:05:15  -326.553773  +0.48  -0.90
iter:  23 02:07:38  -326.637401  +0.31  -1.06
iter:  24 02:10:06  -327.030621  +0.50  -1.11
Writing to output.gpw (mode='')

iter:  25 02:12:32  -326.737769  +0.32  -1.18
iter:  26 02:14:59  -326.724437  -0.18  -1.27
iter:  27 02:17:31  -326.610088  -0.35  -1.32
iter:  28 02:19:58  -326.664215  -0.44  -1.52
iter:  29 02:22:18  -326.666874  -0.19  -1.46
Writing to output.gpw (mode='')

iter:  30 02:24:47  -326.609048  -0.65  -1.48
iter:  31 02:27:14  -326.619603  -0.74  -1.78
iter:  32 02:29:39  -326.618482c -0.99  -1.92
iter:  33 02:32:12  -326.618568c -1.36  -1.97
iter:  34 02:34:35  -326.620446c -1.22  -2.07
Writing to output.gpw (mode='')

iter:  35 02:37:02  -326.626798c -1.26  -2.27
iter:  36 02:39:34  -326.627563c -1.46  -2.31
iter:  37 02:42:06  -326.630202c -1.60  -2.45
iter:  38 02:44:37  -326.632818c -1.69  -2.53
iter:  39 02:46:59  -326.635039c -1.68  -2.53
Writing to output.gpw (mode='')

iter:  40 02:49:29  -326.637009c -1.82  -2.54
iter:  41 02:51:58  -326.638398c -1.93  -2.62
iter:  42 02:54:41  -326.639582c -2.19  -2.79
iter:  43 02:57:06  -326.640444c -2.20  -2.78
iter:  44 02:59:39  -326.641456c -2.15  -2.82
Writing to output.gpw (mode='')

iter:  45 03:02:08  -326.642188c -2.27  -2.97
iter:  46 03:04:40  -326.642793c -2.36  -3.02
iter:  47 03:07:20  -326.643326c -2.37  -3.10
iter:  48 03:10:03  -326.643941c -2.50  -3.21
iter:  49 03:12:33  -326.644250c -2.80  -3.22
Writing to output.gpw (mode='')

iter:  50 03:15:05  -326.644539c -2.70  -3.24
iter:  51 03:17:40  -326.644810c -2.70  -3.25
iter:  52 03:20:14  -326.645064c -2.80  -3.24
iter:  53 03:23:06  -326.645272c -3.03  -3.20
iter:  54 03:25:34  -326.645467c -3.03  -3.15
Writing to output.gpw (mode='')

iter:  55 03:28:06  -326.645617c -3.07  -3.21
iter:  56 03:30:36  -326.645729c -3.01  -3.27
iter:  57 03:33:14  -326.645838c -2.98  -3.33
iter:  58 03:35:40  -326.645938c -2.92  -3.36
iter:  59 03:38:12  -326.646019c -3.32  -3.43
Writing to output.gpw (mode='')

iter:  60 03:39:18  -326.646092c -3.22  -3.40
iter:  61 03:40:09  -326.646163c -3.52  -3.41
iter:  62 03:41:00  -326.646212c -3.45  -3.35
iter:  63 03:41:51  -326.646263c -3.69  -3.44
iter:  64 03:42:42  -326.646275c -3.30  -3.41
Writing to output.gpw (mode='')

iter:  65 03:43:35  -326.646297c -3.49  -3.50
iter:  66 03:44:26  -326.646338c -3.78  -3.53
iter:  67 03:45:17  -326.646371c -3.87  -3.63
iter:  68 03:46:08  -326.646375c -3.62  -3.75
iter:  69 03:46:59  -326.646396c -3.60  -3.87
Writing to output.gpw (mode='')

iter:  70 03:47:52  -326.646411c -3.84  -3.95
iter:  71 03:48:43  -326.646429c -4.08  -4.08c
iter:  72 03:49:34  -326.646437c -4.07  -4.11c
iter:  73 03:50:25  -326.646446c -4.07  -4.24c
iter:  74 03:51:16  -326.646455c -4.24  -4.40c
Writing to output.gpw (mode='')

iter:  75 03:52:09  -326.646465c -4.21  -4.48c
iter:  76 03:53:00  -326.646469c -4.23  -4.51c
iter:  77 03:53:51  -326.646473c -4.32  -4.52c
iter:  78 03:54:42  -326.646478c -4.48  -4.68c
iter:  79 03:55:33  -326.646482c -4.46  -4.77c
Writing to output.gpw (mode='')

iter:  80 03:56:25  -326.646486c -4.39  -4.75c
iter:  81 03:57:17  -326.646489c -4.45  -4.79c
iter:  82 03:58:08  -326.646491c -4.44  -4.78c
iter:  83 03:58:59  -326.646494c -4.54  -4.74c
iter:  84 03:59:50  -326.646496c -4.65  -4.66c
Writing to output.gpw (mode='')

iter:  85 04:00:42  -326.646498c -4.66  -4.60c
iter:  86 04:01:33  -326.646500c -4.85  -4.56c
iter:  87 04:02:24  -326.646501c -4.88  -4.48c
iter:  88 04:03:15  -326.646503c -4.91  -4.52c
iter:  89 04:04:07  -326.646503c -4.95  -4.45c
Writing to output.gpw (mode='')

iter:  90 04:04:59  -326.646503c -4.91  -4.45c
iter:  91 04:05:50  -326.646506c -5.04  -4.44c
iter:  92 04:06:42  -326.646505c -4.92  -4.34c
iter:  93 04:07:33  -326.646506c -5.19  -4.37c
iter:  94 04:08:24  -326.646506c -5.12  -4.33c
Writing to output.gpw (mode='')

iter:  95 04:09:16  -326.646504c -5.25  -4.32c
iter:  96 04:10:08  -326.646507c -5.18  -4.32c
iter:  97 04:10:59  -326.646502c -5.35  -4.18c
iter:  98 04:11:50  -326.646497c -5.16  -4.40c
iter:  99 04:12:41  -326.646499c -5.23  -4.52c
Writing to output.gpw (mode='')

iter: 100 04:13:34  -326.646497c -5.12  -4.55c
iter: 101 04:14:25  -326.646498c -5.38  -4.61c
iter: 102 04:15:16  -326.646497c -5.42  -4.73c
iter: 103 04:16:08  -326.646498c -5.51  -4.86c
iter: 104 04:16:59  -326.646498c -5.53  -4.88c
Writing to output.gpw (mode='')

iter: 105 04:17:51  -326.646497c -5.50  -4.89c
iter: 106 04:18:42  -326.646497c -5.47  -5.00c
iter: 107 04:19:34  -326.646497c -5.81  -5.15c
iter: 108 04:20:25  -326.646497c -5.91  -5.08c
iter: 109 04:21:16  -326.646496c -5.78  -5.08c
Writing to output.gpw (mode='')

iter: 110 04:22:08  -326.646496c -5.75  -5.12c
iter: 111 04:22:59  -326.646495c -5.78  -5.27c
iter: 112 04:23:51  -326.646495c -5.99  -5.43c
iter: 113 04:24:42  -326.646495c -6.16  -5.41c
iter: 114 04:25:33  -326.646495c -5.98  -5.66c
Writing to output.gpw (mode='')

iter: 115 04:26:26  -326.646495c -5.99  -5.72c
iter: 116 04:27:17  -326.646495c -5.95  -5.76c
iter: 117 04:28:08  -326.646494c -6.11  -5.76c
iter: 118 04:28:59  -326.646494c -6.26  -5.84c
iter: 119 04:29:50  -326.646494c -6.23  -5.90c
Writing to output.gpw (mode='')

iter: 120 04:30:42  -326.646494c -6.22  -6.06c
iter: 121 04:31:34  -326.646494c -6.20  -6.09c
iter: 122 04:32:25  -326.646493c -6.15  -6.15c
iter: 123 04:33:16  -326.646493c -6.27  -6.19c
iter: 124 04:34:08  -326.646493c -6.40  -6.16c
Writing to output.gpw (mode='')

iter: 125 04:35:00  -326.646493c -6.45  -6.01c
iter: 126 04:35:51  -326.646493c -6.49  -6.00c
iter: 127 04:36:42  -326.646493c -6.46  -5.93c
iter: 128 04:37:33  -326.646493c -6.46  -5.89c
iter: 129 04:38:24  -326.646493c -6.47  -5.87c
Writing to output.gpw (mode='')

iter: 130 04:39:17  -326.646492c -6.55  -5.79c
iter: 131 04:40:08  -326.646492c -6.57  -5.76c
iter: 132 04:40:59  -326.646492c -6.70  -5.80c
iter: 133 04:41:50  -326.646492c -6.69  -5.68c
iter: 134 04:42:41  -326.646492c -6.69  -5.70c
Writing to output.gpw (mode='')

iter: 135 04:43:33  -326.646492c -6.72  -5.71c
iter: 136 04:44:25  -326.646492c -6.65  -5.70c
iter: 137 04:45:16  -326.646492c -6.70  -5.78c
iter: 138 04:46:07  -326.646492c -6.92  -5.91c
iter: 139 04:46:58  -326.646492c -6.87  -5.63c
Writing to output.gpw (mode='')

iter: 140 04:47:50  -326.646492c -6.88  -6.03c
iter: 141 04:48:42  -326.646492c -6.90  -6.20c
iter: 142 04:49:33  -326.646491c -6.90  -6.25c
iter: 143 04:50:24  -326.646491c -6.99  -6.16c
iter: 144 04:51:15  -326.646491c -7.05  -6.17c
Writing to output.gpw (mode='')

iter: 145 04:52:10  -326.646491c -6.93  -6.15c
iter: 146 04:53:01  -326.646491c -7.11  -6.10c
iter: 147 04:53:53  -326.646491c -7.17  -6.12c
iter: 148 04:54:44  -326.646491c -7.05  -5.88c
iter: 149 04:55:35  -326.646491c -7.18  -6.04c
Writing to output.gpw (mode='')

iter: 150 04:56:27  -326.646491c -7.24  -5.89c
iter: 151 04:57:18  -326.646491c -7.16  -6.07c
iter: 152 04:58:10  -326.646491c -7.25  -6.17c
iter: 153 04:59:01  -326.646491c -7.28  -6.21c
iter: 154 04:59:52  -326.646491c -7.18  -6.22c
Writing to output.gpw (mode='')

iter: 155 05:00:44  -326.646491c -7.26  -6.31c
iter: 156 05:01:36  -326.646491c -7.32  -6.32c
iter: 157 05:02:27  -326.646491c -7.42c -6.47c

Converged after 157 iterations.

Dipole moment: (-2.105074, -3.868741, 0.065882) |e|*Ang

Energy contributions relative to reference atoms: (reference = -81178.542429)

Kinetic:       +136.850460
Potential:     -120.000919
External:        +0.000000
XC:            -343.631007
Entropy (-ST):   -0.157261
Local:           +0.213605
--------------------------
Free energy:   -326.725121
Extrapolated:  -326.646491

Dipole-layer corrected work functions: 3.395910, 3.269262 eV

Showing only first 2 kpts
 Kpt  Band  Eigenvalues  Occupancy
  0    25     -3.58211    1.98649
  0    26     -3.47239    1.88493
  0    27     -3.19653    0.12349
  0    28     -3.08460    0.01393

  1    25     -3.36013    1.26868
  1    26     -3.33086    0.98274
  1    27     -3.30553    0.73589
  1    28     -3.26547    0.41424


Fermi level: -3.33259

No gap
Writing to output.gpw (mode='')


Forces in eV/Ang:
  0 Li    0.01355   -0.00000   -0.26892
  1 Li   -0.02067    0.00000   -0.26907
  2 Li    0.00980    0.00000   -0.27391
  3 Li   -0.00302   -0.00261   -0.27902
  4 Li    0.00034    0.00466   -0.27347
  5 Li   -0.00156    0.02042   -0.27236
  6 Li   -0.00302    0.00261   -0.27901
  7 Li    0.00034   -0.00466   -0.27347
  8 Li   -0.00155   -0.02042   -0.27236
  9 Li    0.01005   -0.00398    0.26386
 10 Li   -0.01339    0.00359    0.24513
 11 Li   -0.00157    0.00609    0.29214
 12 Li    0.01005    0.00398    0.26386
 13 Li   -0.01339   -0.00359    0.24513
 14 Li   -0.00157   -0.00609    0.29214
 15 Li   -0.01490   -0.00000    0.24995
 16 Li    0.01619   -0.00000    0.27117
 17 Li    0.00437   -0.00000    0.23450
 18 Li   -0.00718   -0.00000    0.05427
 19 Li   -0.01791   -0.00000    0.00376
 20 Li    0.02097   -0.00000   -0.12385
 21 Li   -0.00298    0.00341    0.03802
 22 Li    0.01598   -0.01940    0.05641
 23 Li   -0.00677   -0.01455    0.05816
 24 Li   -0.00298   -0.00340    0.03803
 25 Li    0.01598    0.01940    0.05642
 26 Li   -0.00677    0.01456    0.05816
 27 Li    0.09225   -0.04120   -0.05271
 28 Li   -0.01146   -0.00321   -0.03240
 29 Li   -0.05391    0.02074    0.00091
 30 Li    0.09225    0.04121   -0.05271
 31 Li   -0.01146    0.00321   -0.03239
 32 Li   -0.05391   -0.02073    0.00090
 33 Li   -0.02208   -0.00000   -0.01515
 34 Li    0.00898    0.00000   -0.01356
 35 Li    0.00913    0.00000   -0.02108
 36 Br    3.33743    0.00020   10.72347
 37 H    -0.18328   -0.00000   -0.00153
 38 N     3.57264    0.00007   -4.92369
 39 N    -6.81215   -0.00004   -5.69680

System changes: positions 

Initializing position-dependent things.

Density initialized from wave functions
       .-----------------------.  
      /|                       |  
     / |                       |  
    /  |                       |  
   /   |                       |  
  /    |                       |  
 *     |                       |  
 |     |                       |  
 |     |                       |  
 |     |                       |  
 |     |                       |  
 |     |                       |  
 |     |                       |  
 |     |                       |  
 |     Li      Li H   Br       |  
 |     |                       |  
 |     |     Li      Li      Li|  
 |     |  Li      LN  N   Li   |  
 | Li  |   Li      Li          |  
 |     |Li      Li      Li     |  
 |     |         Li            |  
 |   LLi     LLi     LLi       |  
 |     |  Li      Li      Li   |  
 | Li  |   Li      Li          |  
 |     |Li      Li      Li     |  
 Li    | Li      Li            |  
 |    Li      Li      Li       |  
 |     |                       |  
 |     |                       |  
 |     |                       |  
 |     |                       |  
 |     |                       |  
 |     |                       |  
 |     .-----------------------.  
 |    /                       /   
 |   /                       /    
 |  /                       /     
 | /                       /      
 |/                       /       
 *-----------------------*        

Positions:
   0 Li     1.617037    1.617037   10.000000    ( 0.0000,  0.0000,  0.0000)
   1 Li     4.851111    1.617037   10.000000    ( 0.0000,  0.0000,  0.0000)
   2 Li     8.085185    1.617037   10.000000    ( 0.0000,  0.0000,  0.0000)
   3 Li     1.617037    4.851111   10.000000    ( 0.0000,  0.0000,  0.0000)
   4 Li     4.851111    4.851111   10.000000    ( 0.0000,  0.0000,  0.0000)
   5 Li     8.085185    4.851111   10.000000    ( 0.0000,  0.0000,  0.0000)
   6 Li     1.617037    8.085185   10.000000    ( 0.0000,  0.0000,  0.0000)
   7 Li     4.851111    8.085185   10.000000    ( 0.0000,  0.0000,  0.0000)
   8 Li     8.085185    8.085185   10.000000    ( 0.0000,  0.0000,  0.0000)
   9 Li     0.000000    0.000000   11.617037    ( 0.0000,  0.0000,  0.0000)
  10 Li     3.234074    0.000000   11.617037    ( 0.0000,  0.0000,  0.0000)
  11 Li     6.468148    0.000000   11.617037    ( 0.0000,  0.0000,  0.0000)
  12 Li     0.000000    3.234074   11.617037    ( 0.0000,  0.0000,  0.0000)
  13 Li     3.234074    3.234074   11.617037    ( 0.0000,  0.0000,  0.0000)
  14 Li     6.468148    3.234074   11.617037    ( 0.0000,  0.0000,  0.0000)
  15 Li     0.000000    6.468148   11.617037    ( 0.0000,  0.0000,  0.0000)
  16 Li     3.234074    6.468148   11.617037    ( 0.0000,  0.0000,  0.0000)
  17 Li     6.468148    6.468148   11.617037    ( 0.0000,  0.0000,  0.0000)
  18 Li     1.617013    1.617038   13.469921    ( 0.0000,  0.0000,  0.0000)
  19 Li     4.851047    1.617038   13.469743    ( 0.0000,  0.0000,  0.0000)
  20 Li     8.085259    1.617038   13.469287    ( 0.0000,  0.0000,  0.0000)
  21 Li     1.617028    4.851123   13.469865    ( 0.0000,  0.0000,  0.0000)
  22 Li     4.851168    4.851042   13.469931    ( 0.0000,  0.0000,  0.0000)
  23 Li     8.085159    4.851059   13.469937    ( 0.0000,  0.0000,  0.0000)
  24 Li     1.617027    8.085172   13.469863    ( 0.0000,  0.0000,  0.0000)
  25 Li     4.851168    8.085253   13.469930    ( 0.0000,  0.0000,  0.0000)
  26 Li     8.085160    8.085236   13.469935    ( 0.0000,  0.0000,  0.0000)
  27 Li     0.000329   -0.000147   15.445752    ( 0.0000,  0.0000,  0.0000)
  28 Li     3.234033   -0.000011   15.445823    ( 0.0000,  0.0000,  0.0000)
  29 Li     6.467956    0.000074   15.445942    ( 0.0000,  0.0000,  0.0000)
  30 Li     0.000329    3.234221   15.445751    ( 0.0000,  0.0000,  0.0000)
  31 Li     3.234036    3.234088   15.445823    ( 0.0000,  0.0000,  0.0000)
  32 Li     6.467954    3.234003   15.445941    ( 0.0000,  0.0000,  0.0000)
  33 Li    -0.000079    6.468148   15.445885    ( 0.0000,  0.0000,  0.0000)
  34 Li     3.234108    6.468146   15.445890    ( 0.0000,  0.0000,  0.0000)
  35 Li     6.468178    6.468146   15.445863    ( 0.0000,  0.0000,  0.0000)
  36 Br     8.097072    1.617038   19.484132    ( 0.0000,  0.0000,  0.0000)
  37 H      6.662676    1.617037   19.445934    ( 0.0000,  0.0000,  0.0000)
  38 N      8.097724    1.617000   17.428403    ( 0.0000,  0.0000,  0.0000)
  39 N      6.964116    1.617000   17.425649    ( 0.0000,  0.0000,  0.0000)

Unit cell:
           periodic     x           y           z      points  spacing
  1. axis:    yes    9.702222    0.000000    0.000000    60     0.1617
  2. axis:    yes    0.000000    9.702222    0.000000    60     0.1617
  3. axis:    no     0.000000    0.000000   26.851111   168     0.1598

  Lengths:   9.702222   9.702222  26.851111
  Angles:   90.000000  90.000000  90.000000

Effective grid spacing dv^(1/3) = 0.1611

     iter     time        total  log10-change:
                         energy  eigst   dens
iter:   1 05:03:42  -329.121157  -0.21
iter:   2 05:04:33  -328.983032  +0.36  -0.93
iter:   3 05:05:24  -327.381040  -0.21  -0.98
iter:   4 05:06:15  -327.368314  -0.61  -1.65
Writing to output.gpw (mode='')

iter:   5 05:07:07  -327.361052c -0.41  -1.74
iter:   6 05:07:58  -327.358697c -1.10  -1.90
iter:   7 05:08:50  -327.405076  -1.24  -2.01
iter:   8 05:09:41  -327.390572  -1.84  -1.99
iter:   9 05:10:32  -327.365268  -1.19  -2.07
Writing to output.gpw (mode='')

iter:  10 05:11:25  -327.370404c -2.32  -2.17
iter:  11 05:12:16  -327.364537c -2.12  -2.21
iter:  12 05:13:07  -327.363254c -1.93  -2.40
iter:  13 05:13:58  -327.365094c -2.35  -2.23
iter:  14 05:14:49  -327.362566c -2.69  -2.51
Writing to output.gpw (mode='')

iter:  15 05:15:41  -327.361945c -2.63  -2.65
iter:  16 05:16:32  -327.362959c -2.91  -2.74
iter:  17 05:17:23  -327.362761c -3.29  -2.85
iter:  18 05:18:14  -327.362191c -3.25  -2.98
iter:  19 05:19:05  -327.362416c -3.66  -3.03
Writing to output.gpw (mode='')

iter:  20 05:19:58  -327.362479c -3.64  -3.09
iter:  21 05:20:49  -327.362420c -3.92  -3.25
iter:  22 05:21:40  -327.362557c -3.67  -3.41
iter:  23 05:22:31  -327.362492c -4.45  -3.59
iter:  24 05:23:22  -327.362555c -4.47  -3.67
Writing to output.gpw (mode='')

iter:  25 05:24:14  -327.362528c -4.35  -3.76
iter:  26 05:25:06  -327.362522c -4.68  -3.91
iter:  27 05:25:57  -327.362538c -4.87  -4.00c
iter:  28 05:26:48  -327.362539c -4.69  -4.04c
iter:  29 05:27:39  -327.362541c -4.93  -4.29c
Writing to output.gpw (mode='')

iter:  30 05:28:31  -327.362552c -5.09  -4.37c
iter:  31 05:29:23  -327.362552c -4.90  -4.44c
iter:  32 05:30:14  -327.362554c -5.18  -4.54c
iter:  33 05:31:05  -327.362554c -5.17  -4.59c
iter:  34 05:31:56  -327.362558c -5.30  -4.64c
Writing to output.gpw (mode='')

iter:  35 05:32:48  -327.362560c -5.43  -4.67c
iter:  36 05:33:39  -327.362560c -5.63  -4.67c
iter:  37 05:34:30  -327.362557c -5.56  -4.65c
iter:  38 05:35:21  -327.362557c -5.76  -4.60c
iter:  39 05:36:12  -327.362555c -5.63  -4.58c
Writing to output.gpw (mode='')

iter:  40 05:37:04  -327.362553c -5.82  -4.47c
iter:  41 05:37:55  -327.362557c -6.14  -4.34c
iter:  42 05:38:46  -327.362551c -6.12  -4.41c
iter:  43 05:39:37  -327.362562c -6.33  -4.26c
iter:  44 05:40:29  -327.362570c -6.10  -4.65c
Writing to output.gpw (mode='')

iter:  45 05:41:23  -327.362566c -6.58  -4.81c
iter:  46 05:42:14  -327.362566c -6.64  -5.02c
iter:  47 05:43:06  -327.362567c -6.45  -5.02c
iter:  48 05:43:57  -327.362567c -6.47  -5.24c
iter:  49 05:44:48  -327.362566c -6.64  -5.37c
Writing to output.gpw (mode='')

iter:  50 05:45:40  -327.362567c -6.89  -5.44c
iter:  51 05:46:31  -327.362567c -6.68  -5.51c
iter:  52 05:47:22  -327.362567c -6.90  -5.52c
iter:  53 05:48:13  -327.362568c -6.87  -5.64c
iter:  54 05:49:04  -327.362568c -6.96  -5.88c
Writing to output.gpw (mode='')

iter:  55 05:49:56  -327.362568c -7.05  -5.91c
iter:  56 05:50:48  -327.362568c -7.10  -5.92c
iter:  57 05:51:39  -327.362568c -7.13  -5.93c
iter:  58 05:52:30  -327.362568c -7.21  -5.96c
iter:  59 05:53:21  -327.362568c -7.15  -6.01c
Writing to output.gpw (mode='')

iter:  60 05:54:14  -327.362568c -7.30  -6.16c
iter:  61 05:55:05  -327.362568c -7.38  -6.15c
iter:  62 05:55:56  -327.362568c -7.29  -6.07c
iter:  63 05:56:47  -327.362568c -7.34  -6.08c
iter:  64 05:57:38  -327.362568c -7.41c -6.00c

Converged after 64 iterations.

Dipole moment: (-2.182933, -3.749625, 0.024648) |e|*Ang

Energy contributions relative to reference atoms: (reference = -81178.542429)

Kinetic:       +127.190238
Potential:     -112.564965
External:        +0.000000
XC:            -342.132412
Entropy (-ST):   -0.161142
Local:           +0.225141
--------------------------
Free energy:   -327.443139
Extrapolated:  -327.362568

Dipole-layer corrected work functions: 3.398880, 3.351499 eV

Showing only first 2 kpts
 Kpt  Band  Eigenvalues  Occupancy
  0    25     -3.62362    1.98619
  0    26     -3.50858    1.87020
  0    27     -3.24948    0.14975
  0    28     -3.13347    0.01578

  1    25     -3.40105    1.25300
  1    26     -3.37565    1.00459
  1    27     -3.34972    0.75063
  1    28     -3.30141    0.37220


Fermi level: -3.37519

No gap
Writing to output.gpw (mode='')


Forces in eV/Ang:
  0 Li    0.01366   -0.00000   -0.26857
  1 Li   -0.02090    0.00000   -0.26898
  2 Li    0.01012    0.00000   -0.27520
  3 Li   -0.00321   -0.00171   -0.27970
  4 Li   -0.00054    0.00552   -0.27383
  5 Li   -0.00155    0.02136   -0.27312
  6 Li   -0.00321    0.00171   -0.27970
  7 Li   -0.00054   -0.00552   -0.27383
  8 Li   -0.00155   -0.02136   -0.27312
  9 Li    0.00960   -0.00399    0.26544
 10 Li   -0.01393    0.00403    0.24493
 11 Li   -0.00140    0.00659    0.29610
 12 Li    0.00960    0.00399    0.26544
 13 Li   -0.01393   -0.00403    0.24493
 14 Li   -0.00140   -0.00659    0.29610
 15 Li   -0.01436   -0.00000    0.24871
 16 Li    0.01747   -0.00000    0.26961
 17 Li    0.00407   -0.00000    0.23301
 18 Li   -0.00615   -0.00000    0.05133
 19 Li   -0.02001   -0.00000   -0.00205
 20 Li    0.02216   -0.00000   -0.13096
 21 Li   -0.00302    0.00251    0.03878
 22 Li    0.01756   -0.01998    0.05608
 23 Li   -0.00678   -0.01184    0.05327
 24 Li   -0.00302   -0.00250    0.03878
 25 Li    0.01756    0.01998    0.05609
 26 Li   -0.00678    0.01184    0.05328
 27 Li    0.08001   -0.02767   -0.02629
 28 Li   -0.01015   -0.00583   -0.03317
 29 Li   -0.03423    0.05369    0.05452
 30 Li    0.08001    0.02768   -0.02629
 31 Li   -0.01016    0.00583   -0.03317
 32 Li   -0.03423   -0.05367    0.05451
 33 Li   -0.01935   -0.00000   -0.01785
 34 Li    0.00801    0.00000   -0.01458
 35 Li    0.00641    0.00000   -0.02457
 36 Br    2.55401    0.00017    8.95272
 37 H     0.10888   -0.00000   -0.02967
 38 N    -0.56431   -0.00019   -4.22813
 39 N    -2.08563   -0.00020   -4.77513

System changes: positions 

Initializing position-dependent things.

Density initialized from wave functions
       .-----------------------.  
      /|                       |  
     / |                       |  
    /  |                       |  
   /   |                       |  
  /    |                       |  
 *     |                       |  
 |     |                       |  
 |     |                       |  
 |     |                       |  
 |     |                       |  
 |     |                       |  
 |     |                       |  
 |     |                       |  
 |     Li      Li H   Br       |  
 |     |                       |  
 |     |     Li      Li      Li|  
 |     |  Li      LN  N   Li   |  
 | Li  |   Li      Li          |  
 |     |Li      Li      Li     |  
 |     |         Li            |  
 |   LLi     LLi     LLi       |  
 |     |  Li      Li      Li   |  
 | Li  |   Li      Li          |  
 |     |Li      Li      Li     |  
 Li    | Li      Li            |  
 |    Li      Li      Li       |  
 |     |                       |  
 |     |                       |  
 |     |                       |  
 |     |                       |  
 |     |                       |  
 |     |                       |  
 |     .-----------------------.  
 |    /                       /   
 |   /                       /    
 |  /                       /     
 | /                       /      
 |/                       /       
 *-----------------------*        

Positions:
   0 Li     1.617037    1.617037   10.000000    ( 0.0000,  0.0000,  0.0000)
   1 Li     4.851111    1.617037   10.000000    ( 0.0000,  0.0000,  0.0000)
   2 Li     8.085185    1.617037   10.000000    ( 0.0000,  0.0000,  0.0000)
   3 Li     1.617037    4.851111   10.000000    ( 0.0000,  0.0000,  0.0000)
   4 Li     4.851111    4.851111   10.000000    ( 0.0000,  0.0000,  0.0000)
   5 Li     8.085185    4.851111   10.000000    ( 0.0000,  0.0000,  0.0000)
   6 Li     1.617037    8.085185   10.000000    ( 0.0000,  0.0000,  0.0000)
   7 Li     4.851111    8.085185   10.000000    ( 0.0000,  0.0000,  0.0000)
   8 Li     8.085185    8.085185   10.000000    ( 0.0000,  0.0000,  0.0000)
   9 Li     0.000000    0.000000   11.617037    ( 0.0000,  0.0000,  0.0000)
  10 Li     3.234074    0.000000   11.617037    ( 0.0000,  0.0000,  0.0000)
  11 Li     6.468148    0.000000   11.617037    ( 0.0000,  0.0000,  0.0000)
  12 Li     0.000000    3.234074   11.617037    ( 0.0000,  0.0000,  0.0000)
  13 Li     3.234074    3.234074   11.617037    ( 0.0000,  0.0000,  0.0000)
  14 Li     6.468148    3.234074   11.617037    ( 0.0000,  0.0000,  0.0000)
  15 Li     0.000000    6.468148   11.617037    ( 0.0000,  0.0000,  0.0000)
  16 Li     3.234074    6.468148   11.617037    ( 0.0000,  0.0000,  0.0000)
  17 Li     6.468148    6.468148   11.617037    ( 0.0000,  0.0000,  0.0000)
  18 Li     1.616986    1.617038   13.470154    ( 0.0000,  0.0000,  0.0000)
  19 Li     4.850952    1.617038   13.469724    ( 0.0000,  0.0000,  0.0000)
  20 Li     8.085363    1.617038   13.468671    ( 0.0000,  0.0000,  0.0000)
  21 Li     1.617014    4.851133   13.470045    ( 0.0000,  0.0000,  0.0000)
  22 Li     4.851251    4.850949   13.470190    ( 0.0000,  0.0000,  0.0000)
  23 Li     8.085128    4.851009   13.470175    ( 0.0000,  0.0000,  0.0000)
  24 Li     1.617013    8.085162   13.470044    ( 0.0000,  0.0000,  0.0000)
  25 Li     4.851252    8.085346   13.470189    ( 0.0000,  0.0000,  0.0000)
  26 Li     8.085128    8.085286   13.470173    ( 0.0000,  0.0000,  0.0000)
  27 Li     0.000679   -0.000253   15.445672    ( 0.0000,  0.0000,  0.0000)
  28 Li     3.233988   -0.000042   15.445669    ( 0.0000,  0.0000,  0.0000)
  29 Li     6.467829    0.000373   15.446278    ( 0.0000,  0.0000,  0.0000)
  30 Li     0.000679    3.234327   15.445671    ( 0.0000,  0.0000,  0.0000)
  31 Li     3.233991    3.234119   15.445668    ( 0.0000,  0.0000,  0.0000)
  32 Li     6.467826    3.233703   15.446277    ( 0.0000,  0.0000,  0.0000)
  33 Li    -0.000164    6.468148   15.445798    ( 0.0000,  0.0000,  0.0000)
  34 Li     3.234144    6.468146   15.445821    ( 0.0000,  0.0000,  0.0000)
  35 Li     6.468203    6.468146   15.445744    ( 0.0000,  0.0000,  0.0000)
  36 Br     8.107642    1.617038   19.522710    ( 0.0000,  0.0000,  0.0000)
  37 H      6.663635    1.617037   19.445753    ( 0.0000,  0.0000,  0.0000)
  38 N      8.088647    1.616999   17.409963    ( 0.0000,  0.0000,  0.0000)
  39 N      6.961877    1.616999   17.405037    ( 0.0000,  0.0000,  0.0000)

Unit cell:
           periodic     x           y           z      points  spacing
  1. axis:    yes    9.702222    0.000000    0.000000    60     0.1617
  2. axis:    yes    0.000000    9.702222    0.000000    60     0.1617
  3. axis:    no     0.000000    0.000000   26.851111   168     0.1598

  Lengths:   9.702222   9.702222  26.851111
  Angles:   90.000000  90.000000  90.000000

Effective grid spacing dv^(1/3) = 0.1611

     iter     time        total  log10-change:
                         energy  eigst   dens
iter:   1 05:58:51  -327.966075  -1.17
iter:   2 05:59:43  -327.915055  -1.10  -1.66
iter:   3 06:00:34  -327.899303  -2.10  -1.80
iter:   4 06:01:25  -327.890070c -1.37  -2.18
Writing to output.gpw (mode='')

iter:   5 06:02:17  -327.885420c -2.39  -2.04
iter:   6 06:03:08  -327.891039c -1.86  -2.20
iter:   7 06:03:59  -327.884839c -2.42  -2.22
iter:   8 06:04:50  -327.883086c -2.67  -2.53
iter:   9 06:05:42  -327.882929c -3.03  -2.70
Writing to output.gpw (mode='')

iter:  10 06:06:34  -327.882439c -2.91  -2.78
iter:  11 06:07:25  -327.882283c -3.04  -2.99
iter:  12 06:08:16  -327.882592c -3.60  -3.03
iter:  13 06:09:07  -327.882510c -3.78  -3.10
iter:  14 06:09:58  -327.882299c -3.74  -3.25
Writing to output.gpw (mode='')

iter:  15 06:10:53  -327.882379c -4.24  -3.53
iter:  16 06:11:44  -327.882333c -4.45  -3.56
iter:  17 06:12:35  -327.882371c -4.70  -3.65
iter:  18 06:13:26  -327.882371c -4.74  -3.74
iter:  19 06:14:17  -327.882384c -4.99  -3.83
Writing to output.gpw (mode='')

iter:  20 06:15:10  -327.882369c -4.94  -3.86
iter:  21 06:16:01  -327.882392c -5.21  -4.06c
iter:  22 06:16:52  -327.882400c -5.23  -4.18c
iter:  23 06:17:44  -327.882401c -5.25  -4.23c
iter:  24 06:18:35  -327.882398c -5.48  -4.35c
Writing to output.gpw (mode='')

iter:  25 06:19:28  -327.882401c -5.73  -4.54c
iter:  26 06:20:19  -327.882403c -5.70  -4.56c
iter:  27 06:21:10  -327.882405c -5.64  -4.59c
iter:  28 06:22:01  -327.882406c -5.88  -4.63c
iter:  29 06:22:52  -327.882409c -6.12  -4.72c
Writing to output.gpw (mode='')

iter:  30 06:23:45  -327.882407c -6.30  -4.88c
iter:  31 06:24:36  -327.882408c -6.10  -4.89c
iter:  32 06:25:27  -327.882407c -6.15  -4.96c
iter:  33 06:26:18  -327.882408c -6.34  -5.11c
iter:  34 06:27:10  -327.882410c -6.37  -5.25c
Writing to output.gpw (mode='')

iter:  35 06:28:02  -327.882409c -6.54  -5.38c
iter:  36 06:28:53  -327.882410c -6.62  -5.37c
iter:  37 06:29:44  -327.882410c -6.71  -5.42c
iter:  38 06:30:35  -327.882411c -6.84  -5.43c
iter:  39 06:31:26  -327.882410c -6.91  -5.58c
Writing to output.gpw (mode='')

iter:  40 06:32:21  -327.882410c -6.89  -5.69c
iter:  41 06:33:13  -327.882410c -7.07  -5.70c
iter:  42 06:34:04  -327.882411c -7.19  -5.61c
iter:  43 06:34:55  -327.882410c -7.20  -5.67c
iter:  44 06:35:46  -327.882410c -7.25  -5.47c
Writing to output.gpw (mode='')

iter:  45 06:36:38  -327.882410c -7.37  -5.53c
iter:  46 06:37:29  -327.882410c -7.35  -5.47c
iter:  47 06:38:21  -327.882411c -7.45c -5.48c

Converged after 47 iterations.

Dipole moment: (-2.203689, -3.740275, 0.006007) |e|*Ang

Energy contributions relative to reference atoms: (reference = -81178.542429)

Kinetic:       +125.050283
Potential:     -111.204125
External:        +0.000000
XC:            -341.883004
Entropy (-ST):   -0.158831
Local:           +0.233851
--------------------------
Free energy:   -327.961826
Extrapolated:  -327.882411

Dipole-layer corrected work functions: 3.399232, 3.387686 eV

Showing only first 2 kpts
 Kpt  Band  Eigenvalues  Occupancy
  0    25     -3.64219    1.98627
  0    26     -3.52712    1.87087
  0    27     -3.26430    0.14045
  0    28     -3.15033    0.01534

  1    25     -3.42314    1.28837
  1    26     -3.39387    1.00408
  1    27     -3.36755    0.74658
  1    28     -3.31656    0.35364


Fermi level: -3.39346

No gap
Writing to output.gpw (mode='')


Forces in eV/Ang:
  0 Li    0.01419   -0.00000   -0.26845
  1 Li   -0.02131    0.00000   -0.26851
  2 Li    0.00997    0.00000   -0.27515
  3 Li   -0.00342   -0.00167   -0.27982
  4 Li   -0.00074    0.00534   -0.27376
  5 Li   -0.00168    0.02186   -0.27314
  6 Li   -0.00342    0.00167   -0.27982
  7 Li   -0.00074   -0.00534   -0.27376
  8 Li   -0.00168   -0.02186   -0.27314
  9 Li    0.00948   -0.00407    0.26536
 10 Li   -0.01388    0.00411    0.24496
 11 Li   -0.00163    0.00648    0.29603
 12 Li    0.00948    0.00407    0.26536
 13 Li   -0.01388   -0.00411    0.24496
 14 Li   -0.00163   -0.00647    0.29603
 15 Li   -0.01385   -0.00000    0.24921
 16 Li    0.01782   -0.00000    0.26842
 17 Li    0.00424   -0.00000    0.23293
 18 Li   -0.00669   -0.00000    0.05033
 19 Li   -0.01781   -0.00000    0.00185
 20 Li    0.02212   -0.00000   -0.13153
 21 Li   -0.00251    0.00239    0.03867
 22 Li    0.01768   -0.01952    0.05591
 23 Li   -0.00665   -0.01246    0.05360
 24 Li   -0.00251   -0.00239    0.03867
 25 Li    0.01768    0.01952    0.05592
 26 Li   -0.00665    0.01246    0.05360
 27 Li    0.08212   -0.02843   -0.02745
 28 Li   -0.00919   -0.00467   -0.03381
 29 Li   -0.04057    0.03843    0.03544
 30 Li    0.08212    0.02843   -0.02746
 31 Li   -0.00919    0.00467   -0.03381
 32 Li   -0.04057   -0.03842    0.03543
 33 Li   -0.01992   -0.00000   -0.01737
 34 Li    0.00743    0.00000   -0.01482
 35 Li    0.00702    0.00000   -0.02454
 36 Br    1.92241    0.00015    7.77240
 37 H     0.33011   -0.00000   -0.00273
 38 N    -0.12005   -0.00020   -3.81109
 39 N    -2.16700   -0.00011   -4.03912

System changes: positions 

Initializing position-dependent things.

Density initialized from wave functions
       .-----------------------.  
      /|                       |  
     / |                       |  
    /  |                       |  
   /   |                       |  
  /    |                       |  
 *     |                       |  
 |     |                       |  
 |     |                       |  
 |     |                       |  
 |     |                       |  
 |     |                       |  
 |     |                       |  
 |     |                       |  
 |     Li      Li H   Br       |  
 |     |                       |  
 |     |     Li      Li      Li|  
 |     |  Li      LN  N   Li   |  
 | Li  |   Li      Li          |  
 |     |Li      Li      Li     |  
 |     |         Li            |  
 |   LLi     LLi     LLi       |  
 |     |  Li      Li      Li   |  
 | Li  |   Li      Li          |  
 |     |Li      Li      Li     |  
 Li    | Li      Li            |  
 |    Li      Li      Li       |  
 |     |                       |  
 |     |                       |  
 |     |                       |  
 |     |                       |  
 |     |                       |  
 |     |                       |  
 |     .-----------------------.  
 |    /                       /   
 |   /                       /    
 |  /                       /     
 | /                       /      
 |/                       /       
 *-----------------------*        

Positions:
   0 Li     1.617037    1.617037   10.000000    ( 0.0000,  0.0000,  0.0000)
   1 Li     4.851111    1.617037   10.000000    ( 0.0000,  0.0000,  0.0000)
   2 Li     8.085185    1.617037   10.000000    ( 0.0000,  0.0000,  0.0000)
   3 Li     1.617037    4.851111   10.000000    ( 0.0000,  0.0000,  0.0000)
   4 Li     4.851111    4.851111   10.000000    ( 0.0000,  0.0000,  0.0000)
   5 Li     8.085185    4.851111   10.000000    ( 0.0000,  0.0000,  0.0000)
   6 Li     1.617037    8.085185   10.000000    ( 0.0000,  0.0000,  0.0000)
   7 Li     4.851111    8.085185   10.000000    ( 0.0000,  0.0000,  0.0000)
   8 Li     8.085185    8.085185   10.000000    ( 0.0000,  0.0000,  0.0000)
   9 Li     0.000000    0.000000   11.617037    ( 0.0000,  0.0000,  0.0000)
  10 Li     3.234074    0.000000   11.617037    ( 0.0000,  0.0000,  0.0000)
  11 Li     6.468148    0.000000   11.617037    ( 0.0000,  0.0000,  0.0000)
  12 Li     0.000000    3.234074   11.617037    ( 0.0000,  0.0000,  0.0000)
  13 Li     3.234074    3.234074   11.617037    ( 0.0000,  0.0000,  0.0000)
  14 Li     6.468148    3.234074   11.617037    ( 0.0000,  0.0000,  0.0000)
  15 Li     0.000000    6.468148   11.617037    ( 0.0000,  0.0000,  0.0000)
  16 Li     3.234074    6.468148   11.617037    ( 0.0000,  0.0000,  0.0000)
  17 Li     6.468148    6.468148   11.617037    ( 0.0000,  0.0000,  0.0000)
  18 Li     1.616937    1.617038   13.470489    ( 0.0000,  0.0000,  0.0000)
  19 Li     4.850842    1.617038   13.469758    ( 0.0000,  0.0000,  0.0000)
  20 Li     8.085520    1.617038   13.467730    ( 0.0000,  0.0000,  0.0000)
  21 Li     1.617001    4.851147   13.470316    ( 0.0000,  0.0000,  0.0000)
  22 Li     4.851380    4.850815   13.470578    ( 0.0000,  0.0000,  0.0000)
  23 Li     8.085083    4.850923   13.470541    ( 0.0000,  0.0000,  0.0000)
  24 Li     1.617000    8.085148   13.470315    ( 0.0000,  0.0000,  0.0000)
  25 Li     4.851380    8.085480   13.470577    ( 0.0000,  0.0000,  0.0000)
  26 Li     8.085083    8.085372   13.470539    ( 0.0000,  0.0000,  0.0000)
  27 Li     0.001242   -0.000426   15.445533    ( 0.0000,  0.0000,  0.0000)
  28 Li     3.233936   -0.000071   15.445425    ( 0.0000,  0.0000,  0.0000)
  29 Li     6.467536    0.000585   15.446484    ( 0.0000,  0.0000,  0.0000)
  30 Li     0.001242    3.234500   15.445532    ( 0.0000,  0.0000,  0.0000)
  31 Li     3.233938    3.234148   15.445425    ( 0.0000,  0.0000,  0.0000)
  32 Li     6.467534    3.233492   15.446483    ( 0.0000,  0.0000,  0.0000)
  33 Li    -0.000301    6.468148   15.445675    ( 0.0000,  0.0000,  0.0000)
  34 Li     3.234188    6.468146   15.445713    ( 0.0000,  0.0000,  0.0000)
  35 Li     6.468251    6.468146   15.445565    ( 0.0000,  0.0000,  0.0000)
  36 Br     8.113577    1.617039   19.562268    ( 0.0000,  0.0000,  0.0000)
  37 H      6.668609    1.617037   19.445906    ( 0.0000,  0.0000,  0.0000)
  38 N      8.081839    1.616997   17.388715    ( 0.0000,  0.0000,  0.0000)
  39 N      6.957348    1.616998   17.385574    ( 0.0000,  0.0000,  0.0000)

Unit cell:
           periodic     x           y           z      points  spacing
  1. axis:    yes    9.702222    0.000000    0.000000    60     0.1617
  2. axis:    yes    0.000000    9.702222    0.000000    60     0.1617
  3. axis:    no     0.000000    0.000000   26.851111   168     0.1598

  Lengths:   9.702222   9.702222  26.851111
  Angles:   90.000000  90.000000  90.000000

Effective grid spacing dv^(1/3) = 0.1611

     iter     time        total  log10-change:
                         energy  eigst   dens
iter:   1 06:39:35  -328.388190  -1.22
iter:   2 06:40:26  -328.355926  -1.28  -1.73
iter:   3 06:41:17  -328.346580  -2.39  -1.90
iter:   4 06:42:09  -328.342833c -1.63  -2.30
Writing to output.gpw (mode='')

iter:   5 06:43:00  -328.340599c -2.61  -2.15
iter:   6 06:43:52  -328.342416c -2.09  -2.29
iter:   7 06:44:43  -328.339962c -2.70  -2.37
iter:   8 06:45:34  -328.339205c -3.10  -2.70
iter:   9 06:46:25  -328.339326c -3.49  -2.87
Writing to output.gpw (mode='')

iter:  10 06:47:18  -328.338935c -3.19  -2.88
iter:  11 06:48:09  -328.338761c -3.44  -3.16
iter:  12 06:49:00  -328.338861c -3.95  -3.21
iter:  13 06:49:51  -328.338936c -3.84  -3.37
iter:  14 06:50:42  -328.338892c -4.41  -3.58
Writing to output.gpw (mode='')

iter:  15 06:51:34  -328.338931c -4.61  -3.62
iter:  16 06:52:25  -328.338902c -4.52  -3.64
iter:  17 06:53:16  -328.338915c -4.99  -3.84
iter:  18 06:54:07  -328.338917c -5.18  -3.94
iter:  19 06:54:58  -328.338906c -4.96  -3.98
Writing to output.gpw (mode='')

iter:  20 06:55:51  -328.338912c -5.28  -4.17c
iter:  21 06:56:43  -328.338916c -5.46  -4.17c
iter:  22 06:57:34  -328.338920c -5.52  -4.25c
iter:  23 06:58:25  -328.338922c -5.55  -4.37c
iter:  24 06:59:16  -328.338928c -5.71  -4.45c
Writing to output.gpw (mode='')

iter:  25 07:00:08  -328.338926c -5.87  -4.53c
iter:  26 07:01:00  -328.338924c -6.07  -4.60c
iter:  27 07:01:51  -328.338925c -6.14  -4.65c
iter:  28 07:02:42  -328.338925c -6.23  -4.76c
iter:  29 07:03:33  -328.338928c -6.24  -4.78c
Writing to output.gpw (mode='')

iter:  30 07:04:27  -328.338926c -6.43  -4.85c
iter:  31 07:05:18  -328.338928c -6.28  -5.03c
iter:  32 07:06:09  -328.338929c -6.72  -5.16c
iter:  33 07:07:00  -328.338928c -6.91  -5.21c
iter:  34 07:07:52  -328.338929c -6.80  -5.32c
Writing to output.gpw (mode='')

iter:  35 07:08:45  -328.338929c -7.05  -5.46c
iter:  36 07:09:36  -328.338929c -7.06  -5.49c
iter:  37 07:10:28  -328.338929c -7.15  -5.54c
iter:  38 07:11:19  -328.338929c -7.17  -5.69c
iter:  39 07:12:10  -328.338929c -7.26  -5.80c
Writing to output.gpw (mode='')

iter:  40 07:13:02  -328.338930c -7.42c -5.82c

Converged after 40 iterations.

Dipole moment: (-2.246531, -3.716671, -0.015325) |e|*Ang

Energy contributions relative to reference atoms: (reference = -81178.542429)

Kinetic:       +122.835454
Potential:     -109.723630
External:        +0.000000
XC:            -341.613539
Entropy (-ST):   -0.157538
Local:           +0.241555
--------------------------
Free energy:   -328.417699
Extrapolated:  -328.338930

Dipole-layer corrected work functions: 3.400001, 3.429459 eV

Showing only first 2 kpts
 Kpt  Band  Eigenvalues  Occupancy
  0    25     -3.66351    1.98629
  0    26     -3.54761    1.86896
  0    27     -3.28440    0.13743
  0    28     -3.17164    0.01535

  1    25     -3.44703    1.31220
  1    26     -3.41490    1.00166
  1    27     -3.38860    0.74450
  1    28     -3.33446    0.33446


Fermi level: -3.41473

No gap

Forces in eV/Ang:
  0 Li    0.01463   -0.00000   -0.26824
  1 Li   -0.02165    0.00000   -0.26833
  2 Li    0.00989    0.00000   -0.27518
  3 Li   -0.00361   -0.00147   -0.28007
  4 Li   -0.00115    0.00524   -0.27378
  5 Li   -0.00171    0.02224   -0.27322
  6 Li   -0.00361    0.00147   -0.28007
  7 Li   -0.00115   -0.00524   -0.27378
  8 Li   -0.00171   -0.02224   -0.27322
  9 Li    0.00945   -0.00423    0.26534
 10 Li   -0.01406    0.00415    0.24491
 11 Li   -0.00181    0.00651    0.29664
 12 Li    0.00945    0.00423    0.26534
 13 Li   -0.01406   -0.00415    0.24491
 14 Li   -0.00181   -0.00650    0.29664
 15 Li   -0.01351   -0.00000    0.24956
 16 Li    0.01837   -0.00000    0.26757
 17 Li    0.00452   -0.00000    0.23290
 18 Li   -0.00689   -0.00000    0.04879
 19 Li   -0.01651   -0.00000    0.00386
 20 Li    0.02236   -0.00000   -0.13135
 21 Li   -0.00205    0.00209    0.03848
 22 Li    0.01801   -0.01904    0.05533
 23 Li   -0.00653   -0.01268    0.05306
 24 Li   -0.00205   -0.00209    0.03849
 25 Li    0.01801    0.01904    0.05534
 26 Li   -0.00654    0.01268    0.05306
 27 Li    0.08157   -0.02697   -0.02527
 28 Li   -0.00809   -0.00409   -0.03429
 29 Li   -0.04283    0.02976    0.02615
 30 Li    0.08157    0.02698   -0.02528
 31 Li   -0.00809    0.00409   -0.03429
 32 Li   -0.04283   -0.02975    0.02614
 33 Li   -0.01994   -0.00000   -0.01709
 34 Li    0.00670    0.00000   -0.01493
 35 Li    0.00712    0.00000   -0.02469
 36 Br    1.48724    0.00013    6.65397
 37 H     0.39182   -0.00000    0.02228
 38 N     0.03578    0.00027   -3.36598
 39 N    -1.98871    0.00028   -3.36609

System changes: positions 

Initializing position-dependent things.

Density initialized from wave functions
       .-----------------------.  
      /|                       |  
     / |                       |  
    /  |                       |  
   /   |                       |  
  /    |                       |  
 *     |                       |  
 |     |                       |  
 |     |                       |  
 |     |                       |  
 |     |                       |  
 |     |                       |  
 |     |                       |  
 |     |                       |  
 |     Li      Li  H  Br       |  
 |     |                       |  
 |     |     Li      Li      Li|  
 |     |  Li      LN  N   Li   |  
 | Li  |   Li      Li          |  
 |     |Li      Li      Li     |  
 |     |         Li            |  
 |   LLi     LLi     LLi       |  
 |     |  Li      Li      Li   |  
 | Li  |   Li      Li          |  
 |     |Li      Li      Li     |  
 Li    | Li      Li            |  
 |    Li      Li      Li       |  
 |     |                       |  
 |     |                       |  
 |     |                       |  
 |     |                       |  
 |     |                       |  
 |     |                       |  
 |     .-----------------------.  
 |    /                       /   
 |   /                       /    
 |  /                       /     
 | /                       /      
 |/                       /       
 *-----------------------*        

Positions:
   0 Li     1.617037    1.617037   10.000000    ( 0.0000,  0.0000,  0.0000)
   1 Li     4.851111    1.617037   10.000000    ( 0.0000,  0.0000,  0.0000)
   2 Li     8.085185    1.617037   10.000000    ( 0.0000,  0.0000,  0.0000)
   3 Li     1.617037    4.851111   10.000000    ( 0.0000,  0.0000,  0.0000)
   4 Li     4.851111    4.851111   10.000000    ( 0.0000,  0.0000,  0.0000)
   5 Li     8.085185    4.851111   10.000000    ( 0.0000,  0.0000,  0.0000)
   6 Li     1.617037    8.085185   10.000000    ( 0.0000,  0.0000,  0.0000)
   7 Li     4.851111    8.085185   10.000000    ( 0.0000,  0.0000,  0.0000)
   8 Li     8.085185    8.085185   10.000000    ( 0.0000,  0.0000,  0.0000)
   9 Li     0.000000    0.000000   11.617037    ( 0.0000,  0.0000,  0.0000)
  10 Li     3.234074    0.000000   11.617037    ( 0.0000,  0.0000,  0.0000)
  11 Li     6.468148    0.000000   11.617037    ( 0.0000,  0.0000,  0.0000)
  12 Li     0.000000    3.234074   11.617037    ( 0.0000,  0.0000,  0.0000)
  13 Li     3.234074    3.234074   11.617037    ( 0.0000,  0.0000,  0.0000)
  14 Li     6.468148    3.234074   11.617037    ( 0.0000,  0.0000,  0.0000)
  15 Li     0.000000    6.468148   11.617037    ( 0.0000,  0.0000,  0.0000)
  16 Li     3.234074    6.468148   11.617037    ( 0.0000,  0.0000,  0.0000)
  17 Li     6.468148    6.468148   11.617037    ( 0.0000,  0.0000,  0.0000)
  18 Li     1.616869    1.617038   13.470920    ( 0.0000,  0.0000,  0.0000)
  19 Li     4.850709    1.617038   13.469826    ( 0.0000,  0.0000,  0.0000)
  20 Li     8.085735    1.617038   13.466473    ( 0.0000,  0.0000,  0.0000)
  21 Li     1.616989    4.851161   13.470677    ( 0.0000,  0.0000,  0.0000)
  22 Li     4.851557    4.850642   13.471091    ( 0.0000,  0.0000,  0.0000)
  23 Li     8.085023    4.850804   13.471025    ( 0.0000,  0.0000,  0.0000)
  24 Li     1.616989    8.085134   13.470676    ( 0.0000,  0.0000,  0.0000)
  25 Li     4.851557    8.085653   13.471091    ( 0.0000,  0.0000,  0.0000)
  26 Li     8.085024    8.085491   13.471023    ( 0.0000,  0.0000,  0.0000)
  27 Li     0.001989   -0.000639   15.445372    ( 0.0000,  0.0000,  0.0000)
  28 Li     3.233879   -0.000103   15.445092    ( 0.0000,  0.0000,  0.0000)
  29 Li     6.467117    0.000763   15.446647    ( 0.0000,  0.0000,  0.0000)
  30 Li     0.001989    3.234713   15.445371    ( 0.0000,  0.0000,  0.0000)
  31 Li     3.233882    3.234179   15.445092    ( 0.0000,  0.0000,  0.0000)
  32 Li     6.467115    3.233314   15.446646    ( 0.0000,  0.0000,  0.0000)
  33 Li    -0.000486    6.468148   15.445513    ( 0.0000,  0.0000,  0.0000)
  34 Li     3.234239    6.468146   15.445567    ( 0.0000,  0.0000,  0.0000)
  35 Li     6.468317    6.468146   15.445322    ( 0.0000,  0.0000,  0.0000)
  36 Br     8.117022    1.617040   19.602119    ( 0.0000,  0.0000,  0.0000)
  37 H      6.675382    1.617037   19.446445    ( 0.0000,  0.0000,  0.0000)
  38 N      8.075923    1.617002   17.365641    ( 0.0000,  0.0000,  0.0000)
  39 N      6.951936    1.617004   17.367418    ( 0.0000,  0.0000,  0.0000)

Unit cell:
           periodic     x           y           z      points  spacing
  1. axis:    yes    9.702222    0.000000    0.000000    60     0.1617
  2. axis:    yes    0.000000    9.702222    0.000000    60     0.1617
  3. axis:    no     0.000000    0.000000   26.851111   168     0.1598

  Lengths:   9.702222   9.702222  26.851111
  Angles:   90.000000  90.000000  90.000000

Effective grid spacing dv^(1/3) = 0.1611

     iter     time        total  log10-change:
                         energy  eigst   dens
iter:   1 07:14:15  -328.766259  -1.23
iter:   2 07:15:06  -328.741339  -1.40  -1.78
iter:   3 07:15:57  -328.734096  -2.51  -1.96
iter:   4 07:16:48  -328.732152c -1.78  -2.38
Writing to output.gpw (mode='')

iter:   5 07:17:41  -328.730645c -2.73  -2.22
iter:   6 07:18:32  -328.732129c -2.19  -2.35
iter:   7 07:19:24  -328.730101c -2.85  -2.45
iter:   8 07:20:15  -328.729643c -3.30  -2.85
iter:   9 07:21:06  -328.729840c -3.64  -2.98
Writing to output.gpw (mode='')

iter:  10 07:21:58  -328.729628c -3.32  -2.96
iter:  11 07:22:49  -328.729489c -3.51  -3.26
iter:  12 07:23:41  -328.729601c -4.11  -3.27
iter:  13 07:24:32  -328.729646c -4.05  -3.36
iter:  14 07:25:23  -328.729561c -4.29  -3.57
Writing to output.gpw (mode='')

iter:  15 07:26:17  -328.729610c -4.68  -3.69
iter:  16 07:27:08  -328.729587c -4.67  -3.71
iter:  17 07:27:59  -328.729598c -5.03  -3.89
iter:  18 07:28:50  -328.729614c -5.16  -3.95
iter:  19 07:29:41  -328.729593c -5.07  -4.00
Writing to output.gpw (mode='')

iter:  20 07:30:34  -328.729600c -5.56  -4.25c
iter:  21 07:31:26  -328.729607c -5.32  -4.26c
iter:  22 07:32:17  -328.729599c -5.63  -4.35c
iter:  23 07:33:08  -328.729608c -5.63  -4.45c
iter:  24 07:33:59  -328.729609c -5.98  -4.69c
Writing to output.gpw (mode='')

iter:  25 07:34:52  -328.729607c -6.09  -4.76c
iter:  26 07:35:43  -328.729608c -5.97  -4.83c
iter:  27 07:36:34  -328.729608c -6.07  -4.87c
iter:  28 07:37:25  -328.729607c -6.46  -4.86c
iter:  29 07:38:17  -328.729608c -6.55  -4.71c
Writing to output.gpw (mode='')

iter:  30 07:39:11  -328.729608c -6.63  -4.87c
iter:  31 07:40:02  -328.729607c -6.32  -4.86c
iter:  32 07:40:53  -328.729607c -6.70  -4.71c
iter:  33 07:41:44  -328.729608c -6.84  -4.62c
iter:  34 07:42:45  -328.729609c -6.92  -4.84c
Writing to output.gpw (mode='')

iter:  35 07:45:17  -328.729610c -6.90  -4.90c
iter:  36 07:47:46  -328.729610c -7.19  -5.24c
iter:  37 07:50:16  -328.729611c -7.01  -5.25c
iter:  38 07:52:45  -328.729611c -7.11  -5.37c
iter:  39 07:55:24  -328.729611c -7.10  -5.42c
