
  ___ ___ ___ _ _ _  
 |   |   |_  | | | | 
 | | | | | . | | | | 
 |__ |  _|___|_____|  22.8.0
 |___|_|             

User:   vazumah@c06.hercules
Date:   Tue Mar 14 07:48:35 2023
Arch:   x86_64
Pid:    20467
CWD:    /home/vazumah/Python_projects/LiNRR/Li_adsorb_studies/proton_donors/N2_with_proton_donor/Li_BCC_100/adsorbates/ethanediol_x/ontop/9.702_9.702/N2_z
Python: 3.10.8
gpaw:   /home/vazumah/.conda/envs/GPAW/lib/python3.10/site-packages/gpaw
_gpaw:  /home/vazumah/.conda/envs/GPAW/lib/python3.10/site-packages/
        _gpaw.cpython-310-x86_64-linux-gnu.so
ase:    /home/vazumah/.conda/envs/GPAW/lib/python3.10/site-packages/ase (version 3.22.1)
numpy:  /home/vazumah/.conda/envs/GPAW/lib/python3.10/site-packages/numpy (version 1.24.1)
scipy:  /home/vazumah/.conda/envs/GPAW/lib/python3.10/site-packages/scipy (version 1.10.0)
libxc:  5.2.3
units:  Angstrom and eV
cores: 24
OpenMP: True
OMP_NUM_THREADS: 1

Reading from output.gpw
Reading input parameters:
  h: 0.16
  kpts: {size: [4, 4, 1]}
  occupations: {name: fermi-dirac,
                width: 0.05}
  poissonsolver: {dipolelayer: xy}
  xc: BEEF-vdW

Initialize ...

species:
  Li:
    name: Lithium
    id: 830b4218f175192f93f959cfc0aad614
    Z: 3.0
    valence: 1
    core: 2
    charge: 0.0
    file: /home/vazumah/.conda/envs/GPAW/share/gpaw/Li.PBE.gz
    compensation charges: {type: gauss,
                           rc: 0.33,
                           lmax: 2}
    cutoffs: {filter: 1.91,
              core: 2.55}
    valence states:
      #              energy  rcut
      - 2s(1.00)    -2.874   1.058
      - 2p(0.00)    -1.090   1.058
      -  s          24.337   1.058
  
    # Using partial waves for Li as LCAO basis

  O:
    name: Oxygen
    id: 32ecd46bf208036f09c70b0ec9a88b78
    Z: 8.0
    valence: 6
    core: 2
    charge: 0.0
    file: /home/vazumah/.conda/envs/GPAW/share/gpaw/O.PBE.gz
    compensation charges: {type: gauss,
                           rc: 0.21,
                           lmax: 2}
    cutoffs: {filter: 1.17,
              core: 0.83}
    valence states:
      #              energy  rcut
      - 2s(2.00)   -23.961   0.688
      - 2p(4.00)    -9.029   0.598
      -  s           3.251   0.688
      -  p          18.182   0.598
      -  d           0.000   0.619
  
    # Using partial waves for O as LCAO basis

  C:
    name: Carbon
    id: 4aa54d4b901d75f77cc0ea3eec22967b
    Z: 6.0
    valence: 4
    core: 2
    charge: 0.0
    file: /home/vazumah/.conda/envs/GPAW/share/gpaw/C.PBE.gz
    compensation charges: {type: gauss,
                           rc: 0.20,
                           lmax: 2}
    cutoffs: {filter: 1.14,
              core: 1.14}
    valence states:
      #              energy  rcut
      - 2s(2.00)   -13.751   0.635
      - 2p(2.00)    -5.284   0.635
      -  s          13.461   0.635
      -  p          21.927   0.635
      -  d           0.000   0.635
  
    # Using partial waves for C as LCAO basis

  H:
    name: Hydrogen
    id: d65de229564ff8ea4db303e23b6d1ecf
    Z: 1.0
    valence: 1
    core: 0
    charge: 0.0
    file: /home/vazumah/.conda/envs/GPAW/share/gpaw/H.PBE.gz
    compensation charges: {type: gauss,
                           rc: 0.15,
                           lmax: 2}
    cutoffs: {filter: 0.85,
              core: 0.53}
    valence states:
      #              energy  rcut
      - 1s(1.00)    -6.494   0.476
      -  s          20.717   0.476
      -  p           0.000   0.476
  
    # Using partial waves for H as LCAO basis

  N:
    name: Nitrogen
    id: f7500608b86eaa90eef8b1d9a670dc53
    Z: 7.0
    valence: 5
    core: 2
    charge: 0.0
    file: /home/vazumah/.conda/envs/GPAW/share/gpaw/N.PBE.gz
    compensation charges: {type: gauss,
                           rc: 0.18,
                           lmax: 2}
    cutoffs: {filter: 1.11,
              core: 0.96}
    valence states:
      #              energy  rcut
      - 2s(2.00)   -18.583   0.603
      - 2p(3.00)    -7.089   0.529
      -  s           8.629   0.603
      -  p          20.123   0.529
      -  d           0.000   0.577
  
    # Using partial waves for N as LCAO basis

Reference energy: -16475.706344  # eV

Spin-paired calculation

Convergence criteria:
 Maximum [total energy] change in last 3 cyles: 0.0005 eV / electron
 Maximum integral of absolute [dens]ity change: 0.0001 electrons / valence electron
 Maximum integral of absolute [eigenst]ate change: 4e-08 eV^2 / valence electron
 Maximum number of scf [iter]ations: 333
 (Square brackets indicate name in SCF output, whereas a 'c' in
 the SCF output indicates the quantity has converged.)

Symmetries present (total): 1

  ( 1  0  0)
  ( 0  1  0)
  ( 0  0  1)

16 k-points: 4 x 4 x 1 Monkhorst-Pack grid
8 k-points in the irreducible part of the Brillouin zone
       k-points in crystal coordinates                weights
   0:     0.12500000   -0.37500000    0.00000000          2/16
   1:     0.12500000   -0.12500000    0.00000000          2/16
   2:     0.12500000    0.12500000    0.00000000          2/16
   3:     0.12500000    0.37500000    0.00000000          2/16
   4:     0.37500000   -0.37500000    0.00000000          2/16
   5:     0.37500000   -0.12500000    0.00000000          2/16
   6:     0.37500000    0.12500000    0.00000000          2/16
   7:     0.37500000    0.37500000    0.00000000          2/16

Wave functions: Uniform real-space grid
  Kinetic energy operator: 6*3+1=19 point O(h^6) finite-difference Laplacian
  ScaLapack parameters: grid=1x1, blocksize=None
  Wavefunction extrapolation:
    Improved wavefunction reuse through dual PAW basis 

Occupation numbers: Fermi-Dirac:
  width: 0.0500  # eV
 

Eigensolver
   Davidson(niter=2) 

Densities:
  Coarse grid: 60*60*168 grid
  Fine grid: 120*120*336 grid
  Total Charge: 0.000000 

Density mixing:
  Method: separate
  Backend: pulay
  Linear mixing parameter: 0.05
  old densities: 5
  Damping of long wavelength oscillations: 50 

Hamiltonian:
  XC and Coulomb potentials evaluated on a 120*120*336 grid
  Using the BEEF-vdW Exchange-Correlation functional
  Interpolation: tri-quintic (5. degree polynomial)
  Poisson solver: FastPoissonSolver using
    Stencil: 6*3+1=19 point O(h^6) finite-difference Laplacian
    FFT axes: [0, 1]
    FST axes: [2]

Dipole correction along z-axis 

XC parameters: BEEF-vdW with 2 nearest neighbor stencil

Memory estimate:
  Process memory now: 264.96 MiB
  Calculator: 463.24 MiB
    Density: 122.85 MiB
      Arrays: 39.61 MiB
      Localized functions: 68.13 MiB
      Mixer: 15.11 MiB
    Hamiltonian: 31.28 MiB
      Arrays: 25.90 MiB
      XC: 0.00 MiB
      Poisson: 0.00 MiB
      vbar: 5.38 MiB
    Wavefunctions: 309.11 MiB
      Arrays psit_nG: 145.02 MiB
      Eigensolver: 160.48 MiB
      Projections: 0.07 MiB
      Projectors: 3.55 MiB

Total number of cores used: 24
Parallelization over k-points: 8
Domain decomposition: 1 x 1 x 3

Number of atoms: 48
Number of atomic orbitals: 174
Number of bands in calculation: 48
Number of valence electrons: 72
Bands to converge: occupied

... initialized

Initializing position-dependent things.

Creating initial wave functions:
  48 bands from LCAO basis set

       .-----------------------.  
      /|                       |  
     / |                       |  
    /  |                       |  
   /   |                       |  
  /    |                       |  
 *     |                       |  
 |     |                       |  
 |     |                       |  
 |     |                       |  
 |     |                  H    |  
 |     |N                      |  
 |     |N             H        |  
 |     |               O       |  
 |     |Li       H     C       |  
 |     |           C     H     |  
 |     |     Li      Li      Li|  
 |     |  Li      LO      Li   |  
 | Li  |   Li      Li          |  
 |     |Li      LiLi    Li     |  
 |     | Li                    |  
 |   LLi     LLi     LLi       |  
 |     |  Li      Li      Li   |  
 | Li  |   Li      Li          |  
 |     |Li      Li      Li     |  
 Li    | Li      Li            |  
 |    Li      Li      Li       |  
 |     |                       |  
 |     |                       |  
 |     |                       |  
 |     |                       |  
 |     |                       |  
 |     |                       |  
 |     .-----------------------.  
 |    /                       /   
 |   /                       /    
 |  /                       /     
 | /                       /      
 |/                       /       
 *-----------------------*        

Positions:
   0 Li     1.617037    1.617037   10.000000    ( 0.0000,  0.0000,  0.0000)
   1 Li     4.851111    1.617037   10.000000    ( 0.0000,  0.0000,  0.0000)
   2 Li     8.085185    1.617037   10.000000    ( 0.0000,  0.0000,  0.0000)
   3 Li     1.617037    4.851111   10.000000    ( 0.0000,  0.0000,  0.0000)
   4 Li     4.851111    4.851111   10.000000    ( 0.0000,  0.0000,  0.0000)
   5 Li     8.085185    4.851111   10.000000    ( 0.0000,  0.0000,  0.0000)
   6 Li     1.617037    8.085185   10.000000    ( 0.0000,  0.0000,  0.0000)
   7 Li     4.851111    8.085185   10.000000    ( 0.0000,  0.0000,  0.0000)
   8 Li     8.085185    8.085185   10.000000    ( 0.0000,  0.0000,  0.0000)
   9 Li     0.000000    0.000000   11.617037    ( 0.0000,  0.0000,  0.0000)
  10 Li     3.234074    0.000000   11.617037    ( 0.0000,  0.0000,  0.0000)
  11 Li     6.468148    0.000000   11.617037    ( 0.0000,  0.0000,  0.0000)
  12 Li     0.000000    3.234074   11.617037    ( 0.0000,  0.0000,  0.0000)
  13 Li     3.234074    3.234074   11.617037    ( 0.0000,  0.0000,  0.0000)
  14 Li     6.468148    3.234074   11.617037    ( 0.0000,  0.0000,  0.0000)
  15 Li     0.000000    6.468148   11.617037    ( 0.0000,  0.0000,  0.0000)
  16 Li     3.234074    6.468148   11.617037    ( 0.0000,  0.0000,  0.0000)
  17 Li     6.468148    6.468148   11.617037    ( 0.0000,  0.0000,  0.0000)
  18 Li     1.622399    1.584889   13.500670    ( 0.0000,  0.0000,  0.0000)
  19 Li     4.929599    1.595936   13.520233    ( 0.0000,  0.0000,  0.0000)
  20 Li     8.107980    1.563759   13.547434    ( 0.0000,  0.0000,  0.0000)
  21 Li     1.628412    4.848815   13.444833    ( 0.0000,  0.0000,  0.0000)
  22 Li     4.828854    4.867919   13.437405    ( 0.0000,  0.0000,  0.0000)
  23 Li     8.090156    4.870734   13.439958    ( 0.0000,  0.0000,  0.0000)
  24 Li     1.647106    8.096446   13.451802    ( 0.0000,  0.0000,  0.0000)
  25 Li     4.928487    8.133670   13.533575    ( 0.0000,  0.0000,  0.0000)
  26 Li     8.078702    8.172080   13.547014    ( 0.0000,  0.0000,  0.0000)
  27 Li     0.249179   -0.090366   15.615302    ( 0.0000,  0.0000,  0.0000)
  28 Li     3.373045    0.020361   15.400409    ( 0.0000,  0.0000,  0.0000)
  29 Li     6.650052    0.139630   15.940378    ( 0.0000,  0.0000,  0.0000)
  30 Li     0.029379    3.263125   15.372559    ( 0.0000,  0.0000,  0.0000)
  31 Li     3.227527    3.227178   15.421862    ( 0.0000,  0.0000,  0.0000)
  32 Li     6.451252    3.399718   15.305292    ( 0.0000,  0.0000,  0.0000)
  33 Li    -0.029155    6.408536   15.348619    ( 0.0000,  0.0000,  0.0000)
  34 Li     3.246764    6.432554   15.360760    ( 0.0000,  0.0000,  0.0000)
  35 Li     6.460722    6.485153   15.404186    ( 0.0000,  0.0000,  0.0000)
  36 O      8.778114   10.442090   20.228078    ( 0.0000,  0.0000,  0.0000)
  37 O      7.151621   10.097313   17.820206    ( 0.0000,  0.0000,  0.0000)
  38 C      8.391069   11.537193   19.381547    ( 0.0000,  0.0000,  0.0000)
  39 C      7.076490   11.267096   18.669450    ( 0.0000,  0.0000,  0.0000)
  40 H      8.311723   12.473466   19.946622    ( 0.0000,  0.0000,  0.0000)
  41 H      9.197167   11.649111   18.652352    ( 0.0000,  0.0000,  0.0000)
  42 H      6.825211   12.104307   18.014142    ( 0.0000,  0.0000,  0.0000)
  43 H      6.259990   11.137581   19.389893    ( 0.0000,  0.0000,  0.0000)
  44 H      8.226622   10.455883   21.019847    ( 0.0000,  0.0000,  0.0000)
  45 H      7.574537    9.389524   18.329641    ( 0.0000,  0.0000,  0.0000)
  46 N     10.351265    8.820340   17.448153    ( 0.0000,  0.0000,  0.0000)
  47 N     10.571138    8.366472   18.444279    ( 0.0000,  0.0000,  0.0000)

Unit cell:
           periodic     x           y           z      points  spacing
  1. axis:    yes    9.702222    0.000000    0.000000    60     0.1617
  2. axis:    yes    0.000000    9.702222    0.000000    60     0.1617
  3. axis:    no     0.000000    0.000000   26.601111   168     0.1583

  Lengths:   9.702222   9.702222  26.601111
  Angles:   90.000000  90.000000  90.000000

Effective grid spacing dv^(1/3) = 0.1606

     iter     time        total  log10-change:
                         energy  eigst   dens
iter:   1 07:52:11  -326.589375  +1.11
iter:   2 07:54:56  -327.288625  +0.38  -1.77
iter:   3 07:57:46  -327.451951  -0.11  -2.06
iter:   4 08:00:31  -327.514165  -0.50  -2.30
iter:   5 08:03:18  -327.542301  -0.85  -2.49
iter:   6 08:05:51  -327.555639  -1.18  -2.59
iter:   7 08:08:32  -327.563075c -1.44  -2.69
iter:   8 08:11:21  -327.567461c -1.65  -2.78
iter:   9 08:14:06  -327.570613c -1.80  -2.88
iter:  10 08:16:52  -327.572340c -2.02  -2.96
iter:  11 08:19:42  -327.573845c -2.15  -3.15
iter:  12 08:22:26  -327.575020c -2.22  -3.35
iter:  13 08:25:20  -327.575843c -2.38  -3.50
iter:  14 08:28:13  -327.576465c -2.58  -3.51
iter:  15 08:31:00  -327.576892c -2.75  -3.48
iter:  16 08:33:46  -327.577261c -2.79  -3.39
iter:  17 08:36:31  -327.577476c -2.96  -3.28
iter:  18 08:39:18  -327.577663c -3.06  -3.36
iter:  19 08:41:57  -327.577824c -3.22  -3.36
iter:  20 08:44:44  -327.577915c -3.36  -3.26
iter:  21 08:47:31  -327.578002c -3.35  -3.25
iter:  22 08:50:22  -327.578060c -3.51  -3.23
iter:  23 08:53:06  -327.578094c -3.71  -3.22
iter:  24 08:55:47  -327.578137c -3.76  -3.27
iter:  25 08:58:29  -327.578164c -4.01  -3.24
iter:  26 09:01:17  -327.578181c -3.98  -3.23
iter:  27 09:04:00  -327.578174c -4.13  -3.26
iter:  28 09:06:45  -327.578188c -4.27  -3.32
iter:  29 09:09:34  -327.578196c -4.40  -3.30
iter:  30 09:12:19  -327.578212c -4.39  -3.29
iter:  31 09:15:10  -327.578243c -4.40  -3.32
iter:  32 09:17:50  -327.578265c -4.44  -3.44
iter:  33 09:20:31  -327.578245c -4.55  -3.55
iter:  34 09:23:19  -327.578259c -4.67  -3.71
iter:  35 09:26:02  -327.578263c -4.84  -3.87
iter:  36 09:28:53  -327.578265c -4.93  -3.93
iter:  37 09:31:34  -327.578269c -5.11  -4.23c
iter:  38 09:34:13  -327.578274c -5.07  -4.31c
iter:  39 09:37:04  -327.578273c -5.23  -4.34c
iter:  40 09:39:49  -327.578278c -5.12  -4.42c
iter:  41 09:42:34  -327.578280c -5.37  -4.50c
iter:  42 09:45:17  -327.578280c -5.45  -4.50c
iter:  43 09:47:58  -327.578280c -5.54  -4.51c
iter:  44 09:50:52  -327.578281c -5.71  -4.60c
iter:  45 09:53:46  -327.578281c -5.68  -4.70c
iter:  46 09:56:36  -327.578281c -5.79  -4.72c
iter:  47 09:59:22  -327.578281c -5.76  -4.71c
iter:  48 10:02:11  -327.578283c -5.95  -4.67c
iter:  49 10:05:00  -327.578283c -6.08  -4.71c
iter:  50 10:07:49  -327.578283c -6.04  -4.72c
iter:  51 10:10:34  -327.578283c -6.06  -4.71c
iter:  52 10:13:16  -327.578285c -6.37  -4.68c
iter:  53 10:16:00  -327.578285c -6.30  -4.74c
iter:  54 10:18:55  -327.578285c -6.41  -4.94c
iter:  55 10:21:34  -327.578285c -6.46  -4.96c
iter:  56 10:24:10  -327.578286c -6.44  -4.98c
iter:  57 10:27:01  -327.578287c -6.44  -5.12c
iter:  58 10:29:43  -327.578287c -6.55  -5.18c
iter:  59 10:32:23  -327.578287c -6.53  -5.21c
iter:  60 10:35:02  -327.578288c -6.79  -5.32c
iter:  61 10:37:45  -327.578288c -6.91  -5.45c
iter:  62 10:40:34  -327.578288c -6.98  -5.55c
iter:  63 10:43:24  -327.578288c -7.00  -5.59c
iter:  64 10:46:12  -327.578288c -7.10  -5.62c
iter:  65 10:48:56  -327.578288c -7.00  -5.67c
iter:  66 10:51:44  -327.578288c -7.16  -5.78c
iter:  67 10:54:28  -327.578288c -7.29  -5.94c
iter:  68 10:57:16  -327.578288c -7.31  -5.99c
iter:  69 11:00:06  -327.578288c -7.34  -6.12c
iter:  70 11:02:43  -327.578288c -7.44c -6.12c

Converged after 70 iterations.

Dipole moment: (-5.856853, -7.994477, 0.455325) |e|*Ang

Energy contributions relative to reference atoms: (reference = -16475.706344)

Kinetic:       +161.940540
Potential:     -157.358959
External:        +0.000000
XC:            -333.206030
Entropy (-ST):   -0.149579
Local:           +1.120951
--------------------------
Free energy:   -327.653077
Extrapolated:  -327.578288

Dipole-layer corrected work functions: 3.398852, 2.523562 eV

Showing only first 2 kpts
 Kpt  Band  Eigenvalues  Occupancy
  0    34     -3.20012    1.98332
  0    35     -3.13028    1.93424
  0    36     -2.79533    0.06994
  0    37     -2.72359    0.01711

  1    34     -3.02705    1.57732
  1    35     -2.95134    0.90164
  1    36     -2.92574    0.65949
  1    37     -2.87035    0.27957


Fermi level: -2.96121

No gap
