
  ___ ___ ___ _ _ _  
 |   |   |_  | | | | 
 | | | | | . | | | | 
 |__ |  _|___|_____|  22.8.0
 |___|_|             

User:   vazumah@c11.hercules
Date:   Mon Mar  6 02:31:10 2023
Arch:   x86_64
Pid:    20732
CWD:    /home/vazumah/Python_projects/LiNRR/Li_adsorb_studies/proton_donors/N2_with_proton_donor/Li_BCC_100/adsorbates/methanol_z/bridge/0.0_1.617/N2_x
Python: 3.10.8
gpaw:   /home/vazumah/.conda/envs/GPAW/lib/python3.10/site-packages/gpaw
_gpaw:  /home/vazumah/.conda/envs/GPAW/lib/python3.10/site-packages/
        _gpaw.cpython-310-x86_64-linux-gnu.so
ase:    /home/vazumah/.conda/envs/GPAW/lib/python3.10/site-packages/ase (version 3.22.1)
numpy:  /home/vazumah/.conda/envs/GPAW/lib/python3.10/site-packages/numpy (version 1.24.1)
scipy:  /home/vazumah/.conda/envs/GPAW/lib/python3.10/site-packages/scipy (version 1.10.0)
libxc:  5.2.3
units:  Angstrom and eV
cores: 24
OpenMP: True
OMP_NUM_THREADS: 1

Reading from output.gpw
Reading input parameters:
  h: 0.16
  kpts: {size: [4, 4, 1]}
  occupations: {name: fermi-dirac,
                width: 0.05}
  poissonsolver: {dipolelayer: xy}
  xc: BEEF-vdW

Initialize ...

species:
  Li:
    name: Lithium
    id: 830b4218f175192f93f959cfc0aad614
    Z: 3.0
    valence: 1
    core: 2
    charge: 0.0
    file: /home/vazumah/.conda/envs/GPAW/share/gpaw/Li.PBE.gz
    compensation charges: {type: gauss,
                           rc: 0.33,
                           lmax: 2}
    cutoffs: {filter: 1.91,
              core: 2.55}
    valence states:
      #              energy  rcut
      - 2s(1.00)    -2.874   1.058
      - 2p(0.00)    -1.090   1.058
      -  s          24.337   1.058
  
    # Using partial waves for Li as LCAO basis

  O:
    name: Oxygen
    id: 32ecd46bf208036f09c70b0ec9a88b78
    Z: 8.0
    valence: 6
    core: 2
    charge: 0.0
    file: /home/vazumah/.conda/envs/GPAW/share/gpaw/O.PBE.gz
    compensation charges: {type: gauss,
                           rc: 0.21,
                           lmax: 2}
    cutoffs: {filter: 1.17,
              core: 0.83}
    valence states:
      #              energy  rcut
      - 2s(2.00)   -23.961   0.688
      - 2p(4.00)    -9.029   0.598
      -  s           3.251   0.688
      -  p          18.182   0.598
      -  d           0.000   0.619
  
    # Using partial waves for O as LCAO basis

  C:
    name: Carbon
    id: 4aa54d4b901d75f77cc0ea3eec22967b
    Z: 6.0
    valence: 4
    core: 2
    charge: 0.0
    file: /home/vazumah/.conda/envs/GPAW/share/gpaw/C.PBE.gz
    compensation charges: {type: gauss,
                           rc: 0.20,
                           lmax: 2}
    cutoffs: {filter: 1.14,
              core: 1.14}
    valence states:
      #              energy  rcut
      - 2s(2.00)   -13.751   0.635
      - 2p(2.00)    -5.284   0.635
      -  s          13.461   0.635
      -  p          21.927   0.635
      -  d           0.000   0.635
  
    # Using partial waves for C as LCAO basis

  H:
    name: Hydrogen
    id: d65de229564ff8ea4db303e23b6d1ecf
    Z: 1.0
    valence: 1
    core: 0
    charge: 0.0
    file: /home/vazumah/.conda/envs/GPAW/share/gpaw/H.PBE.gz
    compensation charges: {type: gauss,
                           rc: 0.15,
                           lmax: 2}
    cutoffs: {filter: 0.85,
              core: 0.53}
    valence states:
      #              energy  rcut
      - 1s(1.00)    -6.494   0.476
      -  s          20.717   0.476
      -  p           0.000   0.476
  
    # Using partial waves for H as LCAO basis

  N:
    name: Nitrogen
    id: f7500608b86eaa90eef8b1d9a670dc53
    Z: 7.0
    valence: 5
    core: 2
    charge: 0.0
    file: /home/vazumah/.conda/envs/GPAW/share/gpaw/N.PBE.gz
    compensation charges: {type: gauss,
                           rc: 0.18,
                           lmax: 2}
    cutoffs: {filter: 1.11,
              core: 0.96}
    valence states:
      #              energy  rcut
      - 2s(2.00)   -18.583   0.603
      - 2p(3.00)    -7.089   0.529
      -  s           8.629   0.603
      -  p          20.123   0.529
      -  d           0.000   0.577
  
    # Using partial waves for N as LCAO basis

Reference energy: -13382.245603  # eV

Spin-paired calculation

Convergence criteria:
 Maximum [total energy] change in last 3 cyles: 0.0005 eV / electron
 Maximum integral of absolute [dens]ity change: 0.0001 electrons / valence electron
 Maximum integral of absolute [eigenst]ate change: 4e-08 eV^2 / valence electron
 Maximum number of scf [iter]ations: 333
 (Square brackets indicate name in SCF output, whereas a 'c' in
 the SCF output indicates the quantity has converged.)

Symmetries present (total): 1

  ( 1  0  0)
  ( 0  1  0)
  ( 0  0  1)

16 k-points: 4 x 4 x 1 Monkhorst-Pack grid
8 k-points in the irreducible part of the Brillouin zone
       k-points in crystal coordinates                weights
   0:     0.12500000   -0.37500000    0.00000000          2/16
   1:     0.12500000   -0.12500000    0.00000000          2/16
   2:     0.12500000    0.12500000    0.00000000          2/16
   3:     0.12500000    0.37500000    0.00000000          2/16
   4:     0.37500000   -0.37500000    0.00000000          2/16
   5:     0.37500000   -0.12500000    0.00000000          2/16
   6:     0.37500000    0.12500000    0.00000000          2/16
   7:     0.37500000    0.37500000    0.00000000          2/16

Wave functions: Uniform real-space grid
  Kinetic energy operator: 6*3+1=19 point O(h^6) finite-difference Laplacian
  ScaLapack parameters: grid=1x1, blocksize=None
  Wavefunction extrapolation:
    Improved wavefunction reuse through dual PAW basis 

Occupation numbers: Fermi-Dirac:
  width: 0.0500  # eV
 

Eigensolver
   Davidson(niter=2) 

Densities:
  Coarse grid: 60*60*168 grid
  Fine grid: 120*120*336 grid
  Total Charge: 0.000000 

Density mixing:
  Method: separate
  Backend: pulay
  Linear mixing parameter: 0.05
  old densities: 5
  Damping of long wavelength oscillations: 50 

Hamiltonian:
  XC and Coulomb potentials evaluated on a 120*120*336 grid
  Using the BEEF-vdW Exchange-Correlation functional
  Interpolation: tri-quintic (5. degree polynomial)
  Poisson solver: FastPoissonSolver using
    Stencil: 6*3+1=19 point O(h^6) finite-difference Laplacian
    FFT axes: [0, 1]
    FST axes: [2]

Dipole correction along z-axis 

XC parameters: BEEF-vdW with 2 nearest neighbor stencil

Memory estimate:
  Process memory now: 233.50 MiB
  Calculator: 413.38 MiB
    Density: 121.66 MiB
      Arrays: 39.61 MiB
      Localized functions: 66.95 MiB
      Mixer: 15.11 MiB
    Hamiltonian: 31.19 MiB
      Arrays: 25.90 MiB
      XC: 0.00 MiB
      Poisson: 0.00 MiB
      vbar: 5.29 MiB
    Wavefunctions: 260.53 MiB
      Arrays psit_nG: 120.85 MiB
      Eigensolver: 136.20 MiB
      Projections: 0.05 MiB
      Projectors: 3.43 MiB

Total number of cores used: 24
Parallelization over k-points: 8
Domain decomposition: 1 x 1 x 3

Number of atoms: 44
Number of atomic orbitals: 164
Number of bands in calculation: 40
Number of valence electrons: 60
Bands to converge: occupied

... initialized

Initializing position-dependent things.

Creating initial wave functions:
  40 bands from LCAO basis set

       .-----------------------.  
      /|                       |  
     / |                       |  
    /  |                       |  
   /   |                       |  
  /    |                       |  
 *     |                       |  
 |     |                       |  
 |     |                       |  
 |     |                       |  
 |     |                       |  
 |     |                       |  
 | H   |                       |  
 | H   |               H  C    |  
 |     |       Li              |  
 |O    |                       |  
 |     |     Li      Li  H   Li|  
 |N    |  Li      Li   N  Li   |  
 |     |   Li      Li      Li  |  
 |     |Li      Li      Li     |  
 |     |         Li      Li    |  
 |   LLi     LLi     LLi       |  
 |     |  Li      Li      Li   |  
 | Li  |   Li      Li          |  
 |     |Li      Li      Li     |  
 Li    | Li      Li            |  
 |    Li      Li      Li       |  
 |     |                       |  
 |     |                       |  
 |     |                       |  
 |     |                       |  
 |     |                       |  
 |     |                       |  
 |     .-----------------------.  
 |    /                       /   
 |   /                       /    
 |  /                       /     
 | /                       /      
 |/                       /       
 *-----------------------*        

Positions:
   0 Li     1.617037    1.617037   10.000000    ( 0.0000,  0.0000,  0.0000)
   1 Li     4.851111    1.617037   10.000000    ( 0.0000,  0.0000,  0.0000)
   2 Li     8.085185    1.617037   10.000000    ( 0.0000,  0.0000,  0.0000)
   3 Li     1.617037    4.851111   10.000000    ( 0.0000,  0.0000,  0.0000)
   4 Li     4.851111    4.851111   10.000000    ( 0.0000,  0.0000,  0.0000)
   5 Li     8.085185    4.851111   10.000000    ( 0.0000,  0.0000,  0.0000)
   6 Li     1.617037    8.085185   10.000000    ( 0.0000,  0.0000,  0.0000)
   7 Li     4.851111    8.085185   10.000000    ( 0.0000,  0.0000,  0.0000)
   8 Li     8.085185    8.085185   10.000000    ( 0.0000,  0.0000,  0.0000)
   9 Li     0.000000    0.000000   11.617037    ( 0.0000,  0.0000,  0.0000)
  10 Li     3.234074    0.000000   11.617037    ( 0.0000,  0.0000,  0.0000)
  11 Li     6.468148    0.000000   11.617037    ( 0.0000,  0.0000,  0.0000)
  12 Li     0.000000    3.234074   11.617037    ( 0.0000,  0.0000,  0.0000)
  13 Li     3.234074    3.234074   11.617037    ( 0.0000,  0.0000,  0.0000)
  14 Li     6.468148    3.234074   11.617037    ( 0.0000,  0.0000,  0.0000)
  15 Li     0.000000    6.468148   11.617037    ( 0.0000,  0.0000,  0.0000)
  16 Li     3.234074    6.468148   11.617037    ( 0.0000,  0.0000,  0.0000)
  17 Li     6.468148    6.468148   11.617037    ( 0.0000,  0.0000,  0.0000)
  18 Li     1.617110    1.617039   13.469569    ( 0.0000,  0.0000,  0.0000)
  19 Li     4.851088    1.617034   13.469814    ( 0.0000,  0.0000,  0.0000)
  20 Li     8.085178    1.617049   13.469553    ( 0.0000,  0.0000,  0.0000)
  21 Li     1.617002    4.851057   13.469829    ( 0.0000,  0.0000,  0.0000)
  22 Li     4.851140    4.851110   13.469798    ( 0.0000,  0.0000,  0.0000)
  23 Li     8.085193    4.851092   13.469784    ( 0.0000,  0.0000,  0.0000)
  24 Li     1.617007    8.085242   13.469829    ( 0.0000,  0.0000,  0.0000)
  25 Li     4.851129    8.085191   13.469795    ( 0.0000,  0.0000,  0.0000)
  26 Li     8.085201    8.085191   13.469795    ( 0.0000,  0.0000,  0.0000)
  27 Li    -0.000126    0.000087   15.445950    ( 0.0000,  0.0000,  0.0000)
  28 Li     3.234163   -0.000057   15.445856    ( 0.0000,  0.0000,  0.0000)
  29 Li     6.468232    0.000014   15.446069    ( 0.0000,  0.0000,  0.0000)
  30 Li    -0.000110    3.233930   15.446133    ( 0.0000,  0.0000,  0.0000)
  31 Li     3.234151    3.234127   15.445871    ( 0.0000,  0.0000,  0.0000)
  32 Li     6.468175    3.234076   15.446028    ( 0.0000,  0.0000,  0.0000)
  33 Li    -0.000012    6.468188   15.445938    ( 0.0000,  0.0000,  0.0000)
  34 Li     3.234034    6.468149   15.445925    ( 0.0000,  0.0000,  0.0000)
  35 Li     6.468200    6.468156   15.445926    ( 0.0000,  0.0000,  0.0000)
  36 O      0.013136    1.612628   18.483463    ( 0.0000,  0.0000,  0.0000)
  37 C     -0.002691    1.603576   19.883184    ( 0.0000,  0.0000,  0.0000)
  38 H      0.681619    0.852064   20.280053    ( 0.0000,  0.0000,  0.0000)
  39 H     -1.007413    1.423519   20.278334    ( 0.0000,  0.0000,  0.0000)
  40 H      0.327475    2.587699   20.195541    ( 0.0000,  0.0000,  0.0000)
  41 H     -0.292184    0.748260   18.142128    ( 0.0000,  0.0000,  0.0000)
  42 N      0.017461    1.624791   17.166195    ( 0.0000,  0.0000,  0.0000)
  43 N     -1.128818    1.617613   17.173567    ( 0.0000,  0.0000,  0.0000)

Unit cell:
           periodic     x           y           z      points  spacing
  1. axis:    yes    9.702222    0.000000    0.000000    60     0.1617
  2. axis:    yes    0.000000    9.702222    0.000000    60     0.1617
  3. axis:    no     0.000000    0.000000   26.601111   168     0.1583

  Lengths:   9.702222   9.702222  26.601111
  Angles:   90.000000  90.000000  90.000000

Effective grid spacing dv^(1/3) = 0.1606

     iter     time        total  log10-change:
                         energy  eigst   dens
iter:   1 02:34:32  -271.502324  +1.13
iter:   2 02:37:18  -272.155106  +0.45  -1.66
iter:   3 02:39:52  -272.320590  -0.01  -1.82
iter:   4 02:42:22  -272.387235  -0.34  -2.07
Writing to output.gpw (mode='')

iter:   5 02:44:56  -272.422484  -0.57  -2.13
iter:   6 02:47:35  -272.446770  -0.74  -2.36
iter:   7 02:50:12  -272.460898  -1.01  -2.51
iter:   8 02:52:44  -272.471760c -1.14  -2.60
iter:   9 02:55:14  -272.479119c -1.34  -2.74
Writing to output.gpw (mode='')

iter:  10 02:57:52  -272.484325c -1.46  -2.90
iter:  11 03:00:28  -272.487852c -1.65  -2.88
iter:  12 03:03:00  -272.490615c -1.87  -3.05
iter:  13 03:05:42  -272.492478c -1.99  -2.96
iter:  14 03:08:25  -272.493912c -1.93  -2.87
Writing to output.gpw (mode='')

iter:  15 03:11:00  -272.495401c -2.20  -2.83
iter:  16 03:13:36  -272.496068c -2.19  -2.73
iter:  17 03:16:08  -272.496657c -2.43  -2.73
iter:  18 03:18:42  -272.497218c -2.41  -2.71
iter:  19 03:21:12  -272.497618c -2.50  -2.68
Writing to output.gpw (mode='')

iter:  20 03:23:55  -272.497644c -2.72  -2.63
iter:  21 03:26:32  -272.498738c -2.72  -2.64
iter:  22 03:29:10  -272.498034c -2.96  -2.54
iter:  23 03:31:48  -272.497989c -2.93  -2.63
iter:  24 03:34:19  -272.497960c -2.77  -2.66
Writing to output.gpw (mode='')

iter:  25 03:36:54  -272.498338c -2.68  -2.71
iter:  26 03:39:27  -272.498643c -2.86  -2.69
iter:  27 03:41:59  -272.498541c -2.96  -2.69
iter:  28 03:44:27  -272.498345c -3.51  -2.77
iter:  29 03:47:01  -272.498612c -3.06  -2.82
Writing to output.gpw (mode='')

iter:  30 03:49:36  -272.498458c -3.50  -2.92
iter:  31 03:52:04  -272.498407c -3.80  -2.98
iter:  32 03:54:39  -272.498437c -3.78  -2.99
iter:  33 03:57:07  -272.498235c -3.64  -2.98
iter:  34 03:59:45  -272.498342c -3.59  -3.03
Writing to output.gpw (mode='')

iter:  35 04:02:30  -272.498336c -3.62  -3.28
iter:  36 04:05:00  -272.498349c -4.28  -3.37
iter:  37 04:07:33  -272.498352c -4.24  -3.43
iter:  38 04:10:07  -272.498399c -4.30  -3.53
iter:  39 04:12:40  -272.498392c -4.36  -3.57
Writing to output.gpw (mode='')

iter:  40 04:15:20  -272.498383c -4.41  -3.59
iter:  41 04:18:01  -272.498355c -4.64  -3.66
iter:  42 04:20:37  -272.498372c -4.58  -3.81
iter:  43 04:23:12  -272.498374c -4.67  -4.02c
iter:  44 04:25:47  -272.498385c -4.78  -4.14c
Writing to output.gpw (mode='')

iter:  45 04:28:23  -272.498385c -4.93  -4.23c
iter:  46 04:31:04  -272.498388c -4.90  -4.32c
iter:  47 04:33:36  -272.498387c -5.00  -4.39c
iter:  48 04:36:06  -272.498388c -5.26  -4.40c
iter:  49 04:38:40  -272.498388c -5.23  -4.38c
Writing to output.gpw (mode='')

iter:  50 04:41:14  -272.498388c -5.51  -4.28c
iter:  51 04:43:49  -272.498388c -5.51  -4.32c
iter:  52 04:46:23  -272.498390c -5.44  -4.32c
iter:  53 04:48:51  -272.498391c -5.54  -4.32c
iter:  54 04:51:22  -272.498395c -5.58  -4.36c
Writing to output.gpw (mode='')

iter:  55 04:54:01  -272.498400c -5.70  -4.44c
iter:  56 04:56:38  -272.498399c -5.83  -4.49c
iter:  57 04:59:02  -272.498405c -5.85  -4.52c
iter:  58 05:01:31  -272.498404c -5.89  -4.60c
iter:  59 05:04:00  -272.498402c -5.88  -4.68c
Writing to output.gpw (mode='')

iter:  60 05:06:39  -272.498401c -6.07  -4.71c
iter:  61 05:09:09  -272.498402c -6.10  -5.01c
iter:  62 05:11:43  -272.498403c -6.26  -5.13c
iter:  63 05:14:21  -272.498403c -6.32  -5.16c
iter:  64 05:16:57  -272.498404c -6.29  -5.22c
Writing to output.gpw (mode='')

iter:  65 05:19:33  -272.498404c -6.15  -5.29c
iter:  66 05:22:16  -272.498404c -6.43  -5.39c
iter:  67 05:24:44  -272.498404c -6.36  -5.42c
iter:  68 05:27:14  -272.498404c -6.41  -5.43c
iter:  69 05:30:01  -272.498405c -6.47  -5.37c
Writing to output.gpw (mode='')

iter:  70 05:32:48  -272.498404c -6.74  -5.38c
iter:  71 05:35:25  -272.498404c -6.66  -5.35c
iter:  72 05:37:55  -272.498404c -6.65  -5.31c
iter:  73 05:40:40  -272.498404c -6.85  -5.31c
iter:  74 05:43:17  -272.498404c -7.03  -5.28c
Writing to output.gpw (mode='')

iter:  75 05:45:55  -272.498404c -7.05  -5.23c
iter:  76 05:48:34  -272.498405c -6.99  -5.24c
iter:  77 05:51:04  -272.498405c -6.92  -5.25c
iter:  78 05:53:41  -272.498405c -7.21  -5.24c
iter:  79 05:56:22  -272.498405c -6.92  -5.24c
Writing to output.gpw (mode='')

iter:  80 05:59:00  -272.498406c -7.14  -5.37c
iter:  81 06:01:33  -272.498405c -7.25  -5.40c
iter:  82 06:03:59  -272.498406c -7.27  -5.39c
iter:  83 06:06:34  -272.498406c -7.30  -5.52c
iter:  84 06:09:02  -272.498406c -7.31  -5.59c
Writing to output.gpw (mode='')

iter:  85 06:11:49  -272.498406c -7.31  -5.65c
iter:  86 06:14:17  -272.498406c -7.33  -5.74c
iter:  87 06:16:49  -272.498406c -7.38  -5.82c
iter:  88 06:19:27  -272.498406c -7.52c -6.03c

Converged after 88 iterations.

Dipole moment: (-15.170242, -4.743645, 0.468527) |e|*Ang

Energy contributions relative to reference atoms: (reference = -13382.245603)

Kinetic:       +172.364448
Potential:     -148.782665
External:        +0.000000
XC:            -296.668075
Entropy (-ST):   -0.166033
Local:           +0.670903
--------------------------
Free energy:   -272.581422
Extrapolated:  -272.498406

Dipole-layer corrected work functions: 3.377647, 2.476977 eV

Showing only first 2 kpts
 Kpt  Band  Eigenvalues  Occupancy
  0    28     -3.17331    1.98551
  0    29     -3.02465    1.75017
  0    30     -2.84419    0.31886
  0    31     -2.71098    0.02608

  1    28     -2.98900    1.54895
  1    29     -2.93808    1.10726
  1    30     -2.86800    0.46787
  1    31     -2.80959    0.17343


Fermi level: -2.92731

Gap: 0.028 eV
Transition (v -> c):
  (s=0, k=1, n=29, [0.12, -0.12, 0.00]) -> (s=0, k=4, n=30, [0.38, -0.38, 0.00])
Writing to output.gpw (mode='')


Forces in eV/Ang:
  0 Li    0.02538    0.00060   -0.27910
  1 Li   -0.01164    0.00365   -0.27419
  2 Li   -0.01338    0.00015   -0.27930
  3 Li   -0.00300    0.01348   -0.27714
  4 Li   -0.00326   -0.00705   -0.27457
  5 Li    0.00474    0.02163   -0.27228
  6 Li   -0.00584   -0.01569   -0.27754
  7 Li   -0.00251    0.00347   -0.27198
  8 Li    0.00827   -0.02223   -0.27371
  9 Li   -0.00343    0.00754    0.32155
 10 Li    0.00522    0.00216    0.25048
 11 Li   -0.00302    0.00563    0.29423
 12 Li   -0.00288   -0.00754    0.31986
 13 Li    0.01267   -0.00388    0.24750
 14 Li   -0.00860   -0.00712    0.28624
 15 Li   -0.00557    0.00075    0.23696
 16 Li   -0.00562    0.00276    0.26992
 17 Li    0.01328   -0.00038    0.25377
 18 Li    0.04436    0.00033   -0.10243
 19 Li   -0.01540   -0.00202    0.04903
 20 Li   -0.00304    0.00555   -0.11106
 21 Li   -0.02229   -0.03200    0.05704
 22 Li    0.01633   -0.00123    0.04155
 23 Li    0.00627   -0.00885    0.02850
 24 Li   -0.02037    0.03412    0.06211
 25 Li    0.01243    0.00521    0.04001
 26 Li    0.01011    0.00309    0.03805
 27 Li   -0.08697    0.08396    0.07405
 28 Li    0.05256   -0.03850   -0.04933
 29 Li    0.05821    0.01440    0.09436
 30 Li   -0.08237   -0.11826    0.19879
 31 Li    0.04321    0.03305   -0.03945
 32 Li    0.02996   -0.00750    0.07685
 33 Li   -0.00430    0.02189   -0.01248
 34 Li   -0.02460    0.00303   -0.01007
 35 Li    0.02914    0.00672   -0.01171
 36 O     5.86256   -3.10080   16.83693
 37 C     1.40194    0.82465    4.15117
 38 H     0.04987   -0.02406    0.13828
 39 H    -0.05450   -0.00152   -0.47113
 40 H     0.07310    0.13784    0.28780
 41 H    -0.48695   -2.12294    4.13590
 42 N     4.28575    4.05229  -14.65195
 43 N   -11.11078    0.22291  -10.83519

System changes: positions 

Initializing position-dependent things.

Density initialized from wave functions
       .-----------------------.  
      /|                       |  
     / |                       |  
    /  |                       |  
   /   |                       |  
  /    |                       |  
 *     |                       |  
 |     |                       |  
 |     |                       |  
 |     |                       |  
 |     |                       |  
 |     |                       |  
 | H   |                       |  
 |CH   |               H       |  
 |     |       Li              |  
 |O    |                       |  
 |     |     Li      Li  H   Li|  
 |N    |  Li      Li   N  Li   |  
 |     |   Li      Li      Li  |  
 |     |Li      Li      Li     |  
 |     |         Li      Li    |  
 |   LLi     LLi     LLi       |  
 |     |  Li      Li      Li   |  
 | Li  |   Li      Li          |  
 |     |Li      Li      Li     |  
 Li    | Li      Li            |  
 |    Li      Li      Li       |  
 |     |                       |  
 |     |                       |  
 |     |                       |  
 |     |                       |  
 |     |                       |  
 |     |                       |  
 |     .-----------------------.  
 |    /                       /   
 |   /                       /    
 |  /                       /     
 | /                       /      
 |/                       /       
 *-----------------------*        

Positions:
   0 Li     1.617037    1.617037   10.000000    ( 0.0000,  0.0000,  0.0000)
   1 Li     4.851111    1.617037   10.000000    ( 0.0000,  0.0000,  0.0000)
   2 Li     8.085185    1.617037   10.000000    ( 0.0000,  0.0000,  0.0000)
   3 Li     1.617037    4.851111   10.000000    ( 0.0000,  0.0000,  0.0000)
   4 Li     4.851111    4.851111   10.000000    ( 0.0000,  0.0000,  0.0000)
   5 Li     8.085185    4.851111   10.000000    ( 0.0000,  0.0000,  0.0000)
   6 Li     1.617037    8.085185   10.000000    ( 0.0000,  0.0000,  0.0000)
   7 Li     4.851111    8.085185   10.000000    ( 0.0000,  0.0000,  0.0000)
   8 Li     8.085185    8.085185   10.000000    ( 0.0000,  0.0000,  0.0000)
   9 Li     0.000000    0.000000   11.617037    ( 0.0000,  0.0000,  0.0000)
  10 Li     3.234074    0.000000   11.617037    ( 0.0000,  0.0000,  0.0000)
  11 Li     6.468148    0.000000   11.617037    ( 0.0000,  0.0000,  0.0000)
  12 Li     0.000000    3.234074   11.617037    ( 0.0000,  0.0000,  0.0000)
  13 Li     3.234074    3.234074   11.617037    ( 0.0000,  0.0000,  0.0000)
  14 Li     6.468148    3.234074   11.617037    ( 0.0000,  0.0000,  0.0000)
  15 Li     0.000000    6.468148   11.617037    ( 0.0000,  0.0000,  0.0000)
  16 Li     3.234074    6.468148   11.617037    ( 0.0000,  0.0000,  0.0000)
  17 Li     6.468148    6.468148   11.617037    ( 0.0000,  0.0000,  0.0000)
  18 Li     1.617269    1.617039   13.469182    ( 0.0000,  0.0000,  0.0000)
  19 Li     4.851028    1.617029   13.469976    ( 0.0000,  0.0000,  0.0000)
  20 Li     8.085169    1.617064   13.469141    ( 0.0000,  0.0000,  0.0000)
  21 Li     1.616924    4.850949   13.470013    ( 0.0000,  0.0000,  0.0000)
  22 Li     4.851192    4.851102   13.469946    ( 0.0000,  0.0000,  0.0000)
  23 Li     8.085217    4.851073   13.469862    ( 0.0000,  0.0000,  0.0000)
  24 Li     1.616929    8.085357   13.470049    ( 0.0000,  0.0000,  0.0000)
  25 Li     4.851179    8.085212   13.469936    ( 0.0000,  0.0000,  0.0000)
  26 Li     8.085236    8.085195   13.469916    ( 0.0000,  0.0000,  0.0000)
  27 Li    -0.000478    0.000525   15.446520    ( 0.0000,  0.0000,  0.0000)
  28 Li     3.234340   -0.000209   15.445687    ( 0.0000,  0.0000,  0.0000)
  29 Li     6.468471    0.000092   15.446471    ( 0.0000,  0.0000,  0.0000)
  30 Li    -0.000470    3.233372   15.447201    ( 0.0000,  0.0000,  0.0000)
  31 Li     3.234294    3.234254   15.445739    ( 0.0000,  0.0000,  0.0000)
  32 Li     6.468336    3.234017   15.446399    ( 0.0000,  0.0000,  0.0000)
  33 Li    -0.000014    6.468255   15.445839    ( 0.0000,  0.0000,  0.0000)
  34 Li     3.233953    6.468164   15.445879    ( 0.0000,  0.0000,  0.0000)
  35 Li     6.468284    6.468181   15.445866    ( 0.0000,  0.0000,  0.0000)
  36 O      0.024045    1.599803   18.515356    ( 0.0000,  0.0000,  0.0000)
  37 C      0.000844    1.605763   19.896518    ( 0.0000,  0.0000,  0.0000)
  38 H      0.682110    0.851719   20.281505    ( 0.0000,  0.0000,  0.0000)
  39 H     -1.007508    1.423604   20.277525    ( 0.0000,  0.0000,  0.0000)
  40 H      0.327937    2.588756   20.197326    ( 0.0000,  0.0000,  0.0000)
  41 H     -0.292847    0.746787   18.153779    ( 0.0000,  0.0000,  0.0000)
  42 N      0.003604    1.635912   17.130357    ( 0.0000,  0.0000,  0.0000)
  43 N     -1.129208    1.617713   17.148110    ( 0.0000,  0.0000,  0.0000)

Unit cell:
           periodic     x           y           z      points  spacing
  1. axis:    yes    9.702222    0.000000    0.000000    60     0.1617
  2. axis:    yes    0.000000    9.702222    0.000000    60     0.1617
  3. axis:    no     0.000000    0.000000   26.601111   168     0.1583

  Lengths:   9.702222   9.702222  26.601111
  Angles:   90.000000  90.000000  90.000000

Effective grid spacing dv^(1/3) = 0.1606

     iter     time        total  log10-change:
                         energy  eigst   dens
iter:   1 06:22:46  -274.203461  -0.39
iter:   2 06:25:20  -274.046489  -0.44  -1.43
iter:   3 06:27:51  -274.003382  -1.11  -1.57
iter:   4 06:30:29  -273.974749  -0.99  -1.91
Writing to output.gpw (mode='')

iter:   5 06:33:10  -274.020874  -1.25  -2.12
iter:   6 06:35:45  -274.246311  -0.74  -1.84
iter:   7 06:38:17  -274.025786  -1.13  -1.53
iter:   8 06:40:47  -273.943560  -0.71  -1.78
iter:   9 06:43:17  -273.951126  -1.31  -2.28
Writing to output.gpw (mode='')

iter:  10 06:45:58  -274.023900  -1.71  -2.31
iter:  11 06:48:29  -273.947295  -1.13  -1.84
iter:  12 06:51:02  -273.948648  -1.89  -2.62
iter:  13 06:53:35  -273.949412c -2.08  -2.76
iter:  14 06:56:09  -273.950418c -2.28  -2.81
Writing to output.gpw (mode='')

iter:  15 06:58:55  -273.950502c -2.36  -2.86
iter:  16 07:01:30  -273.950782c -2.52  -2.99
iter:  17 07:04:05  -273.951637c -2.27  -2.96
iter:  18 07:06:43  -273.951715c -2.76  -2.74
iter:  19 07:09:17  -273.952059c -2.66  -2.75
Writing to output.gpw (mode='')

iter:  20 07:11:56  -273.951972c -2.95  -2.68
iter:  21 07:14:23  -273.951802c -2.98  -2.72
iter:  22 07:16:59  -273.951658c -2.99  -2.79
iter:  23 07:19:43  -273.951883c -3.22  -2.84
iter:  24 07:22:24  -273.952220c -3.62  -2.92
Writing to output.gpw (mode='')

iter:  25 07:24:58  -273.951978c -3.64  -3.01
iter:  26 07:27:28  -273.952054c -3.55  -3.18
iter:  27 07:30:00  -273.952056c -4.17  -3.24
iter:  28 07:32:33  -273.952068c -4.03  -3.31
iter:  29 07:35:11  -273.952005c -3.94  -3.39
Writing to output.gpw (mode='')

iter:  30 07:37:44  -273.952056c -4.63  -3.43
iter:  31 07:40:11  -273.952116c -4.16  -3.48
iter:  32 07:42:41  -273.952120c -4.37  -3.53
iter:  33 07:45:08  -273.952099c -4.58  -3.79
iter:  34 07:47:33  -273.952084c -4.73  -3.88
Writing to output.gpw (mode='')

iter:  35 07:50:06  -273.952091c -4.77  -3.97
iter:  36 07:52:34  -273.952097c -5.04  -4.23c
iter:  37 07:55:11  -273.952101c -5.03  -4.26c
iter:  38 07:57:56  -273.952109c -5.26  -4.32c
iter:  39 08:00:26  -273.952108c -5.46  -4.41c
Writing to output.gpw (mode='')

iter:  40 08:02:51  -273.952106c -5.24  -4.45c
iter:  41 08:05:19  -273.952106c -5.68  -4.72c
iter:  42 08:07:48  -273.952107c -5.57  -4.75c
iter:  43 08:10:35  -273.952104c -5.67  -4.77c
iter:  44 08:13:12  -273.952108c -5.76  -4.62c
Writing to output.gpw (mode='')

iter:  45 08:15:54  -273.952112c -5.92  -4.72c
iter:  46 08:18:32  -273.952115c -5.89  -4.82c
iter:  47 08:21:15  -273.952114c -5.80  -4.84c
iter:  48 08:24:04  -273.952116c -6.12  -5.01c
iter:  49 08:26:45  -273.952115c -6.25  -5.13c
Writing to output.gpw (mode='')

iter:  50 08:29:13  -273.952115c -6.30  -5.19c
iter:  51 08:31:46  -273.952116c -6.39  -5.19c
iter:  52 08:34:19  -273.952116c -6.42  -5.20c
iter:  53 08:36:49  -273.952117c -6.40  -5.13c
iter:  54 08:39:26  -273.952117c -6.54  -5.27c
Writing to output.gpw (mode='')

iter:  55 08:42:00  -273.952117c -6.64  -5.26c
iter:  56 08:44:32  -273.952116c -6.42  -5.23c
iter:  57 08:47:01  -273.952116c -6.54  -5.11c
iter:  58 08:49:39  -273.952117c -6.61  -5.11c
iter:  59 08:52:20  -273.952116c -6.92  -5.12c
Writing to output.gpw (mode='')

iter:  60 08:55:00  -273.952116c -6.85  -5.06c
iter:  61 08:57:34  -273.952117c -6.97  -5.04c
iter:  62 09:00:19  -273.952117c -6.64  -5.05c
iter:  63 09:02:56  -273.952117c -7.07  -5.03c
iter:  64 09:05:33  -273.952119c -7.15  -4.99c
Writing to output.gpw (mode='')

iter:  65 09:08:11  -273.952120c -7.26  -5.11c
iter:  66 09:10:42  -273.952120c -7.19  -5.14c
iter:  67 09:13:20  -273.952121c -7.23  -5.16c
iter:  68 09:15:57  -273.952120c -7.29  -5.24c
iter:  69 09:18:38  -273.952120c -7.29  -5.37c
Writing to output.gpw (mode='')

iter:  70 09:21:09  -273.952120c -7.32  -5.47c
iter:  71 09:23:40  -273.952121c -7.50c -5.52c

Converged after 71 iterations.

Dipole moment: (-14.864260, -4.727622, 0.433115) |e|*Ang

Energy contributions relative to reference atoms: (reference = -13382.245603)

Kinetic:       +171.453336
Potential:     -149.384410
External:        +0.000000
XC:            -296.611809
Entropy (-ST):   -0.163472
Local:           +0.672499
--------------------------
Free energy:   -274.033857
Extrapolated:  -273.952121

Dipole-layer corrected work functions: 3.378707, 2.546112 eV

Showing only first 2 kpts
 Kpt  Band  Eigenvalues  Occupancy
  0    28     -3.21024    1.98602
  0    29     -3.06600    1.77628
  0    30     -2.86841    0.26478
  0    31     -2.74441    0.02524

  1    28     -3.02120    1.52837
  1    29     -2.97386    1.11399
  1    30     -2.90375    0.47256
  1    31     -2.85539    0.21048


Fermi level: -2.96241

Gap: 0.027 eV
Transition (v -> c):
  (s=0, k=1, n=29, [0.12, -0.12, 0.00]) -> (s=0, k=4, n=30, [0.38, -0.38, 0.00])
Writing to output.gpw (mode='')


Forces in eV/Ang:
  0 Li    0.02635    0.00040   -0.27880
  1 Li   -0.01258    0.00343   -0.27264
  2 Li   -0.01388   -0.00002   -0.27962
  3 Li   -0.00340    0.01284   -0.27654
  4 Li   -0.00253   -0.00732   -0.27434
  5 Li    0.00495    0.02300   -0.27176
  6 Li   -0.00645   -0.01516   -0.27675
  7 Li   -0.00151    0.00386   -0.27201
  8 Li    0.00832   -0.02317   -0.27296
  9 Li   -0.00309    0.00772    0.32168
 10 Li    0.00729    0.00204    0.24975
 11 Li   -0.00471    0.00438    0.29091
 12 Li   -0.00186   -0.00792    0.32043
 13 Li    0.01427   -0.00394    0.24722
 14 Li   -0.01053   -0.00561    0.28298
 15 Li   -0.00584    0.00083    0.23573
 16 Li   -0.00671    0.00332    0.26957
 17 Li    0.01381   -0.00088    0.25335
 18 Li    0.04295   -0.00003   -0.09713
 19 Li   -0.01025   -0.00189    0.05439
 20 Li   -0.00939    0.00585   -0.13692
 21 Li   -0.02233   -0.03189    0.05797
 22 Li    0.01422    0.00160    0.04030
 23 Li    0.00744   -0.01451    0.03491
 24 Li   -0.02075    0.03478    0.06343
 25 Li    0.01095    0.00235    0.03840
 26 Li    0.01088    0.00895    0.04632
 27 Li   -0.05767    0.03956    0.02207
 28 Li    0.05197   -0.03754   -0.04807
 29 Li    0.02357   -0.00836    0.06697
 30 Li   -0.05538   -0.06995    0.14801
 31 Li    0.04400    0.03217   -0.03935
 32 Li   -0.00143    0.01467    0.05223
 33 Li   -0.00612    0.02240   -0.01253
 34 Li   -0.02478    0.00234   -0.01004
 35 Li    0.03153    0.00800   -0.01063
 36 O     4.72470   -3.12147   14.02605
 37 C     1.10793    0.49597    3.94678
 38 H     0.12565   -0.08356    0.41221
 39 H    -0.05533    0.01706   -0.23063
 40 H     0.12387    0.28129    0.40631
 41 H    -0.11097   -1.54494    3.99495
 42 N     3.80120    3.68334  -13.46310
 43 N    -9.76692    0.27418   -9.35811

System changes: positions 

Initializing position-dependent things.

Density initialized from wave functions
       .-----------------------.  
      /|                       |  
     / |                       |  
    /  |                       |  
   /   |                       |  
  /    |                       |  
 *     |                       |  
 |     |                       |  
 |     |                       |  
 |     |                       |  
 |     |                       |  
 |     |                       |  
 | H   |                       |  
 |CH   |               H       |  
 |     |       Li      Li      |  
 |O    |                       |  
 |     |     Li      Li  H   Li|  
 |     |  Li      Li   N  Ni   |  
 |     |   Li      Li      Li  |  
 |     |Li      Li      Li     |  
 |     |                 Li    |  
 |   LLi     LLi     LLi       |  
 |     |  Li      Li      Li   |  
 | Li  |   Li      Li          |  
 |     |Li      Li      Li     |  
 Li    | Li      Li            |  
 |    Li      Li      Li       |  
 |     |                       |  
 |     |                       |  
 |     |                       |  
 |     |                       |  
 |     |                       |  
 |     |                       |  
 |     .-----------------------.  
 |    /                       /   
 |   /                       /    
 |  /                       /     
 | /                       /      
 |/                       /       
 *-----------------------*        

Positions:
   0 Li     1.617037    1.617037   10.000000    ( 0.0000,  0.0000,  0.0000)
   1 Li     4.851111    1.617037   10.000000    ( 0.0000,  0.0000,  0.0000)
   2 Li     8.085185    1.617037   10.000000    ( 0.0000,  0.0000,  0.0000)
   3 Li     1.617037    4.851111   10.000000    ( 0.0000,  0.0000,  0.0000)
   4 Li     4.851111    4.851111   10.000000    ( 0.0000,  0.0000,  0.0000)
   5 Li     8.085185    4.851111   10.000000    ( 0.0000,  0.0000,  0.0000)
   6 Li     1.617037    8.085185   10.000000    ( 0.0000,  0.0000,  0.0000)
   7 Li     4.851111    8.085185   10.000000    ( 0.0000,  0.0000,  0.0000)
   8 Li     8.085185    8.085185   10.000000    ( 0.0000,  0.0000,  0.0000)
   9 Li     0.000000    0.000000   11.617037    ( 0.0000,  0.0000,  0.0000)
  10 Li     3.234074    0.000000   11.617037    ( 0.0000,  0.0000,  0.0000)
  11 Li     6.468148    0.000000   11.617037    ( 0.0000,  0.0000,  0.0000)
  12 Li     0.000000    3.234074   11.617037    ( 0.0000,  0.0000,  0.0000)
  13 Li     3.234074    3.234074   11.617037    ( 0.0000,  0.0000,  0.0000)
  14 Li     6.468148    3.234074   11.617037    ( 0.0000,  0.0000,  0.0000)
  15 Li     0.000000    6.468148   11.617037    ( 0.0000,  0.0000,  0.0000)
  16 Li     3.234074    6.468148   11.617037    ( 0.0000,  0.0000,  0.0000)
  17 Li     6.468148    6.468148   11.617037    ( 0.0000,  0.0000,  0.0000)
  18 Li     1.617448    1.617035   13.468779    ( 0.0000,  0.0000,  0.0000)
  19 Li     4.851016    1.617024   13.470243    ( 0.0000,  0.0000,  0.0000)
  20 Li     8.085083    1.617088   13.468344    ( 0.0000,  0.0000,  0.0000)
  21 Li     1.616827    4.850815   13.470258    ( 0.0000,  0.0000,  0.0000)
  22 Li     4.851235    4.851126   13.470113    ( 0.0000,  0.0000,  0.0000)
  23 Li     8.085259    4.850979   13.470043    ( 0.0000,  0.0000,  0.0000)
  24 Li     1.616832    8.085509   13.470334    ( 0.0000,  0.0000,  0.0000)
  25 Li     4.851221    8.085203   13.470090    ( 0.0000,  0.0000,  0.0000)
  26 Li     8.085288    8.085271   13.470167    ( 0.0000,  0.0000,  0.0000)
  27 Li    -0.000551    0.000485   15.446480    ( 0.0000,  0.0000,  0.0000)
  28 Li     3.234553   -0.000377   15.445493    ( 0.0000,  0.0000,  0.0000)
  29 Li     6.468347   -0.000087   15.446617    ( 0.0000,  0.0000,  0.0000)
  30 Li    -0.000567    3.233310   15.447761    ( 0.0000,  0.0000,  0.0000)
  31 Li     3.234483    3.234396   15.445575    ( 0.0000,  0.0000,  0.0000)
  32 Li     6.468145    3.234217   15.446524    ( 0.0000,  0.0000,  0.0000)
  33 Li    -0.000043    6.468347   15.445741    ( 0.0000,  0.0000,  0.0000)
  34 Li     3.233850    6.468173   15.445828    ( 0.0000,  0.0000,  0.0000)
  35 Li     6.468424    6.468226   15.445813    ( 0.0000,  0.0000,  0.0000)
  36 O      0.028582    1.584651   18.534129    ( 0.0000,  0.0000,  0.0000)
  37 C      0.002400    1.604955   19.911104    ( 0.0000,  0.0000,  0.0000)
  38 H      0.683453    0.850721   20.286039    ( 0.0000,  0.0000,  0.0000)
  39 H     -1.007677    1.423885   20.278944    ( 0.0000,  0.0000,  0.0000)
  40 H      0.329003    2.591466   20.200551    ( 0.0000,  0.0000,  0.0000)
  41 H     -0.289767    0.749011   18.167759    ( 0.0000,  0.0000,  0.0000)
  42 N     -0.006159    1.646699   17.093097    ( 0.0000,  0.0000,  0.0000)
  43 N     -1.131339    1.618735   17.128314    ( 0.0000,  0.0000,  0.0000)

Unit cell:
           periodic     x           y           z      points  spacing
  1. axis:    yes    9.702222    0.000000    0.000000    60     0.1617
  2. axis:    yes    0.000000    9.702222    0.000000    60     0.1617
  3. axis:    no     0.000000    0.000000   26.601111   168     0.1583

  Lengths:   9.702222   9.702222  26.601111
  Angles:   90.000000  90.000000  90.000000

Effective grid spacing dv^(1/3) = 0.1606

     iter     time        total  log10-change:
                         energy  eigst   dens
iter:   1 09:26:53  -275.245775  -0.63
iter:   2 09:29:27  -275.121148  -0.58  -1.47
iter:   3 09:32:02  -275.084081  -1.35  -1.63
iter:   4 09:34:40  -275.085279  -1.54  -2.02
Writing to output.gpw (mode='')

iter:   5 09:37:15  -275.084635c -1.60  -2.04
iter:   6 09:39:48  -275.149662  -0.91  -2.08
iter:   7 09:42:22  -275.101511  -1.23  -1.64
iter:   8 09:44:51  -275.066330  -1.59  -1.98
iter:   9 09:47:31  -275.062005  -1.00  -2.04
Writing to output.gpw (mode='')

iter:  10 09:50:14  -275.060955c -1.87  -2.33
iter:  11 09:52:48  -275.060241c -2.36  -2.37
iter:  12 09:55:15  -275.058388c -2.06  -2.39
iter:  13 09:57:47  -275.056027c -2.25  -2.45
iter:  14 10:00:21  -275.056137c -2.89  -2.76
Writing to output.gpw (mode='')

iter:  15 10:02:59  -275.056256c -3.18  -2.84
iter:  16 10:05:30  -275.056281c -2.76  -2.79
iter:  17 10:08:00  -275.056341c -3.11  -2.86
iter:  18 10:10:33  -275.056084c -3.71  -2.91
iter:  19 10:13:05  -275.056114c -3.49  -2.96
Writing to output.gpw (mode='')

iter:  20 10:15:42  -275.056067c -4.08  -3.01
iter:  21 10:18:18  -275.056047c -3.92  -3.12
iter:  22 10:20:51  -275.056281c -4.13  -3.20
iter:  23 10:23:14  -275.056213c -4.40  -3.19
iter:  24 10:25:57  -275.056180c -3.92  -3.32
Writing to output.gpw (mode='')

iter:  25 10:28:43  -275.056059c -4.40  -3.23
iter:  26 10:31:24  -275.055971c -4.36  -3.28
iter:  27 10:34:00  -275.055996c -4.31  -3.41
iter:  28 10:36:34  -275.056052c -4.68  -3.48
iter:  29 10:39:07  -275.056016c -5.09  -3.64
Writing to output.gpw (mode='')

iter:  30 10:41:34  -275.056036c -4.81  -3.74
iter:  31 10:44:07  -275.056060c -5.11  -3.92
iter:  32 10:46:47  -275.056053c -5.46  -4.24c
iter:  33 10:49:22  -275.056054c -5.54  -4.27c
iter:  34 10:51:55  -275.056053c -5.65  -4.30c
Writing to output.gpw (mode='')

iter:  35 10:54:31  -275.056057c -5.45  -4.32c
iter:  36 10:57:05  -275.056051c -5.92  -4.33c
iter:  37 10:59:38  -275.056050c -5.99  -4.37c
iter:  38 11:02:08  -275.056053c -6.09  -4.45c
iter:  39 11:04:42  -275.056053c -6.14  -4.52c
Writing to output.gpw (mode='')

iter:  40 11:07:19  -275.056054c -6.05  -4.60c
iter:  41 11:09:54  -275.056054c -6.26  -4.73c
iter:  42 11:12:27  -275.056052c -6.45  -4.77c
iter:  43 11:15:07  -275.056053c -6.47  -5.04c
iter:  44 11:17:41  -275.056054c -6.66  -5.10c
Writing to output.gpw (mode='')

iter:  45 11:20:26  -275.056055c -6.70  -5.22c
iter:  46 11:23:04  -275.056054c -6.70  -5.23c
iter:  47 11:25:39  -275.056054c -6.88  -5.25c
iter:  48 11:28:20  -275.056054c -6.87  -5.28c
iter:  49 11:31:01  -275.056054c -7.09  -5.47c
Writing to output.gpw (mode='')

iter:  50 11:33:35  -275.056055c -7.11  -5.53c
iter:  51 11:36:00  -275.056055c -7.20  -5.64c
iter:  52 11:38:32  -275.056055c -7.17  -5.67c
iter:  53 11:41:06  -275.056055c -6.94  -5.69c
iter:  54 11:43:40  -275.056055c -7.04  -5.83c
Writing to output.gpw (mode='')

iter:  55 11:46:13  -275.056055c -7.35  -5.86c
iter:  56 11:48:55  -275.056055c -7.51c -5.86c

Converged after 56 iterations.

Dipole moment: (-14.229122, -4.683649, 0.407925) |e|*Ang

Energy contributions relative to reference atoms: (reference = -13382.245603)

Kinetic:       +170.509308
Potential:     -149.624945
External:        +0.000000
XC:            -296.531468
Entropy (-ST):   -0.162718
Local:           +0.672409
--------------------------
Free energy:   -275.137414
Extrapolated:  -275.056055

Dipole-layer corrected work functions: 3.380291, 2.596119 eV

Showing only first 2 kpts
 Kpt  Band  Eigenvalues  Occupancy
  0    28     -3.23693    1.98627
  0    29     -3.09387    1.78437
  0    30     -2.89029    0.24730
  0    31     -2.76752    0.02393

  1    28     -3.04620    1.52263
  1    29     -2.99921    1.10961
  1    30     -2.92955    0.47257
  1    31     -2.88784    0.23690


Fermi level: -2.98820

Gap: 0.026 eV
Transition (v -> c):
  (s=0, k=1, n=29, [0.12, -0.12, 0.00]) -> (s=0, k=4, n=30, [0.38, -0.38, 0.00])
Writing to output.gpw (mode='')


Forces in eV/Ang:
  0 Li    0.02648    0.00011   -0.27867
  1 Li   -0.01280    0.00308   -0.27151
  2 Li   -0.01427   -0.00018   -0.27965
  3 Li   -0.00351    0.01275   -0.27639
  4 Li   -0.00209   -0.00719   -0.27436
  5 Li    0.00519    0.02371   -0.27175
  6 Li   -0.00661   -0.01505   -0.27624
  7 Li   -0.00100    0.00396   -0.27247
  8 Li    0.00831   -0.02344   -0.27258
  9 Li   -0.00284    0.00785    0.32151
 10 Li    0.00918    0.00182    0.24933
 11 Li   -0.00606    0.00366    0.28814
 12 Li   -0.00108   -0.00836    0.32116
 13 Li    0.01529   -0.00385    0.24749
 14 Li   -0.01179   -0.00463    0.28050
 15 Li   -0.00599    0.00098    0.23480
 16 Li   -0.00794    0.00387    0.26912
 17 Li    0.01442   -0.00133    0.25325
 18 Li    0.04252   -0.00073   -0.09490
 19 Li   -0.00734   -0.00159    0.05715
 20 Li   -0.01412    0.00556   -0.14945
 21 Li   -0.02238   -0.03123    0.05789
 22 Li    0.01258    0.00344    0.03961
 23 Li    0.00837   -0.01782    0.03840
 24 Li   -0.02098    0.03504    0.06401
 25 Li    0.00976    0.00024    0.03688
 26 Li    0.01147    0.01267    0.05158
 27 Li   -0.03775    0.00957   -0.00916
 28 Li    0.05060   -0.03761   -0.04680
 29 Li    0.00240   -0.02128    0.04887
 30 Li   -0.03568   -0.03557    0.11453
 31 Li    0.04473    0.03217   -0.03891
 32 Li   -0.02081    0.02694    0.03619
 33 Li   -0.00671    0.02223   -0.01414
 34 Li   -0.02461    0.00184   -0.01026
 35 Li    0.03240    0.00892   -0.01044
 36 O     4.12068   -2.53728   12.49600
 37 C     0.99148    0.32749    3.45929
 38 H     0.17588   -0.13240    0.61727
 39 H    -0.10768    0.00970   -0.04011
 40 H     0.12251    0.26794    0.42031
 41 H    -0.05818   -1.58128    3.65487
 42 N     3.43030    3.35988  -12.58361
 43 N    -8.67546    0.30537   -8.15293

System changes: positions 

Initializing position-dependent things.

Density initialized from wave functions
       .-----------------------.  
      /|                       |  
     / |                       |  
    /  |                       |  
   /   |                       |  
  /    |                       |  
 *     |                       |  
 |     |                       |  
 |     |                       |  
 |     |                       |  
 |     |                       |  
 |     |                       |  
 | H   |                       |  
 |CH   |               H       |  
 |     |       Li      Li      |  
 |O    |                       |  
 |     |     Li      Li  H   Li|  
 |     |  Li      Li   N  Ni   |  
 |     |   Li      Li      Li  |  
 |     |Li      Li      Li     |  
 |     |                 Li    |  
 |   LLi     LLi     LLi       |  
 |     |  Li      Li      Li   |  
 | Li  |   Li      Li          |  
 |     |Li      Li      Li     |  
 Li    | Li      Li            |  
 |    Li      Li      Li       |  
 |     |                       |  
 |     |                       |  
 |     |                       |  
 |     |                       |  
 |     |                       |  
 |     |                       |  
 |     .-----------------------.  
 |    /                       /   
 |   /                       /    
 |  /                       /     
 | /                       /      
 |/                       /       
 *-----------------------*        

Positions:
   0 Li     1.617037    1.617037   10.000000    ( 0.0000,  0.0000,  0.0000)
   1 Li     4.851111    1.617037   10.000000    ( 0.0000,  0.0000,  0.0000)
   2 Li     8.085185    1.617037   10.000000    ( 0.0000,  0.0000,  0.0000)
   3 Li     1.617037    4.851111   10.000000    ( 0.0000,  0.0000,  0.0000)
   4 Li     4.851111    4.851111   10.000000    ( 0.0000,  0.0000,  0.0000)
   5 Li     8.085185    4.851111   10.000000    ( 0.0000,  0.0000,  0.0000)
   6 Li     1.617037    8.085185   10.000000    ( 0.0000,  0.0000,  0.0000)
   7 Li     4.851111    8.085185   10.000000    ( 0.0000,  0.0000,  0.0000)
   8 Li     8.085185    8.085185   10.000000    ( 0.0000,  0.0000,  0.0000)
   9 Li     0.000000    0.000000   11.617037    ( 0.0000,  0.0000,  0.0000)
  10 Li     3.234074    0.000000   11.617037    ( 0.0000,  0.0000,  0.0000)
  11 Li     6.468148    0.000000   11.617037    ( 0.0000,  0.0000,  0.0000)
  12 Li     0.000000    3.234074   11.617037    ( 0.0000,  0.0000,  0.0000)
  13 Li     3.234074    3.234074   11.617037    ( 0.0000,  0.0000,  0.0000)
  14 Li     6.468148    3.234074   11.617037    ( 0.0000,  0.0000,  0.0000)
  15 Li     0.000000    6.468148   11.617037    ( 0.0000,  0.0000,  0.0000)
  16 Li     3.234074    6.468148   11.617037    ( 0.0000,  0.0000,  0.0000)
  17 Li     6.468148    6.468148   11.617037    ( 0.0000,  0.0000,  0.0000)
  18 Li     1.617649    1.617024   13.468340    ( 0.0000,  0.0000,  0.0000)
  19 Li     4.851028    1.617021   13.470572    ( 0.0000,  0.0000,  0.0000)
  20 Li     8.084940    1.617112   13.467341    ( 0.0000,  0.0000,  0.0000)
  21 Li     1.616716    4.850669   13.470538    ( 0.0000,  0.0000,  0.0000)
  22 Li     4.851269    4.851171   13.470297    ( 0.0000,  0.0000,  0.0000)
  23 Li     8.085315    4.850841   13.470283    ( 0.0000,  0.0000,  0.0000)
  24 Li     1.616720    8.085685   13.470664    ( 0.0000,  0.0000,  0.0000)
  25 Li     4.851255    8.085172   13.470251    ( 0.0000,  0.0000,  0.0000)
  26 Li     8.085353    8.085393   13.470504    ( 0.0000,  0.0000,  0.0000)
  27 Li    -0.000441    0.000133   15.446092    ( 0.0000,  0.0000,  0.0000)
  28 Li     3.234784   -0.000569   15.445282    ( 0.0000,  0.0000,  0.0000)
  29 Li     6.468013   -0.000408   15.446604    ( 0.0000,  0.0000,  0.0000)
  30 Li    -0.000478    3.233591   15.448014    ( 0.0000,  0.0000,  0.0000)
  31 Li     3.234709    3.234558   15.445391    ( 0.0000,  0.0000,  0.0000)
  32 Li     6.467743    3.234555   15.446501    ( 0.0000,  0.0000,  0.0000)
  33 Li    -0.000083    6.468452   15.445621    ( 0.0000,  0.0000,  0.0000)
  34 Li     3.233732    6.468177   15.445768    ( 0.0000,  0.0000,  0.0000)
  35 Li     6.468593    6.468285   15.445756    ( 0.0000,  0.0000,  0.0000)
  36 O      0.031076    1.575221   18.549227    ( 0.0000,  0.0000,  0.0000)
  37 C      0.003731    1.602850   19.922385    ( 0.0000,  0.0000,  0.0000)
  38 H      0.685370    0.849163   20.292943    ( 0.0000,  0.0000,  0.0000)
  39 H     -1.008555    1.424046   20.282210    ( 0.0000,  0.0000,  0.0000)
  40 H      0.330036    2.593919   20.203955    ( 0.0000,  0.0000,  0.0000)
  41 H     -0.286721    0.748328   18.180436    ( 0.0000,  0.0000,  0.0000)
  42 N     -0.014233    1.656540   17.055176    ( 0.0000,  0.0000,  0.0000)
  43 N     -1.132036    1.620333   17.114501    ( 0.0000,  0.0000,  0.0000)

Unit cell:
           periodic     x           y           z      points  spacing
  1. axis:    yes    9.702222    0.000000    0.000000    60     0.1617
  2. axis:    yes    0.000000    9.702222    0.000000    60     0.1617
  3. axis:    no     0.000000    0.000000   26.601111   168     0.1583

  Lengths:   9.702222   9.702222  26.601111
  Angles:   90.000000  90.000000  90.000000

Effective grid spacing dv^(1/3) = 0.1606

     iter     time        total  log10-change:
                         energy  eigst   dens
iter:   1 11:52:10  -276.067251  -0.73
iter:   2 11:54:47  -275.982977  -0.74  -1.56
iter:   3 11:57:28  -275.957009  -1.50  -1.70
iter:   4 11:59:59  -275.944047  -1.41  -2.09
Writing to output.gpw (mode='')

iter:   5 12:02:37  -275.971738c -1.53  -2.28
iter:   6 12:05:11  -276.010608  -1.38  -1.95
iter:   7 12:07:46  -275.943754  -1.78  -1.80
iter:   8 12:10:17  -275.936275  -1.31  -2.21
iter:   9 12:12:53  -275.936993c -2.26  -2.25
Writing to output.gpw (mode='')

iter:  10 12:15:30  -275.955556c -2.08  -2.58
iter:  11 12:18:10  -275.935373c -2.27  -2.12
iter:  12 12:20:46  -275.934255c -2.18  -2.77
iter:  13 12:23:15  -275.934867c -2.89  -3.02
iter:  14 12:25:47  -275.934831c -2.84  -3.06
Writing to output.gpw (mode='')

iter:  15 12:28:21  -275.934847c -3.14  -3.14
iter:  16 12:31:00  -275.935091c -3.28  -3.30
iter:  17 12:33:25  -275.934880c -3.31  -3.33
iter:  18 12:35:55  -275.935099c -3.48  -3.31
iter:  19 12:38:25  -275.935163c -3.73  -3.56
Writing to output.gpw (mode='')

iter:  20 12:40:58  -275.935142c -3.66  -3.56
iter:  21 12:43:28  -275.935158c -4.05  -3.67
iter:  22 12:46:03  -275.935191c -3.95  -3.70
iter:  23 12:48:34  -275.935211c -4.25  -3.91
iter:  24 12:51:11  -275.935219c -4.35  -3.93
Writing to output.gpw (mode='')

iter:  25 12:53:41  -275.935227c -4.68  -4.00c
iter:  26 12:56:13  -275.935243c -4.54  -4.03c
iter:  27 12:58:56  -275.935242c -4.90  -4.17c
iter:  28 13:01:21  -275.935241c -4.68  -4.23c
iter:  29 13:03:49  -275.935260c -5.05  -4.30c
Writing to output.gpw (mode='')

iter:  30 13:06:21  -275.935252c -4.82  -4.31c
iter:  31 13:08:58  -275.935254c -4.72  -4.44c
iter:  32 13:11:30  -275.935262c -5.23  -4.44c
iter:  33 13:13:59  -275.935268c -5.17  -4.64c
iter:  34 13:16:28  -275.935267c -5.24  -4.68c
Writing to output.gpw (mode='')

iter:  35 13:19:02  -275.935267c -5.47  -4.84c
iter:  36 13:21:40  -275.935269c -5.46  -4.90c
iter:  37 13:24:12  -275.935269c -5.84  -4.88c
iter:  38 13:26:49  -275.935269c -5.84  -4.84c
iter:  39 13:29:30  -275.935269c -5.82  -4.82c
Writing to output.gpw (mode='')

iter:  40 13:32:04  -275.935270c -5.75  -4.79c
iter:  41 13:34:36  -275.935270c -5.98  -4.77c
iter:  42 13:37:06  -275.935270c -6.20  -4.72c
iter:  43 13:39:37  -275.935273c -6.41  -4.64c
iter:  44 13:42:10  -275.935273c -6.53  -4.77c
Writing to output.gpw (mode='')

iter:  45 13:44:47  -275.935276c -6.49  -4.73c
iter:  46 13:47:18  -275.935278c -6.32  -4.79c
iter:  47 13:49:46  -275.935279c -6.42  -4.80c
iter:  48 13:52:11  -275.935279c -6.52  -4.97c
iter:  49 13:54:41  -275.935281c -6.51  -5.05c
Writing to output.gpw (mode='')

iter:  50 13:57:26  -275.935280c -6.55  -5.08c
iter:  51 13:59:58  -275.935280c -6.59  -5.12c
iter:  52 14:02:28  -275.935281c -6.81  -5.15c
iter:  53 14:05:01  -275.935281c -6.76  -5.22c
iter:  54 14:07:29  -275.935280c -7.01  -5.43c
Writing to output.gpw (mode='')

iter:  55 14:10:06  -275.935281c -7.09  -5.54c
iter:  56 14:12:46  -275.935281c -7.03  -5.72c
iter:  57 14:15:20  -275.935281c -7.17  -5.80c
iter:  58 14:17:52  -275.935282c -7.21  -5.89c
iter:  59 14:20:20  -275.935282c -7.31  -5.93c
Writing to output.gpw (mode='')

iter:  60 14:22:58  -275.935282c -7.33  -5.94c
iter:  61 14:25:31  -275.935281c -7.53c -5.92c

Converged after 61 iterations.

Dipole moment: (-13.571211, -4.639075, 0.380806) |e|*Ang

Energy contributions relative to reference atoms: (reference = -13382.245603)

Kinetic:       +169.451531
Potential:     -149.580681
External:        +0.000000
XC:            -296.398648
Entropy (-ST):   -0.162539
Local:           +0.673786
--------------------------
Free energy:   -276.016551
Extrapolated:  -275.935281

Dipole-layer corrected work functions: 3.381877, 2.649836 eV

Showing only first 2 kpts
 Kpt  Band  Eigenvalues  Occupancy
  0    28     -3.26514    1.98642
  0    29     -3.12236    1.78757
  0    30     -2.91567    0.23761
  0    31     -2.79333    0.02307

  1    28     -3.07348    1.51989
  1    29     -3.02602    1.10126
  1    30     -2.95727    0.47305
  1    31     -2.92045    0.25840


Fermi level: -3.01586

Gap: 0.026 eV
Transition (v -> c):
  (s=0, k=1, n=29, [0.12, -0.12, 0.00]) -> (s=0, k=4, n=30, [0.38, -0.38, 0.00])
Writing to output.gpw (mode='')


Forces in eV/Ang:
  0 Li    0.02625   -0.00016   -0.27868
  1 Li   -0.01272    0.00278   -0.27051
  2 Li   -0.01468   -0.00032   -0.27963
  3 Li   -0.00347    0.01282   -0.27637
  4 Li   -0.00174   -0.00696   -0.27446
  5 Li    0.00541    0.02412   -0.27198
  6 Li   -0.00659   -0.01503   -0.27585
  7 Li   -0.00063    0.00393   -0.27299
  8 Li    0.00831   -0.02344   -0.27237
  9 Li   -0.00259    0.00802    0.32128
 10 Li    0.01102    0.00156    0.24923
 11 Li   -0.00727    0.00306    0.28561
 12 Li   -0.00044   -0.00888    0.32195
 13 Li    0.01624   -0.00365    0.24798
 14 Li   -0.01277   -0.00383    0.27826
 15 Li   -0.00608    0.00120    0.23412
 16 Li   -0.00922    0.00428    0.26866
 17 Li    0.01490   -0.00168    0.25339
 18 Li    0.04244   -0.00147   -0.09376
 19 Li   -0.00505   -0.00125    0.05904
 20 Li   -0.01818    0.00500   -0.15658
 21 Li   -0.02242   -0.03041    0.05738
 22 Li    0.01110    0.00488    0.03916
 23 Li    0.00911   -0.02003    0.04052
 24 Li   -0.02104    0.03504    0.06409
 25 Li    0.00855   -0.00160    0.03529
 26 Li    0.01193    0.01547    0.05532
 27 Li   -0.02247   -0.01536   -0.03436
 28 Li    0.04905   -0.03812   -0.04546
 29 Li   -0.01354   -0.03051    0.03458
 30 Li   -0.01922   -0.00424    0.08199
 31 Li    0.04553    0.03252   -0.03833
 32 Li   -0.03607    0.03537    0.02327
 33 Li   -0.00691    0.02208   -0.01535
 34 Li   -0.02428    0.00150   -0.01049
 35 Li    0.03278    0.00961   -0.01033
 36 O     3.61731   -2.02975   11.27832
 37 C     0.92693    0.21238    3.11546
 38 H     0.19520   -0.15427    0.74949
 39 H    -0.11602   -0.00006    0.08621
 40 H     0.10418    0.19965    0.42062
 41 H    -0.00611   -1.51501    3.29991
 42 N     3.25268    2.96810  -11.70461
 43 N    -8.00153    0.31873   -7.22453

System changes: positions 

Initializing position-dependent things.

Density initialized from wave functions
       .-----------------------.  
      /|                       |  
     / |                       |  
    /  |                       |  
   /   |                       |  
  /    |                       |  
 *     |                       |  
 |     |                       |  
 |     |                       |  
 |     |                       |  
 |     |                       |  
 |     |                       |  
 | H   |                       |  
 |CH   |               H       |  
 |     |       Li      Li      Li 
 |O    |                       |  
 |     |     Li      Li  H   Li|  
 |     |  Li      Li   N  Ni   |  
 |     |   Li      Li      Li  |  
 |     |Li      Li      Li     |  
 |     |                       |  
 |   LLi     LLi     LLi       |  
 |     |  Li      Li      Li   |  
 | Li  |   Li      Li          |  
 |     |Li      Li      Li     |  
 Li    | Li      Li            |  
 |    Li      Li      Li       |  
 |     |                       |  
 |     |                       |  
 |     |                       |  
 |     |                       |  
 |     |                       |  
 |     |                       |  
 |     .-----------------------.  
 |    /                       /   
 |   /                       /    
 |  /                       /     
 | /                       /      
 |/                       /       
 *-----------------------*        

Positions:
   0 Li     1.617037    1.617037   10.000000    ( 0.0000,  0.0000,  0.0000)
   1 Li     4.851111    1.617037   10.000000    ( 0.0000,  0.0000,  0.0000)
   2 Li     8.085185    1.617037   10.000000    ( 0.0000,  0.0000,  0.0000)
   3 Li     1.617037    4.851111   10.000000    ( 0.0000,  0.0000,  0.0000)
   4 Li     4.851111    4.851111   10.000000    ( 0.0000,  0.0000,  0.0000)
   5 Li     8.085185    4.851111   10.000000    ( 0.0000,  0.0000,  0.0000)
   6 Li     1.617037    8.085185   10.000000    ( 0.0000,  0.0000,  0.0000)
   7 Li     4.851111    8.085185   10.000000    ( 0.0000,  0.0000,  0.0000)
   8 Li     8.085185    8.085185   10.000000    ( 0.0000,  0.0000,  0.0000)
   9 Li     0.000000    0.000000   11.617037    ( 0.0000,  0.0000,  0.0000)
  10 Li     3.234074    0.000000   11.617037    ( 0.0000,  0.0000,  0.0000)
  11 Li     6.468148    0.000000   11.617037    ( 0.0000,  0.0000,  0.0000)
  12 Li     0.000000    3.234074   11.617037    ( 0.0000,  0.0000,  0.0000)
  13 Li     3.234074    3.234074   11.617037    ( 0.0000,  0.0000,  0.0000)
  14 Li     6.468148    3.234074   11.617037    ( 0.0000,  0.0000,  0.0000)
  15 Li     0.000000    6.468148   11.617037    ( 0.0000,  0.0000,  0.0000)
  16 Li     3.234074    6.468148   11.617037    ( 0.0000,  0.0000,  0.0000)
  17 Li     6.468148    6.468148   11.617037    ( 0.0000,  0.0000,  0.0000)
  18 Li     1.617887    1.617002   13.467828    ( 0.0000,  0.0000,  0.0000)
  19 Li     4.851059    1.617020   13.470970    ( 0.0000,  0.0000,  0.0000)
  20 Li     8.084739    1.617133   13.466142    ( 0.0000,  0.0000,  0.0000)
  21 Li     1.616585    4.850507   13.470861    ( 0.0000,  0.0000,  0.0000)
  22 Li     4.851296    4.851236   13.470512    ( 0.0000,  0.0000,  0.0000)
  23 Li     8.085387    4.850663   13.470577    ( 0.0000,  0.0000,  0.0000)
  24 Li     1.616589    8.085891   13.471049    ( 0.0000,  0.0000,  0.0000)
  25 Li     4.851284    8.085120   13.470425    ( 0.0000,  0.0000,  0.0000)
  26 Li     8.085434    8.085556   13.470925    ( 0.0000,  0.0000,  0.0000)
  27 Li    -0.000195   -0.000492   15.445418    ( 0.0000,  0.0000,  0.0000)
  28 Li     3.235039   -0.000801   15.445047    ( 0.0000,  0.0000,  0.0000)
  29 Li     6.467509   -0.000845   15.446475    ( 0.0000,  0.0000,  0.0000)
  30 Li    -0.000233    3.234203   15.447987    ( 0.0000,  0.0000,  0.0000)
  31 Li     3.234984    3.234753   15.445181    ( 0.0000,  0.0000,  0.0000)
  32 Li     6.467157    3.235003   15.446364    ( 0.0000,  0.0000,  0.0000)
  33 Li    -0.000129    6.468574   15.445475    ( 0.0000,  0.0000,  0.0000)
  34 Li     3.233598    6.468179   15.445697    ( 0.0000,  0.0000,  0.0000)
  35 Li     6.468793    6.468360   15.445691    ( 0.0000,  0.0000,  0.0000)
  36 O      0.031763    1.569979   18.562297    ( 0.0000,  0.0000,  0.0000)
  37 C      0.005383    1.599869   19.932621    ( 0.0000,  0.0000,  0.0000)
  38 H      0.687593    0.847288   20.301773    ( 0.0000,  0.0000,  0.0000)
  39 H     -1.009581    1.424075   20.286791    ( 0.0000,  0.0000,  0.0000)
  40 H      0.330884    2.595566   20.207619    ( 0.0000,  0.0000,  0.0000)
  41 H     -0.283342    0.746772   18.191883    ( 0.0000,  0.0000,  0.0000)
  42 N     -0.020757    1.664528   17.016529    ( 0.0000,  0.0000,  0.0000)
  43 N     -1.133483    1.622315   17.103927    ( 0.0000,  0.0000,  0.0000)

Unit cell:
           periodic     x           y           z      points  spacing
  1. axis:    yes    9.702222    0.000000    0.000000    60     0.1617
  2. axis:    yes    0.000000    9.702222    0.000000    60     0.1617
  3. axis:    no     0.000000    0.000000   26.601111   168     0.1583

  Lengths:   9.702222   9.702222  26.601111
  Angles:   90.000000  90.000000  90.000000

Effective grid spacing dv^(1/3) = 0.1606

     iter     time        total  log10-change:
                         energy  eigst   dens
iter:   1 14:28:48  -276.770931  -0.82
iter:   2 14:31:19  -276.721443  -0.93  -1.65
iter:   3 14:33:49  -276.704528  -1.66  -1.79
iter:   4 14:36:19  -276.702069c -1.77  -2.19
Writing to output.gpw (mode='')

iter:   5 14:38:52  -276.714073c -1.72  -2.26
iter:   6 14:41:23  -276.715573c -2.07  -2.03
iter:   7 14:43:54  -276.697259c -2.19  -2.01
iter:   8 14:46:26  -276.691462c -2.08  -2.23
iter:   9 14:48:55  -276.694286c -2.38  -2.48
Writing to output.gpw (mode='')

iter:  10 14:51:34  -276.697469c -2.27  -2.38
iter:  11 14:54:06  -276.690768c -2.21  -2.32
iter:  12 14:56:31  -276.691049c -2.63  -2.52
iter:  13 14:59:05  -276.690366c -2.63  -2.59
iter:  14 15:01:38  -276.690777c -2.97  -2.75
Writing to output.gpw (mode='')

iter:  15 15:04:18  -276.690259c -3.10  -2.78
iter:  16 15:06:49  -276.690604c -3.16  -2.85
iter:  17 15:09:24  -276.690617c -3.75  -2.99
iter:  18 15:12:02  -276.690552c -3.90  -3.11
iter:  19 15:14:29  -276.690725c -4.04  -3.34
Writing to output.gpw (mode='')

iter:  20 15:17:03  -276.690607c -4.06  -3.31
iter:  21 15:19:39  -276.690614c -4.33  -3.69
iter:  22 15:22:15  -276.690623c -4.65  -3.67
iter:  23 15:24:44  -276.690632c -4.67  -3.72
iter:  24 15:27:21  -276.690653c -4.74  -3.81
Writing to output.gpw (mode='')

iter:  25 15:29:46  -276.690650c -4.92  -3.99
iter:  26 15:32:15  -276.690644c -4.98  -3.98
iter:  27 15:34:44  -276.690654c -5.10  -3.97
iter:  28 15:37:27  -276.690651c -5.01  -3.98
iter:  29 15:39:55  -276.690646c -5.21  -3.95
Writing to output.gpw (mode='')

iter:  30 15:42:31  -276.690659c -5.24  -3.96
iter:  31 15:45:00  -276.690661c -5.27  -3.93
iter:  32 15:47:40  -276.690663c -5.39  -3.97
iter:  33 15:50:15  -276.690663c -5.47  -4.21c
iter:  34 15:52:47  -276.690658c -5.60  -4.32c
Writing to output.gpw (mode='')

iter:  35 15:55:23  -276.690660c -5.74  -4.37c
iter:  36 15:57:55  -276.690654c -5.65  -4.39c
iter:  37 16:00:25  -276.690661c -5.98  -4.42c
iter:  38 16:03:03  -276.690661c -6.09  -4.52c
iter:  39 16:05:39  -276.690662c -5.98  -4.58c
Writing to output.gpw (mode='')

iter:  40 16:08:07  -276.690663c -6.08  -4.86c
iter:  41 16:10:37  -276.690662c -6.01  -4.93c
iter:  42 16:13:05  -276.690663c -5.88  -4.94c
iter:  43 16:15:41  -276.690662c -6.23  -4.96c
iter:  44 16:18:09  -276.690664c -6.37  -4.91c
Writing to output.gpw (mode='')

iter:  45 16:20:37  -276.690664c -6.48  -4.96c
iter:  46 16:23:04  -276.690665c -6.24  -4.94c
iter:  47 16:25:31  -276.690663c -6.25  -4.90c
iter:  48 16:28:10  -276.690663c -6.73  -4.78c
iter:  49 16:30:34  -276.690665c -6.57  -4.91c
Writing to output.gpw (mode='')

iter:  50 16:33:09  -276.690664c -6.94  -5.16c
iter:  51 16:35:39  -276.690665c -6.86  -5.10c
iter:  52 16:38:15  -276.690666c -6.78  -5.18c
iter:  53 16:40:50  -276.690666c -7.03  -5.24c
iter:  54 16:43:31  -276.690666c -7.03  -5.23c
Writing to output.gpw (mode='')

iter:  55 16:46:05  -276.690667c -7.08  -5.21c
iter:  56 16:48:43  -276.690667c -7.24  -5.30c
iter:  57 16:51:30  -276.690667c -7.22  -5.37c
iter:  58 16:54:05  -276.690667c -7.24  -5.46c
iter:  59 16:56:42  -276.690667c -7.38  -5.53c
Writing to output.gpw (mode='')

iter:  60 16:59:15  -276.690668c -7.50c -5.58c

Converged after 60 iterations.

Dipole moment: (-12.961279, -4.585660, 0.354044) |e|*Ang

Energy contributions relative to reference atoms: (reference = -13382.245603)

Kinetic:       +167.930430
Potential:     -149.030447
External:        +0.000000
XC:            -296.184847
Entropy (-ST):   -0.162885
Local:           +0.675639
--------------------------
Free energy:   -276.772111
Extrapolated:  -276.690668

Dipole-layer corrected work functions: 3.383446, 2.702851 eV

Showing only first 2 kpts
 Kpt  Band  Eigenvalues  Occupancy
  0    28     -3.29273    1.98650
  0    29     -3.14914    1.78563
  0    30     -2.94280    0.23694
  0    31     -2.81895    0.02232

  1    28     -3.10089    1.52075
  1    29     -3.05210    1.08927
  1    30     -2.98455    0.47298
  1    31     -2.95095    0.27318


Fermi level: -3.04315

Gap: 0.025 eV
Transition (v -> c):
  (s=0, k=1, n=29, [0.12, -0.12, 0.00]) -> (s=0, k=4, n=30, [0.38, -0.38, 0.00])

Forces in eV/Ang:
  0 Li    0.02574   -0.00040   -0.27886
  1 Li   -0.01243    0.00250   -0.26966
  2 Li   -0.01505   -0.00043   -0.27969
  3 Li   -0.00334    0.01306   -0.27644
  4 Li   -0.00143   -0.00663   -0.27460
  5 Li    0.00564    0.02432   -0.27240
  6 Li   -0.00642   -0.01513   -0.27559
  7 Li   -0.00038    0.00380   -0.27352
  8 Li    0.00835   -0.02331   -0.27236
  9 Li   -0.00235    0.00823    0.32125
 10 Li    0.01276    0.00124    0.24942
 11 Li   -0.00826    0.00262    0.28349
 12 Li    0.00009   -0.00942    0.32290
 13 Li    0.01709   -0.00339    0.24868
 14 Li   -0.01349   -0.00318    0.27644
 15 Li   -0.00613    0.00142    0.23359
 16 Li   -0.01053    0.00457    0.26810
 17 Li    0.01526   -0.00194    0.25365
 18 Li    0.04269   -0.00215   -0.09383
 19 Li   -0.00330   -0.00092    0.06016
 20 Li   -0.02158    0.00432   -0.16010
 21 Li   -0.02240   -0.02948    0.05637
 22 Li    0.00974    0.00596    0.03881
 23 Li    0.00967   -0.02127    0.04140
 24 Li   -0.02106    0.03477    0.06370
 25 Li    0.00745   -0.00311    0.03383
 26 Li    0.01222    0.01733    0.05744
 27 Li   -0.01221   -0.03266   -0.05053
 28 Li    0.04753   -0.03906   -0.04410
 29 Li   -0.02505   -0.03642    0.02451
 30 Li   -0.00725    0.02189    0.05489
 31 Li    0.04634    0.03330   -0.03768
 32 Li   -0.04703    0.04044    0.01460
 33 Li   -0.00671    0.02181   -0.01670
 34 Li   -0.02380    0.00133   -0.01076
 35 Li    0.03268    0.01006   -0.01042
 36 O     3.20081   -1.60121   10.14651
 37 C     0.85548    0.15243    2.82241
 38 H     0.20441   -0.16807    0.83496
 39 H    -0.09712   -0.01258    0.17554
 40 H     0.08631    0.12477    0.42761
 41 H     0.04588   -1.39887    2.95808
 42 N     3.01443    2.60091  -10.88903
 43 N    -7.33441    0.35160   -6.46102

System changes: positions 

Initializing position-dependent things.

Density initialized from wave functions
       .-----------------------.  
      /|                       |  
     / |                       |  
    /  |                       |  
   /   |                       |  
  /    |                       |  
 *     |                       |  
 |     |                       |  
 |     |                       |  
 |     |                       |  
 |     |                       |  
 |     |                       |  
 | H   |                       |  
 |CH   |               H       |  
 |     Li      Li      Li      |  
 |O    |                       |  
 |     |     Li      Li  H   Li|  
 |     |  Li      Li   N  Ni   |  
 | Li  |   Li      Li          |  
 |     |Li      Li      Li     |  
 |     |                       |  
 |   LLi     LLi     LLi       |  
 |     |  Li      Li      Li   |  
 | Li  |   Li      Li          |  
 |     |Li      Li      Li     |  
 Li    | Li      Li            |  
 |    Li      Li      Li       |  
 |     |                       |  
 |     |                       |  
 |     |                       |  
 |     |                       |  
 |     |                       |  
 |     |                       |  
 |     .-----------------------.  
 |    /                       /   
 |   /                       /    
 |  /                       /     
 | /                       /      
 |/                       /       
 *-----------------------*        

Positions:
   0 Li     1.617037    1.617037   10.000000    ( 0.0000,  0.0000,  0.0000)
   1 Li     4.851111    1.617037   10.000000    ( 0.0000,  0.0000,  0.0000)
   2 Li     8.085185    1.617037   10.000000    ( 0.0000,  0.0000,  0.0000)
   3 Li     1.617037    4.851111   10.000000    ( 0.0000,  0.0000,  0.0000)
   4 Li     4.851111    4.851111   10.000000    ( 0.0000,  0.0000,  0.0000)
   5 Li     8.085185    4.851111   10.000000    ( 0.0000,  0.0000,  0.0000)
   6 Li     1.617037    8.085185   10.000000    ( 0.0000,  0.0000,  0.0000)
   7 Li     4.851111    8.085185   10.000000    ( 0.0000,  0.0000,  0.0000)
   8 Li     8.085185    8.085185   10.000000    ( 0.0000,  0.0000,  0.0000)
   9 Li     0.000000    0.000000   11.617037    ( 0.0000,  0.0000,  0.0000)
  10 Li     3.234074    0.000000   11.617037    ( 0.0000,  0.0000,  0.0000)
  11 Li     6.468148    0.000000   11.617037    ( 0.0000,  0.0000,  0.0000)
  12 Li     0.000000    3.234074   11.617037    ( 0.0000,  0.0000,  0.0000)
  13 Li     3.234074    3.234074   11.617037    ( 0.0000,  0.0000,  0.0000)
  14 Li     6.468148    3.234074   11.617037    ( 0.0000,  0.0000,  0.0000)
  15 Li     0.000000    6.468148   11.617037    ( 0.0000,  0.0000,  0.0000)
  16 Li     3.234074    6.468148   11.617037    ( 0.0000,  0.0000,  0.0000)
  17 Li     6.468148    6.468148   11.617037    ( 0.0000,  0.0000,  0.0000)
  18 Li     1.618163    1.616971   13.467237    ( 0.0000,  0.0000,  0.0000)
  19 Li     4.851103    1.617023   13.471422    ( 0.0000,  0.0000,  0.0000)
  20 Li     8.084488    1.617149   13.464809    ( 0.0000,  0.0000,  0.0000)
  21 Li     1.616437    4.850333   13.471214    ( 0.0000,  0.0000,  0.0000)
  22 Li     4.851318    4.851314   13.470753    ( 0.0000,  0.0000,  0.0000)
  23 Li     8.085471    4.850462   13.470907    ( 0.0000,  0.0000,  0.0000)
  24 Li     1.616443    8.086120   13.471476    ( 0.0000,  0.0000,  0.0000)
  25 Li     4.851307    8.085052   13.470610    ( 0.0000,  0.0000,  0.0000)
  26 Li     8.085526    8.085747   13.471405    ( 0.0000,  0.0000,  0.0000)
  27 Li     0.000127   -0.001294   15.444567    ( 0.0000,  0.0000,  0.0000)
  28 Li     3.235313   -0.001075   15.444792    ( 0.0000,  0.0000,  0.0000)
  29 Li     6.466889   -0.001354   15.446277    ( 0.0000,  0.0000,  0.0000)
  30 Li     0.000116    3.235089   15.447728    ( 0.0000,  0.0000,  0.0000)
  31 Li     3.235303    3.234983   15.444949    ( 0.0000,  0.0000,  0.0000)
  32 Li     6.466440    3.235517   15.446165    ( 0.0000,  0.0000,  0.0000)
  33 Li    -0.000177    6.468710   15.445302    ( 0.0000,  0.0000,  0.0000)
  34 Li     3.233452    6.468181   15.445615    ( 0.0000,  0.0000,  0.0000)
  35 Li     6.469015    6.468446   15.445617    ( 0.0000,  0.0000,  0.0000)
  36 O      0.031423    1.568179   18.573299    ( 0.0000,  0.0000,  0.0000)
  37 C      0.007136    1.596701   19.942114    ( 0.0000,  0.0000,  0.0000)
  38 H      0.689975    0.845211   20.311864    ( 0.0000,  0.0000,  0.0000)
  39 H     -1.010378    1.423932   20.292218    ( 0.0000,  0.0000,  0.0000)
  40 H      0.331546    2.596300   20.211601    ( 0.0000,  0.0000,  0.0000)
  41 H     -0.279594    0.745129   18.201929    ( 0.0000,  0.0000,  0.0000)
  42 N     -0.026497    1.670670   16.977422    ( 0.0000,  0.0000,  0.0000)
  43 N     -1.135324    1.624949   17.095183    ( 0.0000,  0.0000,  0.0000)

Unit cell:
           periodic     x           y           z      points  spacing
  1. axis:    yes    9.702222    0.000000    0.000000    60     0.1617
  2. axis:    yes    0.000000    9.702222    0.000000    60     0.1617
  3. axis:    no     0.000000    0.000000   26.601111   168     0.1583

  Lengths:   9.702222   9.702222  26.601111
  Angles:   90.000000  90.000000  90.000000

Effective grid spacing dv^(1/3) = 0.1606

     iter     time        total  log10-change:
                         energy  eigst   dens
iter:   1 17:02:26  -277.392790  -0.89
iter:   2 17:05:01  -277.362710  -1.10  -1.73
iter:   3 17:07:43  -277.351320  -1.79  -1.86
iter:   4 17:10:17  -277.351325c -1.98  -2.29
Writing to output.gpw (mode='')

iter:   5 17:12:50  -277.354800c -2.11  -2.32
iter:   6 17:15:19  -277.361029c -1.62  -2.23
iter:   7 17:18:02  -277.399336  -1.47  -1.95
iter:   8 17:20:32  -277.343949  -1.74  -1.70
iter:   9 17:23:10  -277.343185  -2.63  -2.50
Writing to output.gpw (mode='')

iter:  10 17:25:41  -277.342458c -2.41  -2.59
iter:  11 17:28:11  -277.342711c -2.60  -2.59
iter:  12 17:30:45  -277.342865c -2.85  -3.01
iter:  13 17:33:12  -277.342792c -3.39  -3.03
iter:  14 17:35:43  -277.342872c -3.52  -3.05
Writing to output.gpw (mode='')

iter:  15 17:38:16  -277.342975c -3.62  -3.00
iter:  16 17:40:45  -277.343041c -3.83  -3.12
iter:  17 17:43:16  -277.343016c -4.05  -3.12
iter:  18 17:45:44  -277.342811c -4.07  -3.14
iter:  19 17:48:15  -277.342662c -4.38  -3.42
Writing to output.gpw (mode='')

iter:  20 17:50:51  -277.342723c -4.65  -3.45
iter:  21 17:53:25  -277.342714c -4.66  -3.53
iter:  22 17:55:52  -277.342721c -4.73  -3.60
iter:  23 17:58:25  -277.342723c -4.84  -3.70
iter:  24 18:00:58  -277.342692c -4.67  -3.90
Writing to output.gpw (mode='')

iter:  25 18:03:28  -277.342725c -5.26  -3.92
iter:  26 18:05:53  -277.342710c -5.35  -4.03c
iter:  27 18:08:29  -277.342721c -5.41  -4.08c
iter:  28 18:11:02  -277.342716c -5.59  -4.27c
iter:  29 18:13:34  -277.342716c -5.66  -4.43c
Writing to output.gpw (mode='')

iter:  30 18:16:15  -277.342717c -5.79  -4.46c
iter:  31 18:18:43  -277.342713c -5.91  -4.48c
iter:  32 18:21:14  -277.342714c -5.91  -4.62c
iter:  33 18:23:51  -277.342718c -5.98  -4.59c
iter:  34 18:26:25  -277.342719c -6.40  -4.84c
Writing to output.gpw (mode='')

iter:  35 18:29:00  -277.342716c -6.29  -4.99c
iter:  36 18:31:32  -277.342717c -6.55  -5.00c
iter:  37 18:34:05  -277.342715c -6.46  -5.10c
iter:  38 18:36:48  -277.342716c -6.64  -5.38c
iter:  39 18:39:20  -277.342716c -6.69  -5.38c
Writing to output.gpw (mode='')

iter:  40 18:41:53  -277.342715c -6.44  -5.41c
iter:  41 18:44:33  -277.342715c -6.90  -5.43c
iter:  42 18:47:08  -277.342716c -6.79  -5.42c
iter:  43 18:49:44  -277.342716c -7.03  -5.28c
iter:  44 18:52:27  -277.342716c -7.04  -5.33c
Writing to output.gpw (mode='')

iter:  45 18:55:02  -277.342716c -7.10  -5.29c
iter:  46 18:57:41  -277.342716c -7.30  -5.28c
iter:  47 19:00:14  -277.342716c -7.22  -5.26c
iter:  48 19:02:46  -277.342716c -7.19  -5.26c
iter:  49 19:05:20  -277.342716c -7.38  -5.41c
Writing to output.gpw (mode='')

iter:  50 19:07:58  -277.342715c -7.51c -5.34c

Converged after 50 iterations.

Dipole moment: (-12.369866, -4.529782, 0.330171) |e|*Ang

Energy contributions relative to reference atoms: (reference = -13382.245603)

Kinetic:       +166.128897
Potential:     -148.142044
External:        +0.000000
XC:            -295.924742
Entropy (-ST):   -0.163526
Local:           +0.676936
--------------------------
Free energy:   -277.424478
Extrapolated:  -277.342715

Dipole-layer corrected work functions: 3.384800, 2.750097 eV

Showing only first 2 kpts
 Kpt  Band  Eigenvalues  Occupancy
  0    28     -3.31714    1.98653
  0    29     -3.17200    1.78006
  0    30     -2.96824    0.24173
  0    31     -2.84172    0.02166

  1    28     -3.12566    1.52417
  1    29     -3.07511    1.07648
  1    30     -3.00889    0.47328
  1    31     -2.97700    0.28152


Fermi level: -3.06745

Gap: 0.024 eV
Transition (v -> c):
  (s=0, k=1, n=29, [0.12, -0.12, 0.00]) -> (s=0, k=4, n=30, [0.38, -0.38, 0.00])

Forces in eV/Ang:
  0 Li    0.02506   -0.00059   -0.27919
  1 Li   -0.01199    0.00227   -0.26893
  2 Li   -0.01539   -0.00050   -0.27984
  3 Li   -0.00320    0.01341   -0.27659
  4 Li   -0.00115   -0.00629   -0.27473
  5 Li    0.00592    0.02438   -0.27291
  6 Li   -0.00624   -0.01529   -0.27545
  7 Li   -0.00018    0.00365   -0.27402
  8 Li    0.00846   -0.02312   -0.27248
  9 Li   -0.00215    0.00848    0.32141
 10 Li    0.01435    0.00091    0.24991
 11 Li   -0.00905    0.00231    0.28181
 12 Li    0.00051   -0.00997    0.32393
 13 Li    0.01789   -0.00310    0.24955
 14 Li   -0.01401   -0.00267    0.27504
 15 Li   -0.00618    0.00164    0.23320
 16 Li   -0.01179    0.00476    0.26749
 17 Li    0.01550   -0.00211    0.25404
 18 Li    0.04314   -0.00272   -0.09487
 19 Li   -0.00192   -0.00064    0.06077
 20 Li   -0.02449    0.00366   -0.16152
 21 Li   -0.02233   -0.02850    0.05497
 22 Li    0.00849    0.00678    0.03845
 23 Li    0.01005   -0.02179    0.04138
 24 Li   -0.02107    0.03427    0.06293
 25 Li    0.00648   -0.00437    0.03251
 26 Li    0.01236    0.01849    0.05828
 27 Li   -0.00572   -0.04450   -0.06080
 28 Li    0.04641   -0.04037   -0.04279
 29 Li   -0.03374   -0.04018    0.01753
 30 Li    0.00099    0.04514    0.03098
 31 Li    0.04736    0.03446   -0.03702
 32 Li   -0.05486    0.04323    0.00924
 33 Li   -0.00630    0.02150   -0.01800
 34 Li   -0.02323    0.00126   -0.01102
 35 Li    0.03231    0.01031   -0.01058
 36 O     2.82111   -1.29243    9.10646
 37 C     0.76637    0.13037    2.58384
 38 H     0.19681   -0.16936    0.83983
 39 H    -0.06983   -0.02584    0.24129
 40 H     0.07260    0.06326    0.44197
 41 H     0.10351   -1.24749    2.66074
 42 N     2.79999    2.20770  -10.05366
 43 N    -6.68620    0.34478   -5.76596

System changes: positions 

Initializing position-dependent things.

Density initialized from wave functions
       .-----------------------.  
      /|                       |  
     / |                       |  
    /  |                       |  
   /   |                       |  
  /    |                       |  
 *     |                       |  
 |     |                       |  
 |     |                       |  
 |     |                       |  
 |     |                       |  
 |     |                       |  
 | H   |                       |  
 |CH   |               H       |  
 |     Li      Li      Li      |  
 |O    |                       |  
 |     |     Li      Li  H   Li|  
 |     |  Li      Li   N  Ni   |  
 | Li  |   Li      Li          |  
 |     |Li      Li      Li     |  
 |     |                       |  
 |   LLi     LLi     LLi       |  
 |     |  Li      Li      Li   |  
 | Li  |   Li      Li          |  
 |     |Li      Li      Li     |  
 Li    | Li      Li            |  
 |    Li      Li      Li       |  
 |     |                       |  
 |     |                       |  
 |     |                       |  
 |     |                       |  
 |     |                       |  
 |     |                       |  
 |     .-----------------------.  
 |    /                       /   
 |   /                       /    
 |  /                       /     
 | /                       /      
 |/                       /       
 *-----------------------*        

Positions:
   0 Li     1.617037    1.617037   10.000000    ( 0.0000,  0.0000,  0.0000)
   1 Li     4.851111    1.617037   10.000000    ( 0.0000,  0.0000,  0.0000)
   2 Li     8.085185    1.617037   10.000000    ( 0.0000,  0.0000,  0.0000)
   3 Li     1.617037    4.851111   10.000000    ( 0.0000,  0.0000,  0.0000)
   4 Li     4.851111    4.851111   10.000000    ( 0.0000,  0.0000,  0.0000)
   5 Li     8.085185    4.851111   10.000000    ( 0.0000,  0.0000,  0.0000)
   6 Li     1.617037    8.085185   10.000000    ( 0.0000,  0.0000,  0.0000)
   7 Li     4.851111    8.085185   10.000000    ( 0.0000,  0.0000,  0.0000)
   8 Li     8.085185    8.085185   10.000000    ( 0.0000,  0.0000,  0.0000)
   9 Li     0.000000    0.000000   11.617037    ( 0.0000,  0.0000,  0.0000)
  10 Li     3.234074    0.000000   11.617037    ( 0.0000,  0.0000,  0.0000)
  11 Li     6.468148    0.000000   11.617037    ( 0.0000,  0.0000,  0.0000)
  12 Li     0.000000    3.234074   11.617037    ( 0.0000,  0.0000,  0.0000)
  13 Li     3.234074    3.234074   11.617037    ( 0.0000,  0.0000,  0.0000)
  14 Li     6.468148    3.234074   11.617037    ( 0.0000,  0.0000,  0.0000)
  15 Li     0.000000    6.468148   11.617037    ( 0.0000,  0.0000,  0.0000)
  16 Li     3.234074    6.468148   11.617037    ( 0.0000,  0.0000,  0.0000)
  17 Li     6.468148    6.468148   11.617037    ( 0.0000,  0.0000,  0.0000)
  18 Li     1.618485    1.616932   13.466542    ( 0.0000,  0.0000,  0.0000)
  19 Li     4.851156    1.617028   13.471932    ( 0.0000,  0.0000,  0.0000)
  20 Li     8.084186    1.617161   13.463335    ( 0.0000,  0.0000,  0.0000)
  21 Li     1.616269    4.850144   13.471600    ( 0.0000,  0.0000,  0.0000)
  22 Li     4.851334    4.851405   13.471026    ( 0.0000,  0.0000,  0.0000)
  23 Li     8.085568    4.850240   13.471267    ( 0.0000,  0.0000,  0.0000)
  24 Li     1.616278    8.086373   13.471950    ( 0.0000,  0.0000,  0.0000)
  25 Li     4.851326    8.084967   13.470810    ( 0.0000,  0.0000,  0.0000)
  26 Li     8.085631    8.085963   13.471939    ( 0.0000,  0.0000,  0.0000)
  27 Li     0.000489   -0.002233   15.443588    ( 0.0000,  0.0000,  0.0000)
[...]
  41 H     -0.159576    1.059614   18.209098    ( 0.0000,  0.0000,  0.0000)
  42 N     -1.137510    1.099091   15.670622    ( 0.0000,  0.0000,  0.0000)
  43 N     -2.037662    1.986875   15.678116    ( 0.0000,  0.0000,  0.0000)

Unit cell:
           periodic     x           y           z      points  spacing
  1. axis:    yes    9.702222    0.000000    0.000000    60     0.1617
  2. axis:    yes    0.000000    9.702222    0.000000    60     0.1617
  3. axis:    no     0.000000    0.000000   26.601111   168     0.1583

  Lengths:   9.702222   9.702222  26.601111
  Angles:   90.000000  90.000000  90.000000

Effective grid spacing dv^(1/3) = 0.1606

     iter     time        total  log10-change:
                         energy  eigst   dens
iter:   1 00:51:12  -284.444913  -1.86
iter:   2 00:53:46  -284.441098  -2.56  -2.22
iter:   3 00:56:26  -284.440255c -3.31  -2.42
iter:   4 00:59:07  -284.440010c -3.62  -2.77
Writing to output.gpw (mode='')

iter:   5 01:02:01  -284.439753c -3.32  -2.88
iter:   6 01:04:36  -284.439759c -3.27  -3.12
iter:   7 01:07:07  -284.439697c -4.05  -3.14
iter:   8 01:09:38  -284.439648c -4.09  -3.30
iter:   9 01:12:13  -284.439631c -4.53  -3.42
Writing to output.gpw (mode='')

iter:  10 01:15:01  -284.439650c -4.72  -3.45
iter:  11 01:17:33  -284.439636c -4.62  -3.69
iter:  12 01:20:10  -284.439645c -5.20  -3.76
iter:  13 01:22:55  -284.439647c -5.46  -3.87
iter:  14 01:25:40  -284.439650c -5.26  -3.89
Writing to output.gpw (mode='')

iter:  15 01:28:30  -284.439649c -5.70  -3.96
iter:  16 01:31:08  -284.439647c -5.41  -3.99
iter:  17 01:33:50  -284.439644c -5.98  -4.06c
iter:  18 01:36:27  -284.439643c -6.03  -4.36c
iter:  19 01:38:59  -284.439644c -6.55  -4.56c
Writing to output.gpw (mode='')

iter:  20 01:41:41  -284.439645c -6.56  -4.64c
iter:  21 01:44:15  -284.439645c -6.65  -4.79c
iter:  22 01:46:51  -284.439645c -7.01  -4.85c
iter:  23 01:49:33  -284.439645c -7.27  -4.88c
iter:  24 01:52:18  -284.439645c -7.33  -4.95c
Writing to output.gpw (mode='')

iter:  25 01:55:07  -284.439645c -7.62c -4.99c

Converged after 25 iterations.

Dipole moment: (-21.764325, -2.261780, 0.208146) |e|*Ang

Energy contributions relative to reference atoms: (reference = -13382.245603)

Kinetic:       +127.299140
Potential:     -119.332706
External:        +0.000000
XC:            -293.058384
Entropy (-ST):   -0.163681
Local:           +0.734146
--------------------------
Free energy:   -284.521485
Extrapolated:  -284.439645

Dipole-layer corrected work functions: 3.394032, 2.993905 eV

Showing only first 2 kpts
 Kpt  Band  Eigenvalues  Occupancy
  0    28     -3.37302    1.94581
  0    29     -3.21674    1.22388
  0    30     -3.18012    0.86238
  0    31     -3.08539    0.20465

  1    28     -3.49455    1.99511
  1    29     -3.16032    0.67571
  1    30     -3.09062    0.22470
  1    31     -3.07806    0.17925


Fermi level: -3.19397

No gap

Forces in eV/Ang:
  0 Li   -0.00865   -0.00884   -0.29060
  1 Li    0.00307    0.01217   -0.29189
  2 Li    0.00128    0.00287   -0.25766
  3 Li    0.01413    0.01692   -0.28519
  4 Li   -0.01071    0.00989   -0.29144
  5 Li   -0.00760   -0.00323   -0.28973
  6 Li    0.00510   -0.00709   -0.29444
  7 Li   -0.01463   -0.01167   -0.28203
  8 Li    0.01125    0.00563   -0.29569
  9 Li   -0.02750    0.03228    0.35637
 10 Li   -0.00274    0.00210    0.29454
 11 Li    0.06615    0.03988    0.33003
 12 Li   -0.02155   -0.03818    0.25898
 13 Li   -0.03185   -0.01086    0.28802
 14 Li    0.05029   -0.03812    0.37210
 15 Li    0.00882   -0.03247    0.27669
 16 Li   -0.01074   -0.00570    0.29918
 17 Li    0.01519   -0.01431    0.30899
 18 Li   -0.01634    0.01239    0.00404
 19 Li    0.03190    0.01361    0.03102
 20 Li   -0.00487   -0.01659    0.00916
 21 Li    0.00278   -0.00238   -0.00295
 22 Li    0.02369   -0.01297    0.00916
 23 Li   -0.01639   -0.02329    0.00340
 24 Li    0.02081   -0.02007   -0.03750
 25 Li   -0.00254   -0.00324   -0.01547
 26 Li   -0.02131    0.04493    0.01428
 27 Li   -0.00159    0.00387   -0.03439
 28 Li   -0.00890    0.00347   -0.01368
 29 Li    0.00432    0.00714    0.02898
 30 Li    0.01098   -0.04180    0.02241
 31 Li    0.02273   -0.00641   -0.01474
 32 Li   -0.00273   -0.00170    0.01913
 33 Li   -0.00544   -0.00216   -0.01774
 34 Li    0.00063    0.00322    0.00576
 35 Li    0.00822   -0.00176   -0.01139
 36 O    -0.06492   -0.01466   -0.11520
 37 C     0.00614    0.01054    0.02614
 38 H    -0.04942    0.05047   -0.02403
 39 H     0.03232    0.00924   -0.03857
 40 H     0.02832   -0.02327   -0.03088
 41 H     0.02269    0.04894   -0.00283
 42 N    -0.08349    0.03615   -0.00674
 43 N     0.05240   -0.02640   -0.01983

System changes: positions 

Initializing position-dependent things.

Density initialized from wave functions
       .-----------------------.  
      /|                       |  
     / |                       |  
    /  |                       |  
   /   |                       |  
  /    |                       |  
 *     |                       |  
 |     |                       |  
 |     |                       |  
 |     |                       |  
 |     |                       |  
 |     |                       |  
 |  H  |                       |  
 |CH   |                H      |  
 |     Li      Li              |  
 | O   |                       |  
 |   Li|     Li      Li  H     |  
 |     |  Li      Li      Li   |  
 |     |   Li      LiN         |  
 |     |Li      Li     NLi     |  
 |     |          Li           |  
 |   LLi     LLi     LLi       |  
 |     |  Li      Li      Li   |  
 | Li  |   Li      Li          |  
 |     |Li      Li      Li     |  
 Li    | Li      Li            |  
 |    Li      Li      Li       |  
 |     |                       |  
 |     |                       |  
 |     |                       |  
 |     |                       |  
 |     |                       |  
 |     |                       |  
 |     .-----------------------.  
 |    /                       /   
 |   /                       /    
 |  /                       /     
 | /                       /      
 |/                       /       
 *-----------------------*        

Positions:
   0 Li     1.617037    1.617037   10.000000    ( 0.0000,  0.0000,  0.0000)
   1 Li     4.851111    1.617037   10.000000    ( 0.0000,  0.0000,  0.0000)
   2 Li     8.085185    1.617037   10.000000    ( 0.0000,  0.0000,  0.0000)
   3 Li     1.617037    4.851111   10.000000    ( 0.0000,  0.0000,  0.0000)
   4 Li     4.851111    4.851111   10.000000    ( 0.0000,  0.0000,  0.0000)
   5 Li     8.085185    4.851111   10.000000    ( 0.0000,  0.0000,  0.0000)
   6 Li     1.617037    8.085185   10.000000    ( 0.0000,  0.0000,  0.0000)
   7 Li     4.851111    8.085185   10.000000    ( 0.0000,  0.0000,  0.0000)
   8 Li     8.085185    8.085185   10.000000    ( 0.0000,  0.0000,  0.0000)
   9 Li     0.000000    0.000000   11.617037    ( 0.0000,  0.0000,  0.0000)
  10 Li     3.234074    0.000000   11.617037    ( 0.0000,  0.0000,  0.0000)
  11 Li     6.468148    0.000000   11.617037    ( 0.0000,  0.0000,  0.0000)
  12 Li     0.000000    3.234074   11.617037    ( 0.0000,  0.0000,  0.0000)
  13 Li     3.234074    3.234074   11.617037    ( 0.0000,  0.0000,  0.0000)
  14 Li     6.468148    3.234074   11.617037    ( 0.0000,  0.0000,  0.0000)
  15 Li     0.000000    6.468148   11.617037    ( 0.0000,  0.0000,  0.0000)
  16 Li     3.234074    6.468148   11.617037    ( 0.0000,  0.0000,  0.0000)
  17 Li     6.468148    6.468148   11.617037    ( 0.0000,  0.0000,  0.0000)
  18 Li     1.619767    1.579389   13.546064    ( 0.0000,  0.0000,  0.0000)
  19 Li     4.820113    1.641475   13.496720    ( 0.0000,  0.0000,  0.0000)
  20 Li     8.174507    1.650766   13.655595    ( 0.0000,  0.0000,  0.0000)
  21 Li     1.537902    4.789267   13.532191    ( 0.0000,  0.0000,  0.0000)
  22 Li     4.792259    4.870045   13.515723    ( 0.0000,  0.0000,  0.0000)
  23 Li     8.078544    4.832180   13.547990    ( 0.0000,  0.0000,  0.0000)
  24 Li     1.660807    8.043408   13.516149    ( 0.0000,  0.0000,  0.0000)
  25 Li     4.913676    8.126690   13.516453    ( 0.0000,  0.0000,  0.0000)
  26 Li     8.157761    8.016415   13.505233    ( 0.0000,  0.0000,  0.0000)
  27 Li     0.138386   -0.202765   15.493205    ( 0.0000,  0.0000,  0.0000)
  28 Li     3.391701   -0.055922   15.496140    ( 0.0000,  0.0000,  0.0000)
  29 Li     6.743939    0.166323   15.507654    ( 0.0000,  0.0000,  0.0000)
  30 Li    -0.264293    2.918083   15.944826    ( 0.0000,  0.0000,  0.0000)
  31 Li     3.059660    3.312197   15.519385    ( 0.0000,  0.0000,  0.0000)
  32 Li     6.352541    3.284283   15.513977    ( 0.0000,  0.0000,  0.0000)
  33 Li     0.067502    6.301119   15.532740    ( 0.0000,  0.0000,  0.0000)
  34 Li     3.218111    6.487453   15.475943    ( 0.0000,  0.0000,  0.0000)
  35 Li     6.408095    6.553036   15.470541    ( 0.0000,  0.0000,  0.0000)
  36 O      0.161682    1.852592   18.618083    ( 0.0000,  0.0000,  0.0000)
  37 C      0.089690    1.652740   20.037154    ( 0.0000,  0.0000,  0.0000)
  38 H      0.789484    0.873918   20.366051    ( 0.0000,  0.0000,  0.0000)
  39 H     -0.926133    1.393061   20.356719    ( 0.0000,  0.0000,  0.0000)
  40 H      0.386459    2.589236   20.509610    ( 0.0000,  0.0000,  0.0000)
  41 H     -0.169733    1.053889   18.178420    ( 0.0000,  0.0000,  0.0000)
  42 N     -1.148084    1.092072   15.673306    ( 0.0000,  0.0000,  0.0000)
  43 N     -2.049831    1.985294   15.695584    ( 0.0000,  0.0000,  0.0000)

Unit cell:
           periodic     x           y           z      points  spacing
  1. axis:    yes    9.702222    0.000000    0.000000    60     0.1617
  2. axis:    yes    0.000000    9.702222    0.000000    60     0.1617
  3. axis:    no     0.000000    0.000000   26.601111   168     0.1583

  Lengths:   9.702222   9.702222  26.601111
  Angles:   90.000000  90.000000  90.000000

Effective grid spacing dv^(1/3) = 0.1606

     iter     time        total  log10-change:
                         energy  eigst   dens
iter:   1 01:58:17  -284.481582  -0.66
iter:   2 02:00:59  -284.459425  -1.47  -1.79
iter:   3 02:03:41  -284.453391c -2.12  -1.95
iter:   4 02:06:17  -284.449601c -2.43  -2.19
Writing to output.gpw (mode='')

iter:   5 02:08:54  -284.444957c -2.19  -2.30
iter:   6 02:11:23  -284.443840c -2.03  -2.47
iter:   7 02:14:00  -284.443430c -2.79  -2.56
iter:   8 02:16:52  -284.443198c -2.84  -2.65
iter:   9 02:19:34  -284.443042c -3.47  -2.83
Writing to output.gpw (mode='')

iter:  10 02:22:14  -284.443001c -3.34  -2.97
iter:  11 02:24:53  -284.443076c -3.79  -3.18
iter:  12 02:27:32  -284.443008c -3.88  -3.26
iter:  13 02:30:06  -284.443019c -4.47  -3.26
iter:  14 02:32:45  -284.442990c -4.22  -3.37
Writing to output.gpw (mode='')

iter:  15 02:35:25  -284.443014c -4.40  -3.40
iter:  16 02:38:03  -284.443008c -4.92  -3.57
iter:  17 02:40:41  -284.443004c -4.63  -3.62
iter:  18 02:43:31  -284.443012c -5.09  -3.77
iter:  19 02:46:04  -284.443010c -5.52  -3.83
Writing to output.gpw (mode='')

iter:  20 02:48:39  -284.443007c -5.43  -4.09c
iter:  21 02:51:26  -284.443008c -5.84  -4.16c
iter:  22 02:54:20  -284.443007c -5.88  -4.24c
iter:  23 02:57:01  -284.443007c -6.08  -4.33c
iter:  24 02:59:41  -284.443007c -6.24  -4.41c
Writing to output.gpw (mode='')

iter:  25 03:02:23  -284.443007c -6.29  -4.56c
iter:  26 03:05:01  -284.443007c -6.45  -4.64c
iter:  27 03:07:35  -284.443007c -6.58  -4.67c
iter:  28 03:10:07  -284.443007c -6.79  -4.95c
iter:  29 03:12:35  -284.443007c -6.96  -5.05c
Writing to output.gpw (mode='')

iter:  30 03:15:11  -284.443007c -7.11  -5.12c
iter:  31 03:17:54  -284.443007c -7.20  -5.11c
iter:  32 03:20:22  -284.443007c -7.31  -5.07c
iter:  33 03:23:04  -284.443007c -7.38  -5.06c
iter:  34 03:25:43  -284.443007c -7.40c -5.06c

Converged after 34 iterations.

Dipole moment: (-21.294304, -2.149709, 0.207909) |e|*Ang

Energy contributions relative to reference atoms: (reference = -13382.245603)

Kinetic:       +126.679493
Potential:     -118.855052
External:        +0.000000
XC:            -292.919201
Entropy (-ST):   -0.163398
Local:           +0.733452
--------------------------
Free energy:   -284.524706
Extrapolated:  -284.443007

Dipole-layer corrected work functions: 3.393712, 2.994040 eV

Showing only first 2 kpts
 Kpt  Band  Eigenvalues  Occupancy
  0    28     -3.37327    1.94618
  0    29     -3.21608    1.21849
  0    30     -3.17956    0.85778
  0    31     -3.08455    0.20192

  1    28     -3.49534    1.99520
  1    29     -3.16007    0.67422
  1    30     -3.09127    0.22768
  1    31     -3.07640    0.17422


Fermi level: -3.19388

No gap
Writing to output.gpw (mode='')


Forces in eV/Ang:
  0 Li   -0.00810   -0.00919   -0.29028
  1 Li    0.00284    0.01294   -0.29185
  2 Li    0.00144    0.00305   -0.25722
  3 Li    0.01411    0.01722   -0.28506
  4 Li   -0.01032    0.01017   -0.29118
  5 Li   -0.00787   -0.00279   -0.28938
  6 Li    0.00567   -0.00723   -0.29339
  7 Li   -0.01501   -0.01126   -0.28239
  8 Li    0.01113    0.00544   -0.29577
  9 Li   -0.02760    0.03109    0.35727
 10 Li   -0.00099    0.00028    0.29241
 11 Li    0.06383    0.03745    0.33327
 12 Li   -0.02078   -0.03573    0.25966
 13 Li   -0.03105   -0.00787    0.28605
 14 Li    0.04968   -0.03985    0.37328
 15 Li    0.00984   -0.03061    0.27122
 16 Li   -0.00619   -0.01139    0.29564
 17 Li    0.01213   -0.01898    0.30669
 18 Li   -0.01881    0.00945    0.00703
 19 Li    0.04113    0.01738    0.03430
 20 Li   -0.02364   -0.01154    0.05108
 21 Li    0.00407   -0.01134   -0.00019
 22 Li    0.01294   -0.00088    0.00198
 23 Li   -0.01694   -0.02902    0.00611
 24 Li    0.01238   -0.01788   -0.02860
 25 Li   -0.00269    0.00179   -0.01462
 26 Li   -0.01793    0.04829    0.01613
 27 Li   -0.00556    0.00462   -0.04447
 28 Li   -0.00473    0.00350   -0.01579
 29 Li    0.00405    0.03911    0.03904
 30 Li    0.02343   -0.02686    0.04551
 31 Li    0.01701   -0.00624   -0.01544
 32 Li    0.03154   -0.04957    0.02759
 33 Li   -0.00720   -0.00827   -0.01969
 34 Li    0.00735    0.00043   -0.00177
 35 Li    0.00526    0.01017   -0.01135
 36 O    -0.06224    0.00668   -0.11894
 37 C     0.08476   -0.03618   -0.02805
 38 H    -0.08355   -0.00109   -0.02901
 39 H     0.06560    0.02273    0.00997
 40 H    -0.06251    0.01754   -0.07149
 41 H     0.04354    0.12037    0.05222
 42 N    -0.28960    0.26206    0.01122
 43 N     0.19917   -0.24075   -0.14425

System changes: positions 

Initializing position-dependent things.

Density initialized from wave functions
       .-----------------------.  
      /|                       |  
     / |                       |  
    /  |                       |  
   /   |                       |  
  /    |                       |  
 *     |                       |  
 |     |                       |  
 |     |                       |  
 |     |                       |  
 |     |                       |  
 |     |                       |  
 |  H  |                       |  
 |CH   |                H      |  
 |     Li      Li              |  
 | O   |                       |  
 |   Li|     Li      Li  H     |  
 |     |  Li      Li      Li   |  
 |     |   Li      LiN         |  
 |     |Li      Li     NLi     |  
 |     |          Li           |  
 |   LLi     LLi     LLi       |  
 |     |  Li      Li      Li   |  
 | Li  |   Li      Li          |  
 |     |Li      Li      Li     |  
 Li    | Li      Li            |  
 |    Li      Li      Li       |  
 |     |                       |  
 |     |                       |  
 |     |                       |  
 |     |                       |  
 |     |                       |  
 |     |                       |  
 |     .-----------------------.  
 |    /                       /   
 |   /                       /    
 |  /                       /     
 | /                       /      
 |/                       /       
 *-----------------------*        

Positions:
   0 Li     1.617037    1.617037   10.000000    ( 0.0000,  0.0000,  0.0000)
   1 Li     4.851111    1.617037   10.000000    ( 0.0000,  0.0000,  0.0000)
   2 Li     8.085185    1.617037   10.000000    ( 0.0000,  0.0000,  0.0000)
   3 Li     1.617037    4.851111   10.000000    ( 0.0000,  0.0000,  0.0000)
   4 Li     4.851111    4.851111   10.000000    ( 0.0000,  0.0000,  0.0000)
   5 Li     8.085185    4.851111   10.000000    ( 0.0000,  0.0000,  0.0000)
   6 Li     1.617037    8.085185   10.000000    ( 0.0000,  0.0000,  0.0000)
   7 Li     4.851111    8.085185   10.000000    ( 0.0000,  0.0000,  0.0000)
   8 Li     8.085185    8.085185   10.000000    ( 0.0000,  0.0000,  0.0000)
   9 Li     0.000000    0.000000   11.617037    ( 0.0000,  0.0000,  0.0000)
  10 Li     3.234074    0.000000   11.617037    ( 0.0000,  0.0000,  0.0000)
  11 Li     6.468148    0.000000   11.617037    ( 0.0000,  0.0000,  0.0000)
  12 Li     0.000000    3.234074   11.617037    ( 0.0000,  0.0000,  0.0000)
  13 Li     3.234074    3.234074   11.617037    ( 0.0000,  0.0000,  0.0000)
  14 Li     6.468148    3.234074   11.617037    ( 0.0000,  0.0000,  0.0000)
  15 Li     0.000000    6.468148   11.617037    ( 0.0000,  0.0000,  0.0000)
  16 Li     3.234074    6.468148   11.617037    ( 0.0000,  0.0000,  0.0000)
  17 Li     6.468148    6.468148   11.617037    ( 0.0000,  0.0000,  0.0000)
  18 Li     1.617139    1.580990   13.547845    ( 0.0000,  0.0000,  0.0000)
  19 Li     4.823620    1.642693   13.501260    ( 0.0000,  0.0000,  0.0000)
  20 Li     8.175559    1.649481   13.649974    ( 0.0000,  0.0000,  0.0000)
  21 Li     1.536242    4.787741   13.533122    ( 0.0000,  0.0000,  0.0000)
  22 Li     4.794837    4.868179   13.517122    ( 0.0000,  0.0000,  0.0000)
  23 Li     8.077279    4.828783   13.550226    ( 0.0000,  0.0000,  0.0000)
  24 Li     1.663069    8.041636   13.513073    ( 0.0000,  0.0000,  0.0000)
  25 Li     4.914105    8.127259   13.514930    ( 0.0000,  0.0000,  0.0000)
  26 Li     8.156654    8.022155   13.508187    ( 0.0000,  0.0000,  0.0000)
  27 Li     0.135939   -0.200395   15.492109    ( 0.0000,  0.0000,  0.0000)
  28 Li     3.392197   -0.056448   15.494969    ( 0.0000,  0.0000,  0.0000)
  29 Li     6.741565    0.165159   15.514201    ( 0.0000,  0.0000,  0.0000)
  30 Li    -0.264611    2.908748   15.955290    ( 0.0000,  0.0000,  0.0000)
  31 Li     3.059687    3.312563   15.518307    ( 0.0000,  0.0000,  0.0000)
  32 Li     6.349180    3.282751   15.515739    ( 0.0000,  0.0000,  0.0000)
  33 Li     0.067329    6.298356   15.531573    ( 0.0000,  0.0000,  0.0000)
  34 Li     3.218278    6.488156   15.477917    ( 0.0000,  0.0000,  0.0000)
  35 Li     6.408545    6.554066   15.469396    ( 0.0000,  0.0000,  0.0000)
  36 O      0.160352    1.856646   18.612508    ( 0.0000,  0.0000,  0.0000)
  37 C      0.090085    1.654453   20.031396    ( 0.0000,  0.0000,  0.0000)
  38 H      0.790904    0.876275   20.356912    ( 0.0000,  0.0000,  0.0000)
  39 H     -0.925943    1.395468   20.350165    ( 0.0000,  0.0000,  0.0000)
  40 H      0.388092    2.589359   20.504972    ( 0.0000,  0.0000,  0.0000)
  41 H     -0.171436    1.056900   18.173196    ( 0.0000,  0.0000,  0.0000)
  42 N     -1.155694    1.090531   15.664258    ( 0.0000,  0.0000,  0.0000)
  43 N     -2.055229    1.985475   15.686858    ( 0.0000,  0.0000,  0.0000)

Unit cell:
           periodic     x           y           z      points  spacing
  1. axis:    yes    9.702222    0.000000    0.000000    60     0.1617
  2. axis:    yes    0.000000    9.702222    0.000000    60     0.1617
  3. axis:    no     0.000000    0.000000   26.601111   168     0.1583

  Lengths:   9.702222   9.702222  26.601111
  Angles:   90.000000  90.000000  90.000000

Effective grid spacing dv^(1/3) = 0.1606

     iter     time        total  log10-change:
                         energy  eigst   dens
iter:   1 03:29:05  -284.450010  -1.70
