
  ___ ___ ___ _ _ _  
 |   |   |_  | | | | 
 | | | | | . | | | | 
 |__ |  _|___|_____|  22.8.0
 |___|_|             

User:   vazumah@d021
Date:   Wed Mar  8 10:08:27 2023
Arch:   x86_64
Pid:    43377
CWD:    /home/vazumah/Research_Projects/LiMEAS/LiNRR_proton_donors/on_pure_surface/Li_BCC100/adsorbates/CH3CH2OH_y/bridge/8.085_1.617
Python: 3.10.6
gpaw:   /home/vazumah/anaconda3/envs/NAME/lib/python3.10/site-packages/gpaw
_gpaw:  /home/vazumah/anaconda3/envs/NAME/lib/python3.10/site-packages/
        _gpaw.cpython-310-x86_64-linux-gnu.so
ase:    /home/vazumah/anaconda3/envs/NAME/lib/python3.10/site-packages/ase (version 3.22.1)
numpy:  /home/vazumah/anaconda3/envs/NAME/lib/python3.10/site-packages/numpy (version 1.23.3)
scipy:  /home/vazumah/anaconda3/envs/NAME/lib/python3.10/site-packages/scipy (version 1.9.1)
libxc:  5.2.3
units:  Angstrom and eV
cores: 32
OpenMP: True
OMP_NUM_THREADS: 1

Reading from output.gpw
Reading input parameters:
  h: 0.16
  kpts: {size: [4, 4, 1]}
  occupations: {name: fermi-dirac,
                width: 0.05}
  poissonsolver: {dipolelayer: xy}
  xc: BEEF-vdW

Initialize ...

species:
  Li:
    name: Lithium
    id: 830b4218f175192f93f959cfc0aad614
    Z: 3.0
    valence: 1
    core: 2
    charge: 0.0
    file: /home/vazumah/anaconda3/envs/NAME/share/gpaw/Li.PBE.gz
    compensation charges: {type: gauss,
                           rc: 0.33,
                           lmax: 2}
    cutoffs: {filter: 1.91,
              core: 2.55}
    valence states:
      #              energy  rcut
      - 2s(1.00)    -2.874   1.058
      - 2p(0.00)    -1.090   1.058
      -  s          24.337   1.058
  
    # Using partial waves for Li as LCAO basis

  O:
    name: Oxygen
    id: 32ecd46bf208036f09c70b0ec9a88b78
    Z: 8.0
    valence: 6
    core: 2
    charge: 0.0
    file: /home/vazumah/anaconda3/envs/NAME/share/gpaw/O.PBE.gz
    compensation charges: {type: gauss,
                           rc: 0.21,
                           lmax: 2}
    cutoffs: {filter: 1.17,
              core: 0.83}
    valence states:
      #              energy  rcut
      - 2s(2.00)   -23.961   0.688
      - 2p(4.00)    -9.029   0.598
      -  s           3.251   0.688
      -  p          18.182   0.598
      -  d           0.000   0.619
  
    # Using partial waves for O as LCAO basis

  C:
    name: Carbon
    id: 4aa54d4b901d75f77cc0ea3eec22967b
    Z: 6.0
    valence: 4
    core: 2
    charge: 0.0
    file: /home/vazumah/anaconda3/envs/NAME/share/gpaw/C.PBE.gz
    compensation charges: {type: gauss,
                           rc: 0.20,
                           lmax: 2}
    cutoffs: {filter: 1.14,
              core: 1.14}
    valence states:
      #              energy  rcut
      - 2s(2.00)   -13.751   0.635
      - 2p(2.00)    -5.284   0.635
      -  s          13.461   0.635
      -  p          21.927   0.635
      -  d           0.000   0.635
  
    # Using partial waves for C as LCAO basis

  H:
    name: Hydrogen
    id: d65de229564ff8ea4db303e23b6d1ecf
    Z: 1.0
    valence: 1
    core: 0
    charge: 0.0
    file: /home/vazumah/anaconda3/envs/NAME/share/gpaw/H.PBE.gz
    compensation charges: {type: gauss,
                           rc: 0.15,
                           lmax: 2}
    cutoffs: {filter: 0.85,
              core: 0.53}
    valence states:
      #              energy  rcut
      - 1s(1.00)    -6.494   0.476
      -  s          20.717   0.476
      -  p           0.000   0.476
  
    # Using partial waves for H as LCAO basis

Reference energy: -11471.411034  # eV

Spin-paired calculation

Convergence criteria:
 Maximum [total energy] change in last 3 cyles: 0.0005 eV / electron
 Maximum integral of absolute [dens]ity change: 0.0001 electrons / valence electron
 Maximum integral of absolute [eigenst]ate change: 4e-08 eV^2 / valence electron
 Maximum number of scf [iter]ations: 333
 (Square brackets indicate name in SCF output, whereas a 'c' in
 the SCF output indicates the quantity has converged.)

Symmetries present (total): 1

  ( 1  0  0)
  ( 0  1  0)
  ( 0  0  1)

16 k-points: 4 x 4 x 1 Monkhorst-Pack grid
8 k-points in the irreducible part of the Brillouin zone
       k-points in crystal coordinates                weights
   0:     0.12500000   -0.37500000    0.00000000          2/16
   1:     0.12500000   -0.12500000    0.00000000          2/16
   2:     0.12500000    0.12500000    0.00000000          2/16
   3:     0.12500000    0.37500000    0.00000000          2/16
   4:     0.37500000   -0.37500000    0.00000000          2/16
   5:     0.37500000   -0.12500000    0.00000000          2/16
   6:     0.37500000    0.12500000    0.00000000          2/16
   7:     0.37500000    0.37500000    0.00000000          2/16

Wave functions: Uniform real-space grid
  Kinetic energy operator: 6*3+1=19 point O(h^6) finite-difference Laplacian
  ScaLapack parameters: grid=1x1, blocksize=None
  Wavefunction extrapolation:
    Improved wavefunction reuse through dual PAW basis 

Occupation numbers: Fermi-Dirac:
  width: 0.0500  # eV
 

Eigensolver
   Davidson(niter=2) 

Densities:
  Coarse grid: 60*60*156 grid
  Fine grid: 120*120*312 grid
  Total Charge: 0.000000 

Density mixing:
  Method: separate
  Backend: pulay
  Linear mixing parameter: 0.05
  old densities: 5
  Damping of long wavelength oscillations: 50 

Hamiltonian:
  XC and Coulomb potentials evaluated on a 120*120*312 grid
  Using the BEEF-vdW Exchange-Correlation functional
  Interpolation: tri-quintic (5. degree polynomial)
  Poisson solver: FastPoissonSolver using
    Stencil: 6*3+1=19 point O(h^6) finite-difference Laplacian
    FFT axes: [0, 1]
    FST axes: [2]

Dipole correction along z-axis 

XC parameters: BEEF-vdW with 2 nearest neighbor stencil

Memory estimate:
  Process memory now: 214.94 MiB
  Calculator: 281.63 MiB
    Density: 87.85 MiB
      Arrays: 27.47 MiB
      Localized functions: 49.94 MiB
      Mixer: 10.44 MiB
    Hamiltonian: 21.91 MiB
      Arrays: 17.96 MiB
      XC: 0.00 MiB
      Poisson: 0.00 MiB
      vbar: 3.94 MiB
    Wavefunctions: 171.87 MiB
      Arrays psit_nG: 79.32 MiB
      Eigensolver: 89.98 MiB
      Projections: 0.04 MiB
      Projectors: 2.54 MiB

Total number of cores used: 32
Parallelization over k-points: 8
Domain decomposition: 1 x 1 x 4

Number of atoms: 45
Number of atomic orbitals: 162
Number of bands in calculation: 38
Number of valence electrons: 56
Bands to converge: occupied

... initialized

Initializing position-dependent things.

Creating initial wave functions:
  38 bands from LCAO basis set

       .-----------------------.  
      /|                       |  
     / |                       |  
    /  |                       |  
   /   |                       |  
  /    |                       |  
 *     |                       |  
 |     |                       |  
 |     |                       |  
 |     |                  H    |  
 |     |             H C       |  
 |     |               H H     |  
 |     |                C      |  
 |     |           H O    H    |  
 |   Li|     Li      Li        |  
 |     |  Li      Li      Li   |  
 | Li  |   Li      Li          |  
 |     |Li      Li      Li     |  
 Li    | Li      Li            |  
 |   LLi     LLi     LLi       |  
 |     |  Li      Li      Li   |  
 | Li  |   Li      Li          |  
 |     |Li      Li      Li     |  
 Li    | Li      Li            |  
 |    Li      Li      Li       |  
 |     |                       |  
 |     |                       |  
 |     |                       |  
 |     |                       |  
 |     |                       |  
 |     |                       |  
 |     .-----------------------.  
 |    /                       /   
 |   /                       /    
 |  /                       /     
 | /                       /      
 |/                       /       
 *-----------------------*        

Positions:
   0 Li     1.617037    1.617037   10.000000    ( 0.0000,  0.0000,  0.0000)
   1 Li     4.851111    1.617037   10.000000    ( 0.0000,  0.0000,  0.0000)
   2 Li     8.085185    1.617037   10.000000    ( 0.0000,  0.0000,  0.0000)
   3 Li     1.617037    4.851111   10.000000    ( 0.0000,  0.0000,  0.0000)
   4 Li     4.851111    4.851111   10.000000    ( 0.0000,  0.0000,  0.0000)
   5 Li     8.085185    4.851111   10.000000    ( 0.0000,  0.0000,  0.0000)
   6 Li     1.617037    8.085185   10.000000    ( 0.0000,  0.0000,  0.0000)
   7 Li     4.851111    8.085185   10.000000    ( 0.0000,  0.0000,  0.0000)
   8 Li     8.085185    8.085185   10.000000    ( 0.0000,  0.0000,  0.0000)
   9 Li     0.000000    0.000000   11.617037    ( 0.0000,  0.0000,  0.0000)
  10 Li     3.234074    0.000000   11.617037    ( 0.0000,  0.0000,  0.0000)
  11 Li     6.468148    0.000000   11.617037    ( 0.0000,  0.0000,  0.0000)
  12 Li     0.000000    3.234074   11.617037    ( 0.0000,  0.0000,  0.0000)
  13 Li     3.234074    3.234074   11.617037    ( 0.0000,  0.0000,  0.0000)
  14 Li     6.468148    3.234074   11.617037    ( 0.0000,  0.0000,  0.0000)
  15 Li     0.000000    6.468148   11.617037    ( 0.0000,  0.0000,  0.0000)
  16 Li     3.234074    6.468148   11.617037    ( 0.0000,  0.0000,  0.0000)
  17 Li     6.468148    6.468148   11.617037    ( 0.0000,  0.0000,  0.0000)
  18 Li     1.648890    1.602249   13.479109    ( 0.0000,  0.0000,  0.0000)
  19 Li     4.866945    1.633011   13.501787    ( 0.0000,  0.0000,  0.0000)
  20 Li     8.084941    1.612249   13.501165    ( 0.0000,  0.0000,  0.0000)
  21 Li     1.645298    4.867045   13.483293    ( 0.0000,  0.0000,  0.0000)
  22 Li     4.865050    4.838577   13.515609    ( 0.0000,  0.0000,  0.0000)
  23 Li     8.061654    4.861377   13.538899    ( 0.0000,  0.0000,  0.0000)
  24 Li     1.635953    8.095462   13.469777    ( 0.0000,  0.0000,  0.0000)
  25 Li     4.847875    8.091701   13.472373    ( 0.0000,  0.0000,  0.0000)
  26 Li     8.090306    8.108200   13.489725    ( 0.0000,  0.0000,  0.0000)
  27 Li     0.053284    0.011087   15.455366    ( 0.0000,  0.0000,  0.0000)
  28 Li     3.267152    0.007696   15.437174    ( 0.0000,  0.0000,  0.0000)
  29 Li     6.490352    0.003378   15.473517    ( 0.0000,  0.0000,  0.0000)
  30 Li     0.093816    3.264708   15.340829    ( 0.0000,  0.0000,  0.0000)
  31 Li     3.236490    3.225729   15.460633    ( 0.0000,  0.0000,  0.0000)
  32 Li     6.496736    3.210645   15.583415    ( 0.0000,  0.0000,  0.0000)
  33 Li     0.010186    6.472464   15.440438    ( 0.0000,  0.0000,  0.0000)
  34 Li     3.227534    6.479972   15.452599    ( 0.0000,  0.0000,  0.0000)
  35 Li     6.460555    6.500136   15.453950    ( 0.0000,  0.0000,  0.0000)
  36 O      7.766871    1.796195   18.147567    ( 0.0000,  0.0000,  0.0000)
  37 C      8.689462    2.636568   18.881089    ( 0.0000,  0.0000,  0.0000)
  38 C      8.086430    3.962056   19.322084    ( 0.0000,  0.0000,  0.0000)
  39 H      9.109586    2.084091   19.733889    ( 0.0000,  0.0000,  0.0000)
  40 H      9.508465    2.820409   18.180490    ( 0.0000,  0.0000,  0.0000)
  41 H      8.850162    4.565154   19.820681    ( 0.0000,  0.0000,  0.0000)
  42 H      7.725272    4.535026   18.464748    ( 0.0000,  0.0000,  0.0000)
  43 H      7.262533    3.822241   20.026748    ( 0.0000,  0.0000,  0.0000)
  44 H      7.069304    1.508054   18.751861    ( 0.0000,  0.0000,  0.0000)

Unit cell:
           periodic     x           y           z      points  spacing
  1. axis:    yes    9.702222    0.000000    0.000000    60     0.1617
  2. axis:    yes    0.000000    9.702222    0.000000    60     0.1617
  3. axis:    no     0.000000    0.000000   24.851111   156     0.1593

  Lengths:   9.702222   9.702222  24.851111
  Angles:   90.000000  90.000000  90.000000

Effective grid spacing dv^(1/3) = 0.1609

     iter     time        total  log10-change:
                         energy  eigst   dens
iter:   1 10:09:39  -271.728534  +1.08
iter:   2 10:16:11  -272.307013  +0.42  -1.70
iter:   3 10:20:07  -272.450553  -0.06  -1.98
iter:   4 10:22:23  -272.506795  -0.44  -2.20
Writing to output.gpw (mode='')

iter:   5 10:24:00  -272.532809  -0.75  -2.40
iter:   6 10:27:54  -272.546212  -1.02  -2.57
iter:   7 10:30:04  -272.554065c -1.24  -2.77
iter:   8 10:32:53  -272.558804c -1.47  -2.77
iter:   9 10:34:57  -272.562790c -1.56  -2.71
Writing to output.gpw (mode='')

iter:  10 10:37:03  -272.565208c -1.72  -2.58
iter:  11 10:38:41  -272.566600c -1.96  -2.56
iter:  12 10:40:29  -272.567648c -2.12  -2.53
iter:  13 10:43:32  -272.566978c -2.21  -2.51
iter:  14 10:45:31  -272.568136c -2.43  -2.63
Writing to output.gpw (mode='')

iter:  15 10:47:10  -272.566795c -2.53  -2.55
iter:  16 10:48:41  -272.567093c -2.87  -2.77
iter:  17 10:50:15  -272.566965c -2.87  -2.74
iter:  18 10:51:54  -272.566955c -3.04  -2.77
iter:  19 10:54:08  -272.567053c -3.04  -2.80
Writing to output.gpw (mode='')

iter:  20 10:56:34  -272.567099c -3.33  -2.86
iter:  21 10:58:16  -272.567164c -3.61  -2.87
iter:  22 11:00:06  -272.567135c -3.55  -2.87
iter:  23 11:02:10  -272.567270c -3.23  -2.97
iter:  24 11:03:48  -272.567245c -3.81  -3.28
Writing to output.gpw (mode='')

iter:  25 11:07:09  -272.567261c -3.97  -3.29
iter:  26 11:09:37  -272.567214c -4.05  -3.25
iter:  27 11:11:57  -272.567247c -4.24  -3.34
iter:  28 11:14:34  -272.567259c -4.39  -3.39
iter:  29 11:19:05  -272.567247c -4.47  -3.31
Writing to output.gpw (mode='')

iter:  30 11:22:46  -272.567236c -4.47  -3.59
iter:  31 11:24:58  -272.567235c -4.49  -3.67
iter:  32 11:26:52  -272.567239c -4.79  -3.72
iter:  33 11:28:20  -272.567244c -4.65  -3.79
iter:  34 11:31:09  -272.567240c -4.72  -4.00c
Writing to output.gpw (mode='')

iter:  35 11:33:06  -272.567241c -4.91  -4.12c
iter:  36 11:36:09  -272.567243c -5.05  -4.16c
iter:  37 11:38:36  -272.567244c -5.10  -4.27c
iter:  38 11:40:36  -272.567246c -5.20  -4.32c
iter:  39 11:42:42  -272.567247c -5.35  -4.41c
Writing to output.gpw (mode='')

iter:  40 11:45:44  -272.567248c -5.43  -4.52c
iter:  41 11:47:32  -272.567249c -5.62  -4.53c
iter:  42 11:49:25  -272.567249c -5.82  -4.50c
iter:  43 11:51:40  -272.567250c -5.88  -4.52c
iter:  44 11:54:27  -272.567250c -5.89  -4.52c
Writing to output.gpw (mode='')

iter:  45 11:57:11  -272.567250c -6.02  -4.49c
iter:  46 12:01:07  -272.567250c -5.95  -4.48c
iter:  47 12:03:00  -272.567248c -6.00  -4.41c
iter:  48 12:04:34  -272.567250c -6.28  -4.32c
iter:  49 12:07:17  -272.567252c -6.03  -4.41c
Writing to output.gpw (mode='')

iter:  50 12:09:04  -272.567253c -6.32  -4.52c
iter:  51 12:11:19  -272.567253c -6.36  -4.54c
iter:  52 12:13:45  -272.567255c -6.37  -4.59c
iter:  53 12:15:39  -272.567256c -6.38  -4.82c
iter:  54 12:17:30  -272.567256c -6.53  -4.89c
Writing to output.gpw (mode='')

iter:  55 12:19:21  -272.567256c -6.74  -4.91c
iter:  56 12:21:20  -272.567256c -6.67  -4.99c
iter:  57 12:23:01  -272.567256c -6.70  -5.16c
iter:  58 12:25:17  -272.567256c -6.98  -5.25c
iter:  59 12:27:17  -272.567256c -6.97  -5.27c
Writing to output.gpw (mode='')

iter:  60 12:31:19  -272.567256c -6.91  -5.28c
iter:  61 12:35:13  -272.567256c -7.23  -5.26c
iter:  62 12:40:21  -272.567256c -7.31  -5.26c
iter:  63 12:46:23  -272.567255c -7.12  -5.27c
iter:  64 12:51:03  -272.567256c -7.33  -5.27c
Writing to output.gpw (mode='')

iter:  65 12:55:40  -272.567255c -7.24  -5.25c
iter:  66 13:01:47  -272.567255c -7.19  -5.23c
iter:  67 13:04:39  -272.567255c -7.31  -5.17c
iter:  68 13:09:15  -272.567255c -7.54c -5.12c

Converged after 68 iterations.

Dipole moment: (0.221587, -3.354809, 0.341954) |e|*Ang

Energy contributions relative to reference atoms: (reference = -11471.411034)

Kinetic:       +125.845506
Potential:     -118.492450
External:        +0.000000
XC:            -280.095043
Entropy (-ST):   -0.153295
Local:           +0.251380
--------------------------
Free energy:   -272.643903
Extrapolated:  -272.567255

Dipole-layer corrected work functions: 3.379886, 2.722534 eV

Showing only first 2 kpts
 Kpt  Band  Eigenvalues  Occupancy
  0    26     -3.29293    1.98422
  0    27     -3.21428    1.92616
  0    28     -2.89145    0.07869
  0    29     -2.78575    0.00984

  1    26     -3.08704    1.34375
  1    27     -3.04517    0.93969
  1    28     -3.01633    0.66469
  1    29     -2.99761    0.51006


Fermi level: -3.05121

No gap
Writing to output.gpw (mode='')


Forces in eV/Ang:
  0 Li    0.00630    0.00094   -0.27589
  1 Li   -0.00799   -0.00080   -0.27087
  2 Li   -0.00025   -0.00242   -0.27505
  3 Li   -0.00339   -0.00233   -0.27913
  4 Li    0.00026   -0.00330   -0.26904
  5 Li    0.00035    0.00703   -0.27690
  6 Li   -0.00359    0.00105   -0.26819
  7 Li    0.00148    0.00283   -0.27806
  8 Li   -0.00181   -0.00665   -0.27490
  9 Li    0.00299    0.00799    0.27692
 10 Li    0.01992    0.01380    0.25529
 11 Li   -0.00344    0.00678    0.27478
 12 Li   -0.00063    0.01383    0.31664
 13 Li    0.00613    0.00065    0.27230
 14 Li    0.01112    0.00645    0.28056
 15 Li   -0.01417   -0.01069    0.29306
 16 Li    0.02391   -0.00807    0.27849
 17 Li    0.00510   -0.00023    0.28016
 18 Li   -0.01315    0.00364   -0.00080
 19 Li    0.01999   -0.00290    0.02263
 20 Li    0.00265    0.01970   -0.05333
 21 Li   -0.00018    0.00695   -0.01730
 22 Li    0.01093   -0.00484    0.01774
 23 Li   -0.00024   -0.01919   -0.03845
 24 Li   -0.01775   -0.00747    0.02991
 25 Li    0.01904    0.00099    0.03579
 26 Li    0.00159   -0.01453    0.02014
 27 Li   -0.00523   -0.01193   -0.00102
 28 Li    0.00246    0.00320    0.00497
 29 Li   -0.00972   -0.02326   -0.00889
 30 Li   -0.01779    0.00157   -0.00663
 31 Li    0.01578    0.00095   -0.00648
 32 Li    0.02103   -0.01374    0.01108
 33 Li   -0.00650    0.01084   -0.01142
 34 Li    0.00314   -0.00652   -0.00402
 35 Li   -0.00040   -0.00204   -0.01050
 36 O    -0.00844    0.09309   -0.02574
 37 C     0.02069   -0.04391   -0.04301
 38 C     0.01996    0.02646    0.04592
 39 H    -0.08319    0.04176   -0.06419
 40 H     0.03230   -0.03739   -0.00335
 41 H     0.02908   -0.00505    0.01909
 42 H    -0.03384   -0.05546   -0.00470
 43 H    -0.02799   -0.03602   -0.02585
 44 H     0.00102    0.02057    0.02821

System changes: positions 

Initializing position-dependent things.

Density initialized from wave functions
       .-----------------------.  
      /|                       |  
     / |                       |  
    /  |                       |  
   /   |                       |  
  /    |                       |  
 *     |                       |  
 |     |                       |  
 |     |                       |  
 |     |                  H    |  
 |     |             H C       |  
 |     |               H H     |  
 |     |                C      |  
 |     |           H O    H    |  
 |   Li|     Li      Li        |  
 |     |  Li      Li      Li   |  
 | Li  |   Li      Li          |  
 |     |Li      Li      Li     |  
 Li    | Li      Li            |  
 |   LLi     LLi     LLi       |  
 |     |  Li      Li      Li   |  
 | Li  |   Li      Li          |  
 |     |Li      Li      Li     |  
 Li    | Li      Li            |  
 |    Li      Li      Li       |  
 |     |                       |  
 |     |                       |  
 |     |                       |  
 |     |                       |  
 |     |                       |  
 |     |                       |  
 |     .-----------------------.  
 |    /                       /   
 |   /                       /    
 |  /                       /     
 | /                       /      
 |/                       /       
 *-----------------------*        

Positions:
   0 Li     1.617037    1.617037   10.000000    ( 0.0000,  0.0000,  0.0000)
   1 Li     4.851111    1.617037   10.000000    ( 0.0000,  0.0000,  0.0000)
   2 Li     8.085185    1.617037   10.000000    ( 0.0000,  0.0000,  0.0000)
   3 Li     1.617037    4.851111   10.000000    ( 0.0000,  0.0000,  0.0000)
   4 Li     4.851111    4.851111   10.000000    ( 0.0000,  0.0000,  0.0000)
   5 Li     8.085185    4.851111   10.000000    ( 0.0000,  0.0000,  0.0000)
   6 Li     1.617037    8.085185   10.000000    ( 0.0000,  0.0000,  0.0000)
   7 Li     4.851111    8.085185   10.000000    ( 0.0000,  0.0000,  0.0000)
   8 Li     8.085185    8.085185   10.000000    ( 0.0000,  0.0000,  0.0000)
   9 Li     0.000000    0.000000   11.617037    ( 0.0000,  0.0000,  0.0000)
  10 Li     3.234074    0.000000   11.617037    ( 0.0000,  0.0000,  0.0000)
  11 Li     6.468148    0.000000   11.617037    ( 0.0000,  0.0000,  0.0000)
  12 Li     0.000000    3.234074   11.617037    ( 0.0000,  0.0000,  0.0000)
  13 Li     3.234074    3.234074   11.617037    ( 0.0000,  0.0000,  0.0000)
  14 Li     6.468148    3.234074   11.617037    ( 0.0000,  0.0000,  0.0000)
  15 Li     0.000000    6.468148   11.617037    ( 0.0000,  0.0000,  0.0000)
  16 Li     3.234074    6.468148   11.617037    ( 0.0000,  0.0000,  0.0000)
  17 Li     6.468148    6.468148   11.617037    ( 0.0000,  0.0000,  0.0000)
  18 Li     1.648917    1.601500   13.479329    ( 0.0000,  0.0000,  0.0000)
  19 Li     4.866789    1.632597   13.502826    ( 0.0000,  0.0000,  0.0000)
  20 Li     8.085901    1.614231   13.497772    ( 0.0000,  0.0000,  0.0000)
  21 Li     1.647029    4.868634   13.482168    ( 0.0000,  0.0000,  0.0000)
  22 Li     4.865416    4.838440   13.517750    ( 0.0000,  0.0000,  0.0000)
  23 Li     8.060804    4.859889   13.538683    ( 0.0000,  0.0000,  0.0000)
  24 Li     1.635271    8.094529   13.471424    ( 0.0000,  0.0000,  0.0000)
  25 Li     4.848442    8.092338   13.474626    ( 0.0000,  0.0000,  0.0000)
  26 Li     8.090542    8.106778   13.491201    ( 0.0000,  0.0000,  0.0000)
  27 Li     0.051975    0.006880   15.456948    ( 0.0000,  0.0000,  0.0000)
  28 Li     3.267042    0.008950   15.434644    ( 0.0000,  0.0000,  0.0000)
  29 Li     6.490947    0.001940   15.473560    ( 0.0000,  0.0000,  0.0000)
  30 Li     0.097634    3.265449   15.337144    ( 0.0000,  0.0000,  0.0000)
  31 Li     3.238528    3.226432   15.465454    ( 0.0000,  0.0000,  0.0000)
  32 Li     6.492379    3.206630   15.584670    ( 0.0000,  0.0000,  0.0000)
  33 Li     0.011534    6.476040   15.441649    ( 0.0000,  0.0000,  0.0000)
  34 Li     3.227041    6.477906   15.452766    ( 0.0000,  0.0000,  0.0000)
  35 Li     6.459482    6.502453   15.452453    ( 0.0000,  0.0000,  0.0000)
  36 O      7.761007    1.806813   18.146890    ( 0.0000,  0.0000,  0.0000)
  37 C      8.687218    2.637502   18.879085    ( 0.0000,  0.0000,  0.0000)
  38 C      8.086898    3.961060   19.325581    ( 0.0000,  0.0000,  0.0000)
  39 H      9.099950    2.083877   19.732243    ( 0.0000,  0.0000,  0.0000)
  40 H      9.508787    2.821224   18.181361    ( 0.0000,  0.0000,  0.0000)
  41 H      8.851352    4.561554   19.826596    ( 0.0000,  0.0000,  0.0000)
  42 H      7.729119    4.532996   18.467264    ( 0.0000,  0.0000,  0.0000)
  43 H      7.263037    3.815982   20.030631    ( 0.0000,  0.0000,  0.0000)
  44 H      7.065603    1.509088   18.749006    ( 0.0000,  0.0000,  0.0000)

Unit cell:
           periodic     x           y           z      points  spacing
  1. axis:    yes    9.702222    0.000000    0.000000    60     0.1617
  2. axis:    yes    0.000000    9.702222    0.000000    60     0.1617
  3. axis:    no     0.000000    0.000000   24.851111   156     0.1593

  Lengths:   9.702222   9.702222  24.851111
  Angles:   90.000000  90.000000  90.000000

Effective grid spacing dv^(1/3) = 0.1609

     iter     time        total  log10-change:
                         energy  eigst   dens
iter:   1 13:12:49  -272.573062  -1.87
iter:   2 13:16:12  -272.570527  -2.62  -2.26
iter:   3 13:20:28  -272.570267c -3.22  -2.56
iter:   4 13:23:00  -272.569878c -3.57  -2.69
Writing to output.gpw (mode='')

iter:   5 13:26:14  -272.569356c -2.89  -2.80
iter:   6 13:29:43  -272.569352c -3.54  -3.07
iter:   7 13:33:16  -272.569375c -3.39  -3.18
iter:   8 13:37:56  -272.569393c -3.75  -3.28
iter:   9 13:41:03  -272.569385c -4.18  -3.36
Writing to output.gpw (mode='')

iter:  10 13:45:22  -272.569378c -4.64  -3.43
iter:  11 13:49:59  -272.569350c -4.61  -3.50
iter:  12 13:55:42  -272.569354c -4.94  -3.87
iter:  13 14:00:05  -272.569366c -5.38  -3.94
iter:  14 14:02:50  -272.569361c -6.12  -3.92
Writing to output.gpw (mode='')

iter:  15 14:06:53  -272.569363c -5.51  -4.12c
iter:  16 14:11:31  -272.569364c -5.89  -4.23c
iter:  17 14:14:10  -272.569364c -6.17  -4.42c
iter:  18 14:17:36  -272.569362c -6.36  -4.45c
iter:  19 14:20:41  -272.569362c -6.54  -4.60c
Writing to output.gpw (mode='')

iter:  20 14:24:50  -272.569363c -6.76  -4.72c
iter:  21 14:28:09  -272.569363c -7.05  -4.73c
iter:  22 14:30:36  -272.569363c -7.12  -4.86c
iter:  23 14:33:45  -272.569363c -7.29  -4.89c
iter:  24 14:37:07  -272.569363c -7.32  -4.93c
Writing to output.gpw (mode='')

iter:  25 14:40:43  -272.569363c -7.29  -5.06c
iter:  26 14:43:40  -272.569363c -7.26  -5.18c
iter:  27 14:47:09  -272.569363c -7.33  -5.31c
iter:  28 14:51:24  -272.569363c -7.51c -5.34c

Converged after 28 iterations.

Dipole moment: (0.142939, -3.303194, 0.341219) |e|*Ang

Energy contributions relative to reference atoms: (reference = -11471.411034)

Kinetic:       +126.127509
Potential:     -118.699371
External:        +0.000000
XC:            -280.172437
Entropy (-ST):   -0.153291
Local:           +0.251582
--------------------------
Free energy:   -272.646008
Extrapolated:  -272.569363

Dipole-layer corrected work functions: 3.379901, 2.723962 eV

Showing only first 2 kpts
 Kpt  Band  Eigenvalues  Occupancy
  0    26     -3.29346    1.98416
  0    27     -3.21491    1.92603
  0    28     -2.89230    0.07889
  0    29     -2.78624    0.00980

  1    26     -3.08789    1.34485
  1    27     -3.04607    0.94150
  1    28     -3.01736    0.66747
  1    29     -2.99792    0.50690


Fermi level: -3.05193

No gap
Writing to output.gpw (mode='')


Forces in eV/Ang:
  0 Li    0.00633    0.00102   -0.27583
  1 Li   -0.00801   -0.00074   -0.27084
  2 Li   -0.00030   -0.00253   -0.27503
  3 Li   -0.00313   -0.00215   -0.27926
  4 Li   -0.00001   -0.00346   -0.26903
  5 Li    0.00030    0.00714   -0.27688
  6 Li   -0.00395    0.00083   -0.26813
  7 Li    0.00171    0.00289   -0.27836
  8 Li   -0.00174   -0.00661   -0.27500
  9 Li    0.00332    0.00667    0.27710
 10 Li    0.01998    0.01277    0.25648
 11 Li   -0.00351    0.00599    0.27565
 12 Li    0.00100    0.01490    0.31604
 13 Li    0.00664    0.00042    0.27246
 14 Li    0.00947    0.00677    0.27989
 15 Li   -0.01452   -0.01081    0.29313
 16 Li    0.02553   -0.00677    0.27898
 17 Li    0.00436    0.00005    0.28121
 18 Li   -0.01243    0.00429   -0.00099
 19 Li    0.02001   -0.00173    0.02098
 20 Li    0.00153    0.01601   -0.04685
 21 Li   -0.00163    0.00493   -0.01542
 22 Li    0.01074   -0.00545    0.01529
 23 Li    0.00072   -0.01694   -0.03658
 24 Li   -0.01586   -0.00597    0.02674
 25 Li    0.01705   -0.00018    0.03119
 26 Li    0.00133   -0.01264    0.01709
 27 Li   -0.00458   -0.00660   -0.00332
 28 Li    0.00230    0.00173    0.00854
 29 Li   -0.00964   -0.02207   -0.01026
 30 Li   -0.02071    0.00077   -0.00390
 31 Li    0.01360    0.00007   -0.01030
 32 Li    0.02684   -0.01173    0.01343
 33 Li   -0.00815    0.00590   -0.01200
 34 Li    0.00348   -0.00410   -0.00279
 35 Li    0.00129   -0.00543   -0.00751
 36 O    -0.06234    0.03275   -0.14866
 37 C     0.01635   -0.00220    0.02266
 38 C     0.03289    0.03360    0.05900
 39 H    -0.03468   -0.00309   -0.03264
 40 H     0.02414   -0.04639   -0.00830
 41 H     0.01942   -0.00499    0.02351
 42 H    -0.06322   -0.01632   -0.00152
 43 H    -0.01056   -0.01152   -0.05691
 44 H     0.01624    0.04187    0.03970

System changes: positions 

Initializing position-dependent things.

Density initialized from wave functions
       .-----------------------.  
      /|                       |  
     / |                       |  
    /  |                       |  
   /   |                       |  
  /    |                       |  
 *     |                       |  
 |     |                       |  
 |     |                       |  
 |     |                  H    |  
 |     |             H C       |  
 |     |               H H     |  
 |     |               LC      |  
 |     |           H O    H    |  
 |   Li|     Li      Li        |  
 |     |  Li      Li      Li   |  
 | Li  |   Li      Li          |  
 |     |Li      Li      Li     |  
 Li    | Li                    |  
 |   LLi     LLi     LLi       |  
 |     |  Li      Li      Li   |  
 | Li  |   Li      Li          |  
 |     |Li      Li      Li     |  
 Li    | Li      Li            |  
 |    Li      Li      Li       |  
 |     |                       |  
 |     |                       |  
 |     |                       |  
 |     |                       |  
 |     |                       |  
 |     |                       |  
 |     .-----------------------.  
 |    /                       /   
 |   /                       /    
 |  /                       /     
 | /                       /      
 |/                       /       
 *-----------------------*        

Positions:
   0 Li     1.617037    1.617037   10.000000    ( 0.0000,  0.0000,  0.0000)
   1 Li     4.851111    1.617037   10.000000    ( 0.0000,  0.0000,  0.0000)
   2 Li     8.085185    1.617037   10.000000    ( 0.0000,  0.0000,  0.0000)
   3 Li     1.617037    4.851111   10.000000    ( 0.0000,  0.0000,  0.0000)
   4 Li     4.851111    4.851111   10.000000    ( 0.0000,  0.0000,  0.0000)
   5 Li     8.085185    4.851111   10.000000    ( 0.0000,  0.0000,  0.0000)
   6 Li     1.617037    8.085185   10.000000    ( 0.0000,  0.0000,  0.0000)
   7 Li     4.851111    8.085185   10.000000    ( 0.0000,  0.0000,  0.0000)
   8 Li     8.085185    8.085185   10.000000    ( 0.0000,  0.0000,  0.0000)
   9 Li     0.000000    0.000000   11.617037    ( 0.0000,  0.0000,  0.0000)
  10 Li     3.234074    0.000000   11.617037    ( 0.0000,  0.0000,  0.0000)
  11 Li     6.468148    0.000000   11.617037    ( 0.0000,  0.0000,  0.0000)
  12 Li     0.000000    3.234074   11.617037    ( 0.0000,  0.0000,  0.0000)
  13 Li     3.234074    3.234074   11.617037    ( 0.0000,  0.0000,  0.0000)
  14 Li     6.468148    3.234074   11.617037    ( 0.0000,  0.0000,  0.0000)
  15 Li     0.000000    6.468148   11.617037    ( 0.0000,  0.0000,  0.0000)
  16 Li     3.234074    6.468148   11.617037    ( 0.0000,  0.0000,  0.0000)
  17 Li     6.468148    6.468148   11.617037    ( 0.0000,  0.0000,  0.0000)
  18 Li     1.651045    1.600067   13.480052    ( 0.0000,  0.0000,  0.0000)
  19 Li     4.865618    1.633396   13.505008    ( 0.0000,  0.0000,  0.0000)
  20 Li     8.086618    1.615594   13.496857    ( 0.0000,  0.0000,  0.0000)
  21 Li     1.651083    4.870626   13.482910    ( 0.0000,  0.0000,  0.0000)
  22 Li     4.865505    4.837181   13.523470    ( 0.0000,  0.0000,  0.0000)
  23 Li     8.058986    4.858208   13.542691    ( 0.0000,  0.0000,  0.0000)
  24 Li     1.635575    8.093699   13.473144    ( 0.0000,  0.0000,  0.0000)
  25 Li     4.847215    8.091260   13.475636    ( 0.0000,  0.0000,  0.0000)
  26 Li     8.091303    8.104767   13.493432    ( 0.0000,  0.0000,  0.0000)
  27 Li     0.052771    0.002737   15.459801    ( 0.0000,  0.0000,  0.0000)
  28 Li     3.268145    0.009381   15.433896    ( 0.0000,  0.0000,  0.0000)
  29 Li     6.488247   -0.002925   15.470926    ( 0.0000,  0.0000,  0.0000)
  30 Li     0.105330    3.265103   15.334691    ( 0.0000,  0.0000,  0.0000)
  31 Li     3.240674    3.226281   15.474853    ( 0.0000,  0.0000,  0.0000)
  32 Li     6.490362    3.199027   15.595559    ( 0.0000,  0.0000,  0.0000)
  33 Li     0.014711    6.479017   15.444528    ( 0.0000,  0.0000,  0.0000)
  34 Li     3.226524    6.478218   15.457087    ( 0.0000,  0.0000,  0.0000)
  35 Li     6.456859    6.505409   15.453967    ( 0.0000,  0.0000,  0.0000)
  36 O      7.746742    1.827228   18.137791    ( 0.0000,  0.0000,  0.0000)
  37 C      8.678979    2.635250   18.882797    ( 0.0000,  0.0000,  0.0000)
  38 C      8.086892    3.955509   19.345725    ( 0.0000,  0.0000,  0.0000)
  39 H      9.078178    2.069665   19.732657    ( 0.0000,  0.0000,  0.0000)
  40 H      9.507555    2.822993   18.194239    ( 0.0000,  0.0000,  0.0000)
  41 H      8.852749    4.544032   19.862526    ( 0.0000,  0.0000,  0.0000)
  42 H      7.741216    4.539017   18.490295    ( 0.0000,  0.0000,  0.0000)
  43 H      7.259022    3.800972   20.046173    ( 0.0000,  0.0000,  0.0000)
  44 H      7.049764    1.513379   18.731209    ( 0.0000,  0.0000,  0.0000)

Unit cell:
           periodic     x           y           z      points  spacing
  1. axis:    yes    9.702222    0.000000    0.000000    60     0.1617
  2. axis:    yes    0.000000    9.702222    0.000000    60     0.1617
  3. axis:    no     0.000000    0.000000   24.851111   156     0.1593

  Lengths:   9.702222   9.702222  24.851111
  Angles:   90.000000  90.000000  90.000000

Effective grid spacing dv^(1/3) = 0.1609

     iter     time        total  log10-change:
                         energy  eigst   dens
iter:   1 14:56:40  -272.607183  -0.85
iter:   2 15:00:35  -272.581985  -1.63  -1.76
iter:   3 15:04:38  -272.578565  -2.33  -2.05
iter:   4 15:10:29  -272.575076c -2.71  -2.21
Writing to output.gpw (mode='')

iter:   5 15:14:28  -272.572442c -2.22  -2.38
iter:   6 15:18:38  -272.571911c -2.11  -2.64
iter:   7 15:23:22  -272.572072c -2.43  -2.67
iter:   8 15:27:37  -272.572001c -3.11  -2.78
iter:   9 15:31:50  -272.571986c -3.56  -2.97
Writing to output.gpw (mode='')

iter:  10 15:34:53  -272.571887c -3.53  -3.15
iter:  11 15:39:05  -272.571918c -3.74  -3.27
iter:  12 15:42:59  -272.571907c -4.69  -3.40
iter:  13 15:45:40  -272.571933c -4.33  -3.53
iter:  14 15:52:51  -272.571933c -4.61  -3.70
Writing to output.gpw (mode='')

iter:  15 15:57:52  -272.571929c -5.23  -3.78
iter:  16 16:00:44  -272.571930c -5.10  -3.82
iter:  17 16:04:01  -272.571925c -5.04  -3.86
iter:  18 16:08:16  -272.571926c -5.37  -3.92
iter:  19 16:11:52  -272.571928c -5.66  -4.17c
Writing to output.gpw (mode='')

iter:  20 16:16:02  -272.571927c -5.85  -4.22c
iter:  21 16:26:50  -272.571925c -5.95  -4.28c
iter:  22 16:33:08  -272.571925c -6.17  -4.37c
iter:  23 16:44:32  -272.571924c -6.31  -4.51c
