
  ___ ___ ___ _ _ _  
 |   |   |_  | | | | 
 | | | | | . | | | | 
 |__ |  _|___|_____|  22.8.0
 |___|_|             

User:   vazumah@f013
Date:   Tue Feb 28 01:21:34 2023
Arch:   x86_64
Pid:    44135
CWD:    /home/vazumah/Research_Projects/LiMEAS/LiNRR_proton_donors/on_pure_surface/Li_BCC100/adsorbates/CH3CH2OH_y/bridge/8.085_1.617
Python: 3.10.6
gpaw:   /home/vazumah/anaconda3/envs/NAME/lib/python3.10/site-packages/gpaw
_gpaw:  /home/vazumah/anaconda3/envs/NAME/lib/python3.10/site-packages/
        _gpaw.cpython-310-x86_64-linux-gnu.so
ase:    /home/vazumah/anaconda3/envs/NAME/lib/python3.10/site-packages/ase (version 3.22.1)
numpy:  /home/vazumah/anaconda3/envs/NAME/lib/python3.10/site-packages/numpy (version 1.23.3)
scipy:  /home/vazumah/anaconda3/envs/NAME/lib/python3.10/site-packages/scipy (version 1.9.1)
libxc:  5.2.3
units:  Angstrom and eV
cores: 32
OpenMP: True
OMP_NUM_THREADS: 1

Input parameters:
  h: 0.16
  kpts: {size: [4, 4, 1]}
  occupations: {name: fermi-dirac,
                width: 0.05}
  poissonsolver: {dipolelayer: xy}
  xc: BEEF-vdW

System changes: positions, numbers, cell, pbc, initial_charges, initial_magmoms 

Initialize ...

species:
  Li:
    name: Lithium
    id: 830b4218f175192f93f959cfc0aad614
    Z: 3.0
    valence: 1
    core: 2
    charge: 0.0
    file: /home/vazumah/anaconda3/envs/NAME/share/gpaw/Li.PBE.gz
    compensation charges: {type: gauss,
                           rc: 0.33,
                           lmax: 2}
    cutoffs: {filter: 1.91,
              core: 2.55}
    valence states:
      #              energy  rcut
      - 2s(1.00)    -2.874   1.058
      - 2p(0.00)    -1.090   1.058
      -  s          24.337   1.058
  
    # Using partial waves for Li as LCAO basis

  O:
    name: Oxygen
    id: 32ecd46bf208036f09c70b0ec9a88b78
    Z: 8.0
    valence: 6
    core: 2
    charge: 0.0
    file: /home/vazumah/anaconda3/envs/NAME/share/gpaw/O.PBE.gz
    compensation charges: {type: gauss,
                           rc: 0.21,
                           lmax: 2}
    cutoffs: {filter: 1.17,
              core: 0.83}
    valence states:
      #              energy  rcut
      - 2s(2.00)   -23.961   0.688
      - 2p(4.00)    -9.029   0.598
      -  s           3.251   0.688
      -  p          18.182   0.598
      -  d           0.000   0.619
  
    # Using partial waves for O as LCAO basis

  C:
    name: Carbon
    id: 4aa54d4b901d75f77cc0ea3eec22967b
    Z: 6.0
    valence: 4
    core: 2
    charge: 0.0
    file: /home/vazumah/anaconda3/envs/NAME/share/gpaw/C.PBE.gz
    compensation charges: {type: gauss,
                           rc: 0.20,
                           lmax: 2}
    cutoffs: {filter: 1.14,
              core: 1.14}
    valence states:
      #              energy  rcut
      - 2s(2.00)   -13.751   0.635
      - 2p(2.00)    -5.284   0.635
      -  s          13.461   0.635
      -  p          21.927   0.635
      -  d           0.000   0.635
  
    # Using partial waves for C as LCAO basis

  H:
    name: Hydrogen
    id: d65de229564ff8ea4db303e23b6d1ecf
    Z: 1.0
    valence: 1
    core: 0
    charge: 0.0
    file: /home/vazumah/anaconda3/envs/NAME/share/gpaw/H.PBE.gz
    compensation charges: {type: gauss,
                           rc: 0.15,
                           lmax: 2}
    cutoffs: {filter: 0.85,
              core: 0.53}
    valence states:
      #              energy  rcut
      - 1s(1.00)    -6.494   0.476
      -  s          20.717   0.476
      -  p           0.000   0.476
  
    # Using partial waves for H as LCAO basis

Reference energy: -11471.411034  # eV

Spin-paired calculation

Convergence criteria:
 Maximum [total energy] change in last 3 cyles: 0.0005 eV / electron
 Maximum integral of absolute [dens]ity change: 0.0001 electrons / valence electron
 Maximum integral of absolute [eigenst]ate change: 4e-08 eV^2 / valence electron
 Maximum number of scf [iter]ations: 333
 (Square brackets indicate name in SCF output, whereas a 'c' in
 the SCF output indicates the quantity has converged.)

Symmetries present (total): 1

  ( 1  0  0)
  ( 0  1  0)
  ( 0  0  1)

16 k-points: 4 x 4 x 1 Monkhorst-Pack grid
8 k-points in the irreducible part of the Brillouin zone
       k-points in crystal coordinates                weights
   0:     0.12500000   -0.37500000    0.00000000          2/16
   1:     0.12500000   -0.12500000    0.00000000          2/16
   2:     0.12500000    0.12500000    0.00000000          2/16
   3:     0.12500000    0.37500000    0.00000000          2/16
   4:     0.37500000   -0.37500000    0.00000000          2/16
   5:     0.37500000   -0.12500000    0.00000000          2/16
   6:     0.37500000    0.12500000    0.00000000          2/16
   7:     0.37500000    0.37500000    0.00000000          2/16

Wave functions: Uniform real-space grid
  Kinetic energy operator: 6*3+1=19 point O(h^6) finite-difference Laplacian
  ScaLapack parameters: grid=1x1, blocksize=None
  Wavefunction extrapolation:
    Improved wavefunction reuse through dual PAW basis 

Occupation numbers: Fermi-Dirac:
  width: 0.0500  # eV
 

Eigensolver
   Davidson(niter=2) 

Densities:
  Coarse grid: 60*60*156 grid
  Fine grid: 120*120*312 grid
  Total Charge: 0.000000 

Density mixing:
  Method: separate
  Backend: pulay
  Linear mixing parameter: 0.05
  old densities: 5
  Damping of long wavelength oscillations: 50 

Hamiltonian:
  XC and Coulomb potentials evaluated on a 120*120*312 grid
  Using the BEEF-vdW Exchange-Correlation functional
  Interpolation: tri-quintic (5. degree polynomial)
  Poisson solver: FastPoissonSolver using
    Stencil: 6*3+1=19 point O(h^6) finite-difference Laplacian
    FFT axes: [0, 1]
    FST axes: [2]

Dipole correction along z-axis 

XC parameters: BEEF-vdW with 2 nearest neighbor stencil

Memory estimate:
  Process memory now: 212.28 MiB
  Calculator: 281.63 MiB
    Density: 87.85 MiB
      Arrays: 27.47 MiB
      Localized functions: 49.94 MiB
      Mixer: 10.44 MiB
    Hamiltonian: 21.91 MiB
      Arrays: 17.96 MiB
      XC: 0.00 MiB
      Poisson: 0.00 MiB
      vbar: 3.94 MiB
    Wavefunctions: 171.87 MiB
      Arrays psit_nG: 79.32 MiB
      Eigensolver: 89.98 MiB
      Projections: 0.04 MiB
      Projectors: 2.54 MiB

Total number of cores used: 32
Parallelization over k-points: 8
Domain decomposition: 1 x 1 x 4

Number of atoms: 45
Number of atomic orbitals: 162
Number of bands in calculation: 38
Number of valence electrons: 56
Bands to converge: occupied

... initialized

Initializing position-dependent things.

Density initialized from atomic densities
Creating initial wave functions:
  38 bands from LCAO basis set

       .-----------------------.  
      /|                       |  
     / |                       |  
    /  |                       |  
   /   |                       |  
  /    |                       |  
 *     |                       |  
 |     |                       |  
 |     |                       |  
 |     |                       |  
 |     |              H        |  
 |     |                C H    |  
 |     |             H   C     |  
 |     |              O   H    |  
 |   Li|     Li      Li        |  
 |     |  Li      Li      Li   |  
 | Li  |   Li      Li          |  
 |     |Li      Li      Li     |  
 Li    | Li      Li            |  
 |   LLi     LLi     LLi       |  
 |     |  Li      Li      Li   |  
 | Li  |   Li      Li          |  
 |     |Li      Li      Li     |  
 Li    | Li      Li            |  
 |    Li      Li      Li       |  
 |     |                       |  
 |     |                       |  
 |     |                       |  
 |     |                       |  
 |     |                       |  
 |     |                       |  
 |     .-----------------------.  
 |    /                       /   
 |   /                       /    
 |  /                       /     
 | /                       /      
 |/                       /       
 *-----------------------*        

Positions:
   0 Li     1.617037    1.617037   10.000000    ( 0.0000,  0.0000,  0.0000)
   1 Li     4.851111    1.617037   10.000000    ( 0.0000,  0.0000,  0.0000)
   2 Li     8.085185    1.617037   10.000000    ( 0.0000,  0.0000,  0.0000)
   3 Li     1.617037    4.851111   10.000000    ( 0.0000,  0.0000,  0.0000)
   4 Li     4.851111    4.851111   10.000000    ( 0.0000,  0.0000,  0.0000)
   5 Li     8.085185    4.851111   10.000000    ( 0.0000,  0.0000,  0.0000)
   6 Li     1.617037    8.085185   10.000000    ( 0.0000,  0.0000,  0.0000)
   7 Li     4.851111    8.085185   10.000000    ( 0.0000,  0.0000,  0.0000)
   8 Li     8.085185    8.085185   10.000000    ( 0.0000,  0.0000,  0.0000)
   9 Li     0.000000    0.000000   11.617037    ( 0.0000,  0.0000,  0.0000)
  10 Li     3.234074    0.000000   11.617037    ( 0.0000,  0.0000,  0.0000)
  11 Li     6.468148    0.000000   11.617037    ( 0.0000,  0.0000,  0.0000)
  12 Li     0.000000    3.234074   11.617037    ( 0.0000,  0.0000,  0.0000)
  13 Li     3.234074    3.234074   11.617037    ( 0.0000,  0.0000,  0.0000)
  14 Li     6.468148    3.234074   11.617037    ( 0.0000,  0.0000,  0.0000)
  15 Li     0.000000    6.468148   11.617037    ( 0.0000,  0.0000,  0.0000)
  16 Li     3.234074    6.468148   11.617037    ( 0.0000,  0.0000,  0.0000)
  17 Li     6.468148    6.468148   11.617037    ( 0.0000,  0.0000,  0.0000)
  18 Li     1.617038    1.617038   13.469728    ( 0.0000,  0.0000,  0.0000)
  19 Li     4.851111    1.617038   13.469729    ( 0.0000,  0.0000,  0.0000)
  20 Li     8.085184    1.617038   13.469728    ( 0.0000,  0.0000,  0.0000)
  21 Li     1.617038    4.851111   13.469729    ( 0.0000,  0.0000,  0.0000)
  22 Li     4.851111    4.851111   13.469730    ( 0.0000,  0.0000,  0.0000)
  23 Li     8.085184    4.851111   13.469729    ( 0.0000,  0.0000,  0.0000)
  24 Li     1.617038    8.085184   13.469728    ( 0.0000,  0.0000,  0.0000)
  25 Li     4.851111    8.085184   13.469729    ( 0.0000,  0.0000,  0.0000)
  26 Li     8.085184    8.085184   13.469728    ( 0.0000,  0.0000,  0.0000)
  27 Li    -0.000000   -0.000000   15.445939    ( 0.0000,  0.0000,  0.0000)
  28 Li     3.234074    0.000000   15.445939    ( 0.0000,  0.0000,  0.0000)
  29 Li     6.468148    0.000000   15.445939    ( 0.0000,  0.0000,  0.0000)
  30 Li     0.000000    3.234074   15.445939    ( 0.0000,  0.0000,  0.0000)
  31 Li     3.234076    3.234076   15.445938    ( 0.0000,  0.0000,  0.0000)
  32 Li     6.468146    3.234076   15.445938    ( 0.0000,  0.0000,  0.0000)
  33 Li     0.000000    6.468148   15.445939    ( 0.0000,  0.0000,  0.0000)
  34 Li     3.234076    6.468146   15.445938    ( 0.0000,  0.0000,  0.0000)
  35 Li     6.468146    6.468146   15.445938    ( 0.0000,  0.0000,  0.0000)
  36 O      8.085185    1.617037   18.445939    ( 0.0000,  0.0000,  0.0000)
  37 C      8.901943    2.799444   18.450238    ( 0.0000,  0.0000,  0.0000)
  38 C      8.082324    4.083659   18.435704    ( 0.0000,  0.0000,  0.0000)
  39 H      9.585478    2.790821   19.310398    ( 0.0000,  0.0000,  0.0000)
  40 H      9.511668    2.724056   17.547442    ( 0.0000,  0.0000,  0.0000)
  41 H      8.736271    4.960586   18.420269    ( 0.0000,  0.0000,  0.0000)
  42 H      7.433301    4.118370   17.558886    ( 0.0000,  0.0000,  0.0000)
  43 H      7.453837    4.153847   19.328265    ( 0.0000,  0.0000,  0.0000)
  44 H      7.502208    1.656204   19.214164    ( 0.0000,  0.0000,  0.0000)

Unit cell:
           periodic     x           y           z      points  spacing
  1. axis:    yes    9.702222    0.000000    0.000000    60     0.1617
  2. axis:    yes    0.000000    9.702222    0.000000    60     0.1617
  3. axis:    no     0.000000    0.000000   24.851111   156     0.1593

  Lengths:   9.702222   9.702222  24.851111
  Angles:   90.000000  90.000000  90.000000

Effective grid spacing dv^(1/3) = 0.1609

     iter     time        total  log10-change:
                         energy  eigst   dens
iter:   1 01:22:24  -403.417664
iter:   2 01:22:53  -159.111163  +2.43  -0.09
iter:   3 01:23:23  -158.144398  +3.29  -0.23
iter:   4 01:23:52  -169.079504  +2.69  -0.19
Writing to output.gpw (mode='')

iter:   5 01:24:21  -242.357481  +2.84  -0.42
iter:   6 01:24:52  -246.850673  +2.44  -0.43
iter:   7 01:25:24  -315.057890  +2.93  -0.59
iter:   8 01:25:54  -315.712514  +2.37  -0.39
iter:   9 01:26:22  -286.133422  +2.03  -0.42
Writing to output.gpw (mode='')

iter:  10 01:26:53  -296.119446  +1.85  -0.56
iter:  11 01:27:24  -367.162481  +2.37  -0.50
iter:  12 01:27:53  -328.266589  +1.48  -0.31
iter:  13 01:28:23  -279.303113  +1.31  -0.36
iter:  14 01:28:53  -277.729395  +1.47  -0.70
Writing to output.gpw (mode='')

iter:  15 01:29:23  -277.306586  +1.07  -0.76
iter:  16 01:29:52  -274.285717  +0.40  -0.77
iter:  17 01:30:23  -276.205729  +1.15  -0.92
iter:  18 01:31:54  -275.083661  +0.47  -0.80
iter:  19 01:32:46  -279.747183  +1.05  -0.83
Writing to output.gpw (mode='')

iter:  20 01:33:54  -276.453319  +0.27  -0.66
iter:  21 01:35:03  -272.880921  +0.96  -0.73
iter:  22 01:36:14  -272.703651  -0.01  -1.15
iter:  23 01:37:27  -272.836952  +0.13  -1.20
iter:  24 01:38:26  -272.675556  -0.44  -1.21
Writing to output.gpw (mode='')

iter:  25 01:39:28  -272.420851  -0.17  -1.29
iter:  26 01:40:34  -272.460817  -0.80  -1.55
iter:  27 01:41:43  -272.404148  -0.60  -1.48
iter:  28 01:42:41  -272.387361  -0.38  -1.71
iter:  29 01:43:39  -272.378493c -1.24  -1.74
Writing to output.gpw (mode='')

iter:  30 01:44:37  -272.371881c -1.23  -1.85
iter:  31 01:45:37  -272.373358c -1.48  -2.11
iter:  32 01:46:45  -272.373863c -1.53  -2.15
iter:  33 01:48:45  -272.376239c -1.72  -2.24
iter:  34 01:51:50  -272.375871c -1.90  -2.28
Writing to output.gpw (mode='')

iter:  35 01:53:53  -272.376805c -2.13  -2.45
iter:  36 01:56:30  -272.377245c -2.38  -2.61
iter:  37 01:58:41  -272.377689c -2.39  -2.63
iter:  38 02:01:12  -272.378876c -2.26  -2.65
iter:  39 02:05:49  -272.379182c -2.58  -2.76
Writing to output.gpw (mode='')

iter:  40 02:10:36  -272.379571c -2.64  -2.86
iter:  41 02:16:04  -272.379878c -2.62  -3.03
iter:  42 02:22:25  -272.380099c -2.78  -3.19
iter:  43 02:24:45  -272.380238c -2.99  -3.20
iter:  44 02:26:55  -272.380387c -2.86  -3.30
Writing to output.gpw (mode='')

iter:  45 02:29:24  -272.380512c -3.07  -3.33
iter:  46 02:31:40  -272.380586c -3.22  -3.38
iter:  47 02:33:51  -272.380658c -3.25  -3.41
iter:  48 02:36:39  -272.380721c -3.53  -3.44
iter:  49 02:39:04  -272.380784c -3.50  -3.51
Writing to output.gpw (mode='')

iter:  50 02:41:28  -272.380815c -3.61  -3.74
iter:  51 02:43:33  -272.380844c -3.77  -3.78
iter:  52 02:45:42  -272.380871c -3.60  -3.79
iter:  53 02:47:56  -272.380894c -3.93  -3.90
iter:  54 02:49:55  -272.380911c -4.02  -4.10c
Writing to output.gpw (mode='')

iter:  55 02:53:30  -272.380926c -3.86  -4.09c
iter:  56 02:57:31  -272.380939c -3.97  -4.23c
iter:  57 03:02:29  -272.380949c -4.09  -4.25c
iter:  58 03:06:57  -272.380957c -4.30  -4.23c
iter:  59 03:12:03  -272.380964c -4.42  -4.17c
Writing to output.gpw (mode='')

iter:  60 03:15:23  -272.380969c -4.50  -4.23c
iter:  61 03:21:20  -272.380975c -4.50  -4.15c
iter:  62 03:25:33  -272.380979c -4.55  -4.23c
iter:  63 03:29:20  -272.380983c -4.51  -4.21c
iter:  64 03:31:28  -272.380985c -4.68  -4.17c
Writing to output.gpw (mode='')

iter:  65 03:34:54  -272.380988c -4.72  -4.20c
iter:  66 03:39:00  -272.380990c -4.80  -4.26c
iter:  67 03:41:47  -272.380991c -4.65  -4.27c
iter:  68 03:45:01  -272.380993c -4.78  -4.34c
iter:  69 03:48:47  -272.380994c -4.67  -4.37c
Writing to output.gpw (mode='')

iter:  70 03:55:01  -272.380995c -4.60  -4.37c
iter:  71 03:59:29  -272.380996c -4.88  -4.38c
iter:  72 04:05:00  -272.380997c -5.07  -4.62c
iter:  73 04:10:20  -272.380998c -5.13  -4.72c
iter:  74 04:15:33  -272.380998c -5.13  -4.75c
Writing to output.gpw (mode='')

iter:  75 04:20:33  -272.380998c -5.26  -4.89c
iter:  76 04:24:40  -272.380998c -5.42  -5.08c
iter:  77 04:27:51  -272.380998c -5.47  -5.10c
iter:  78 04:30:22  -272.380998c -5.16  -5.08c
iter:  79 04:36:10  -272.380998c -5.27  -5.01c
Writing to output.gpw (mode='')

iter:  80 04:41:37  -272.380998c -5.56  -4.88c
iter:  81 04:46:12  -272.380998c -5.36  -4.96c
iter:  82 04:51:58  -272.380998c -5.53  -5.02c
iter:  83 04:57:33  -272.380998c -5.51  -5.09c
iter:  84 05:02:53  -272.380998c -5.66  -5.12c
Writing to output.gpw (mode='')

iter:  85 05:06:25  -272.380998c -5.81  -5.11c
iter:  86 05:12:50  -272.380998c -5.97  -5.02c
iter:  87 05:16:48  -272.380998c -5.98  -5.30c
iter:  88 05:22:50  -272.380998c -6.05  -5.34c
iter:  89 05:28:07  -272.380998c -5.95  -5.28c
Writing to output.gpw (mode='')

iter:  90 05:33:58  -272.380998c -6.08  -5.10c
iter:  91 05:42:03  -272.380998c -6.16  -5.04c
iter:  92 05:50:22  -272.380998c -6.15  -5.10c
iter:  93 05:58:02  -272.380998c -6.30  -5.48c
iter:  94 06:01:13  -272.380998c -6.20  -5.49c
Writing to output.gpw (mode='')

iter:  95 06:06:10  -272.380998c -6.11  -5.56c
iter:  96 06:10:48  -272.380997c -6.40  -5.53c
iter:  97 06:14:01  -272.380997c -6.35  -5.48c
iter:  98 06:18:22  -272.380997c -6.40  -5.54c
iter:  99 06:22:48  -272.380997c -6.48  -5.56c
Writing to output.gpw (mode='')

iter: 100 06:25:25  -272.380997c -6.47  -5.59c
iter: 101 06:28:01  -272.380997c -6.57  -5.60c
iter: 102 06:31:50  -272.380997c -6.54  -5.66c
iter: 103 06:37:55  -272.380997c -6.67  -5.86c
iter: 104 06:41:28  -272.380997c -6.76  -5.97c
Writing to output.gpw (mode='')

iter: 105 06:44:39  -272.380997c -6.84  -5.98c
iter: 106 06:47:56  -272.380997c -6.82  -6.12c
iter: 107 06:50:48  -272.380997c -6.78  -6.19c
iter: 108 06:54:24  -272.380997c -6.90  -6.20c
iter: 109 06:58:16  -272.380997c -6.92  -6.27c
Writing to output.gpw (mode='')

iter: 110 07:02:00  -272.380997c -7.01  -6.32c
iter: 111 07:07:15  -272.380997c -7.08  -6.30c
iter: 112 07:12:34  -272.380997c -7.08  -6.40c
iter: 113 07:16:17  -272.380997c -7.12  -6.44c
iter: 114 07:23:02  -272.380997c -7.12  -6.52c
Writing to output.gpw (mode='')

iter: 115 07:30:18  -272.380997c -7.27  -6.64c
iter: 116 07:34:53  -272.380997c -7.34  -6.54c
iter: 117 07:38:58  -272.380997c -7.33  -6.48c
iter: 118 07:43:36  -272.380997c -7.40c -6.36c

Converged after 118 iterations.

Dipole moment: (4.193792, -2.850603, 0.347589) |e|*Ang

Energy contributions relative to reference atoms: (reference = -11471.411034)

Kinetic:       +127.639700
Potential:     -119.470645
External:        +0.000000
XC:            -280.719916
Entropy (-ST):   -0.152297
Local:           +0.246012
--------------------------
Free energy:   -272.457145
Extrapolated:  -272.380997

Dipole-layer corrected work functions: 3.390402, 2.722217 eV

Showing only first 2 kpts
 Kpt  Band  Eigenvalues  Occupancy
  0    26     -3.30926    1.98738
  0    27     -3.22632    1.93542
  0    28     -2.89073    0.07036
  0    29     -2.80302    0.01254

  1    26     -3.07776    1.21123
  1    27     -3.04906    0.92763
  1    28     -3.01903    0.64357
  1    29     -3.00795    0.55092


Fermi level: -3.05631

No gap
Writing to output.gpw (mode='')


Forces in eV/Ang:
  0 Li    0.00333    0.00153   -0.27156
  1 Li   -0.00342    0.00122   -0.27233
  2 Li    0.00017   -0.00361   -0.27106
  3 Li    0.00125   -0.00177   -0.27213
  4 Li   -0.00164   -0.00151   -0.27261
  5 Li    0.00039    0.00555   -0.27049
  6 Li   -0.00358   -0.00004   -0.27431
  7 Li    0.00342    0.00049   -0.27462
  8 Li   -0.00023   -0.00178   -0.27333
  9 Li   -0.00066   -0.00346    0.25969
 10 Li    0.00084    0.00360    0.25965
 11 Li   -0.00027   -0.00240    0.26004
 12 Li    0.00241    0.00136    0.26124
 13 Li   -0.00100   -0.00132    0.25374
 14 Li   -0.00202    0.00098    0.26278
 15 Li   -0.00100    0.00229    0.25326
 16 Li   -0.00051   -0.00214    0.26665
 17 Li    0.00158    0.00090    0.25415
 18 Li   -0.00788    0.00089    0.04830
 19 Li    0.00548    0.00089    0.04219
 20 Li    0.00191    0.00557    0.00574
 21 Li   -0.00847   -0.00284    0.05089
 22 Li    0.00694   -0.00288    0.04548
 23 Li    0.00106   -0.00420    0.03278
 24 Li   -0.00035    0.00238    0.03450
 25 Li    0.00177    0.00189    0.03759
 26 Li   -0.00089   -0.00162    0.04224
 27 Li    0.00195   -0.02289   -0.00634
 28 Li   -0.00131    0.00800   -0.02164
 29 Li    0.00591    0.00075    0.01224
 30 Li    0.07497    0.03622   -0.26023
 31 Li    0.00045    0.00360   -0.02456
 32 Li   -0.07711   -0.03946   -0.12547
 33 Li    0.02187    0.02610   -0.06965
 34 Li   -0.00178   -0.01191   -0.01392
 35 Li   -0.01903    0.02662   -0.06426
 36 O     0.04556    0.00757   -0.12895
 37 C    -0.25777    0.11407    0.30648
 38 C     0.08298   -0.08597    0.25167
 39 H     0.02336   -0.02190   -0.07583
 40 H     0.15386   -0.10175    0.01504
 41 H    -0.01921   -0.01741   -0.06758
 42 H    -0.00845    0.09679   -0.01652
 43 H    -0.01701   -0.01130    0.02038
 44 H    -0.00684   -0.01532    0.02493

System changes: positions 

Initializing position-dependent things.

Density initialized from wave functions
       .-----------------------.  
      /|                       |  
     / |                       |  
    /  |                       |  
   /   |                       |  
  /    |                       |  
 *     |                       |  
 |     |                       |  
 |     |                       |  
 |     |                       |  
 |     |              H        |  
 |     |                C H    |  
 |     Li            H   C     |  
 |     |              O   H    |  
 |   Li|     Li      Li        |  
 |     |  Li      Li      Li   |  
 | Li  |   Li      Li          |  
 |     |Li      Li      Li     |  
 |     | Li      Li            |  
 |   LLi     LLi     LLi       |  
 |     |  Li      Li      Li   |  
 | Li  |   Li      Li          |  
 |     |Li      Li      Li     |  
 Li    | Li      Li            |  
 |    Li      Li      Li       |  
 |     |                       |  
 |     |                       |  
 |     |                       |  
 |     |                       |  
 |     |                       |  
 |     |                       |  
 |     .-----------------------.  
 |    /                       /   
 |   /                       /    
 |  /                       /     
 | /                       /      
 |/                       /       
 *-----------------------*        

Positions:
   0 Li     1.617037    1.617037   10.000000    ( 0.0000,  0.0000,  0.0000)
   1 Li     4.851111    1.617037   10.000000    ( 0.0000,  0.0000,  0.0000)
   2 Li     8.085185    1.617037   10.000000    ( 0.0000,  0.0000,  0.0000)
   3 Li     1.617037    4.851111   10.000000    ( 0.0000,  0.0000,  0.0000)
   4 Li     4.851111    4.851111   10.000000    ( 0.0000,  0.0000,  0.0000)
   5 Li     8.085185    4.851111   10.000000    ( 0.0000,  0.0000,  0.0000)
   6 Li     1.617037    8.085185   10.000000    ( 0.0000,  0.0000,  0.0000)
   7 Li     4.851111    8.085185   10.000000    ( 0.0000,  0.0000,  0.0000)
   8 Li     8.085185    8.085185   10.000000    ( 0.0000,  0.0000,  0.0000)
   9 Li     0.000000    0.000000   11.617037    ( 0.0000,  0.0000,  0.0000)
  10 Li     3.234074    0.000000   11.617037    ( 0.0000,  0.0000,  0.0000)
  11 Li     6.468148    0.000000   11.617037    ( 0.0000,  0.0000,  0.0000)
  12 Li     0.000000    3.234074   11.617037    ( 0.0000,  0.0000,  0.0000)
  13 Li     3.234074    3.234074   11.617037    ( 0.0000,  0.0000,  0.0000)
  14 Li     6.468148    3.234074   11.617037    ( 0.0000,  0.0000,  0.0000)
  15 Li     0.000000    6.468148   11.617037    ( 0.0000,  0.0000,  0.0000)
  16 Li     3.234074    6.468148   11.617037    ( 0.0000,  0.0000,  0.0000)
  17 Li     6.468148    6.468148   11.617037    ( 0.0000,  0.0000,  0.0000)
  18 Li     1.616926    1.617051   13.470418    ( 0.0000,  0.0000,  0.0000)
  19 Li     4.851189    1.617051   13.470332    ( 0.0000,  0.0000,  0.0000)
  20 Li     8.085211    1.617118   13.469810    ( 0.0000,  0.0000,  0.0000)
  21 Li     1.616917    4.851070   13.470456    ( 0.0000,  0.0000,  0.0000)
  22 Li     4.851210    4.851070   13.470380    ( 0.0000,  0.0000,  0.0000)
  23 Li     8.085199    4.851051   13.470198    ( 0.0000,  0.0000,  0.0000)
  24 Li     1.617033    8.085218   13.470221    ( 0.0000,  0.0000,  0.0000)
  25 Li     4.851136    8.085211   13.470266    ( 0.0000,  0.0000,  0.0000)
  26 Li     8.085171    8.085161   13.470331    ( 0.0000,  0.0000,  0.0000)
  27 Li     0.000028   -0.000327   15.445849    ( 0.0000,  0.0000,  0.0000)
  28 Li     3.234055    0.000114   15.445630    ( 0.0000,  0.0000,  0.0000)
  29 Li     6.468233    0.000011   15.446114    ( 0.0000,  0.0000,  0.0000)
  30 Li     0.001071    3.234591   15.442221    ( 0.0000,  0.0000,  0.0000)
  31 Li     3.234083    3.234128   15.445587    ( 0.0000,  0.0000,  0.0000)
  32 Li     6.467044    3.233513   15.444146    ( 0.0000,  0.0000,  0.0000)
  33 Li     0.000312    6.468521   15.444944    ( 0.0000,  0.0000,  0.0000)
  34 Li     3.234051    6.467975   15.445739    ( 0.0000,  0.0000,  0.0000)
  35 Li     6.467874    6.468526   15.445020    ( 0.0000,  0.0000,  0.0000)
  36 O      8.085836    1.617145   18.444097    ( 0.0000,  0.0000,  0.0000)
  37 C      8.898260    2.801074   18.454616    ( 0.0000,  0.0000,  0.0000)
  38 C      8.083509    4.082431   18.439299    ( 0.0000,  0.0000,  0.0000)
  39 H      9.585811    2.790508   19.309314    ( 0.0000,  0.0000,  0.0000)
  40 H      9.513866    2.722602   17.547657    ( 0.0000,  0.0000,  0.0000)
  41 H      8.735996    4.960337   18.419304    ( 0.0000,  0.0000,  0.0000)
  42 H      7.433181    4.119753   17.558650    ( 0.0000,  0.0000,  0.0000)
  43 H      7.453593    4.153685   19.328557    ( 0.0000,  0.0000,  0.0000)
  44 H      7.502111    1.655985   19.214520    ( 0.0000,  0.0000,  0.0000)

Unit cell:
           periodic     x           y           z      points  spacing
  1. axis:    yes    9.702222    0.000000    0.000000    60     0.1617
  2. axis:    yes    0.000000    9.702222    0.000000    60     0.1617
  3. axis:    no     0.000000    0.000000   24.851111   156     0.1593

  Lengths:   9.702222   9.702222  24.851111
  Angles:   90.000000  90.000000  90.000000

Effective grid spacing dv^(1/3) = 0.1609

     iter     time        total  log10-change:
                         energy  eigst   dens
iter:   1 07:45:42  -272.386271  -2.44
iter:   2 07:47:35  -272.386225  -3.13  -2.75
iter:   3 07:49:28  -272.386113c -3.67  -2.76
iter:   4 07:51:28  -272.385595c -3.01  -2.84
Writing to output.gpw (mode='')

iter:   5 07:53:31  -272.385575c -3.36  -3.03
iter:   6 07:55:31  -272.385473c -3.74  -3.05
iter:   7 07:57:26  -272.385509c -3.73  -3.42
iter:   8 07:59:20  -272.385488c -4.53  -3.35
iter:   9 08:01:27  -272.385479c -4.49  -3.49
Writing to output.gpw (mode='')

iter:  10 08:03:24  -272.385481c -5.11  -3.61
iter:  11 08:05:20  -272.385485c -5.00  -3.74
iter:  12 08:07:21  -272.385486c -5.46  -3.90
iter:  13 08:09:26  -272.385486c -6.02  -3.93
iter:  14 08:11:19  -272.385485c -5.54  -3.96
Writing to output.gpw (mode='')

iter:  15 08:15:47  -272.385482c -5.79  -4.07c
iter:  16 08:18:17  -272.385481c -5.96  -4.26c
iter:  17 08:20:40  -272.385480c -6.16  -4.38c
iter:  18 08:22:56  -272.385481c -6.83  -4.46c
iter:  19 08:26:17  -272.385481c -6.51  -4.62c
Writing to output.gpw (mode='')

iter:  20 08:31:37  -272.385481c -6.84  -4.79c
iter:  21 08:39:43  -272.385480c -6.92  -4.83c
iter:  22 08:46:56  -272.385481c -7.54c -4.80c

Converged after 22 iterations.

Dipole moment: (4.126468, -2.848979, 0.347803) |e|*Ang

Energy contributions relative to reference atoms: (reference = -11471.411034)

Kinetic:       +127.572187
Potential:     -119.433103
External:        +0.000000
XC:            -280.694127
Entropy (-ST):   -0.152293
Local:           +0.245709
--------------------------
Free energy:   -272.461627
Extrapolated:  -272.385481

Dipole-layer corrected work functions: 3.390154, 2.721556 eV

Showing only first 2 kpts
 Kpt  Band  Eigenvalues  Occupancy
  0    26     -3.30882    1.98738
  0    27     -3.22591    1.93547
  0    28     -2.89013    0.07015
  0    29     -2.80258    0.01254

  1    26     -3.07717    1.21000
  1    27     -3.04847    0.92627
  1    28     -3.01884    0.64592
  1    29     -3.00760    0.55175


Fermi level: -3.05585

No gap
Writing to output.gpw (mode='')


Forces in eV/Ang:
  0 Li    0.00332    0.00160   -0.27164
  1 Li   -0.00341    0.00131   -0.27229
  2 Li    0.00016   -0.00358   -0.27120
  3 Li    0.00120   -0.00181   -0.27225
  4 Li   -0.00162   -0.00162   -0.27260
  5 Li    0.00043    0.00555   -0.27068
  6 Li   -0.00369   -0.00006   -0.27426
  7 Li    0.00347    0.00051   -0.27456
  8 Li   -0.00017   -0.00181   -0.27329
  9 Li   -0.00057   -0.00354    0.26018
 10 Li    0.00085    0.00362    0.26014
 11 Li   -0.00037   -0.00245    0.26047
 12 Li    0.00260    0.00147    0.26201
 13 Li   -0.00107   -0.00134    0.25445
 14 Li   -0.00214    0.00102    0.26336
 15 Li   -0.00098    0.00223    0.25388
 16 Li   -0.00046   -0.00214    0.26728
 17 Li    0.00152    0.00092    0.25475
 18 Li   -0.00712    0.00018    0.04595
 19 Li    0.00499    0.00037    0.04066
 20 Li    0.00167    0.00472    0.00431
 21 Li   -0.00746   -0.00211    0.04818
 22 Li    0.00640   -0.00259    0.04374
 23 Li    0.00057   -0.00356    0.03081
 24 Li   -0.00009    0.00250    0.03343
 25 Li    0.00160    0.00208    0.03651
 26 Li   -0.00094   -0.00129    0.04094
 27 Li    0.00195   -0.02200   -0.00542
 28 Li   -0.00104    0.00776   -0.02117
 29 Li    0.00557    0.00047    0.01219
 30 Li    0.07259    0.03481   -0.24986
 31 Li    0.00049    0.00345   -0.02394
 32 Li   -0.07493   -0.03826   -0.12158
 33 Li    0.02143    0.02599   -0.06847
 34 Li   -0.00175   -0.01153   -0.01359
 35 Li   -0.01855    0.02589   -0.06283
 36 O    -0.05491    0.02306    0.00649
 37 C    -0.01912    0.01028    0.02224
 38 C    -0.03624    0.00152    0.08345
 39 H     0.03292   -0.02553   -0.00716
 40 H     0.03860   -0.05482    0.16353
 41 H    -0.00774   -0.02473   -0.04295
 42 H     0.05324    0.07711    0.07565
 43 H    -0.04632    0.00465    0.07095
 44 H     0.03815   -0.04676   -0.06041

System changes: positions 

Initializing position-dependent things.

Density initialized from wave functions
       .-----------------------.  
      /|                       |  
     / |                       |  
    /  |                       |  
   /   |                       |  
  /    |                       |  
 *     |                       |  
 |     |                       |  
 |     |                       |  
 |     |                       |  
 |     |              H        |  
 |     |                C H    |  
 |     Li            H   C     |  
 |     |              O   H    |  
 |   Li|     Li      Li        |  
 |     |  Li      Li      Li   |  
 | Li  |   Li      Li          |  
 |     |Li      Li      Li     |  
 |     | Li      Li            |  
 |   LLi     LLi     LLi       |  
 |     |  Li      Li      Li   |  
 | Li  |   Li      Li          |  
 |     |Li      Li      Li     |  
 Li    | Li      Li            |  
 |    Li      Li      Li       |  
 |     |                       |  
 |     |                       |  
 |     |                       |  
 |     |                       |  
 |     |                       |  
 |     |                       |  
 |     .-----------------------.  
 |    /                       /   
 |   /                       /    
 |  /                       /     
 | /                       /      
 |/                       /       
 *-----------------------*        

Positions:
   0 Li     1.617037    1.617037   10.000000    ( 0.0000,  0.0000,  0.0000)
   1 Li     4.851111    1.617037   10.000000    ( 0.0000,  0.0000,  0.0000)
   2 Li     8.085185    1.617037   10.000000    ( 0.0000,  0.0000,  0.0000)
   3 Li     1.617037    4.851111   10.000000    ( 0.0000,  0.0000,  0.0000)
   4 Li     4.851111    4.851111   10.000000    ( 0.0000,  0.0000,  0.0000)
   5 Li     8.085185    4.851111   10.000000    ( 0.0000,  0.0000,  0.0000)
   6 Li     1.617037    8.085185   10.000000    ( 0.0000,  0.0000,  0.0000)
   7 Li     4.851111    8.085185   10.000000    ( 0.0000,  0.0000,  0.0000)
   8 Li     8.085185    8.085185   10.000000    ( 0.0000,  0.0000,  0.0000)
   9 Li     0.000000    0.000000   11.617037    ( 0.0000,  0.0000,  0.0000)
  10 Li     3.234074    0.000000   11.617037    ( 0.0000,  0.0000,  0.0000)
  11 Li     6.468148    0.000000   11.617037    ( 0.0000,  0.0000,  0.0000)
  12 Li     0.000000    3.234074   11.617037    ( 0.0000,  0.0000,  0.0000)
  13 Li     3.234074    3.234074   11.617037    ( 0.0000,  0.0000,  0.0000)
  14 Li     6.468148    3.234074   11.617037    ( 0.0000,  0.0000,  0.0000)
  15 Li     0.000000    6.468148   11.617037    ( 0.0000,  0.0000,  0.0000)
  16 Li     3.234074    6.468148   11.617037    ( 0.0000,  0.0000,  0.0000)
  17 Li     6.468148    6.468148   11.617037    ( 0.0000,  0.0000,  0.0000)
  18 Li     1.616676    1.617065   13.472000    ( 0.0000,  0.0000,  0.0000)
  19 Li     4.851363    1.617069   13.471726    ( 0.0000,  0.0000,  0.0000)
  20 Li     8.085270    1.617287   13.469971    ( 0.0000,  0.0000,  0.0000)
  21 Li     1.616654    4.850991   13.472118    ( 0.0000,  0.0000,  0.0000)
  22 Li     4.851433    4.850979   13.471880    ( 0.0000,  0.0000,  0.0000)
  23 Li     8.085223    4.850924   13.471263    ( 0.0000,  0.0000,  0.0000)
  24 Li     1.617027    8.085301   13.471365    ( 0.0000,  0.0000,  0.0000)
  25 Li     4.851192    8.085279   13.471515    ( 0.0000,  0.0000,  0.0000)
  26 Li     8.085140    8.085114   13.471732    ( 0.0000,  0.0000,  0.0000)
  27 Li     0.000094   -0.001082   15.445656    ( 0.0000,  0.0000,  0.0000)
  28 Li     3.234017    0.000380   15.444907    ( 0.0000,  0.0000,  0.0000)
  29 Li     6.468425    0.000029   15.446527    ( 0.0000,  0.0000,  0.0000)
  30 Li     0.003556    3.235786   15.433645    ( 0.0000,  0.0000,  0.0000)
  31 Li     3.234099    3.234246   15.444770    ( 0.0000,  0.0000,  0.0000)
  32 Li     6.464482    3.232204   15.439985    ( 0.0000,  0.0000,  0.0000)
  33 Li     0.001043    6.469403   15.442611    ( 0.0000,  0.0000,  0.0000)
  34 Li     3.233991    6.467581   15.445275    ( 0.0000,  0.0000,  0.0000)
  35 Li     6.467240    6.469411   15.442876    ( 0.0000,  0.0000,  0.0000)
  36 O      8.085040    1.617762   18.442881    ( 0.0000,  0.0000,  0.0000)
  37 C      8.895082    2.802523   18.458383    ( 0.0000,  0.0000,  0.0000)
  38 C      8.083545    4.081555   18.443910    ( 0.0000,  0.0000,  0.0000)
  39 H      9.586825    2.789682   19.308344    ( 0.0000,  0.0000,  0.0000)
  40 H      9.516396    2.720247   17.551624    ( 0.0000,  0.0000,  0.0000)
  41 H      8.735612    4.959577   18.417588    ( 0.0000,  0.0000,  0.0000)
  42 H      7.434331    4.122574   17.560236    ( 0.0000,  0.0000,  0.0000)
  43 H      7.452335    4.153674   19.330425    ( 0.0000,  0.0000,  0.0000)
  44 H      7.502926    1.654734   19.213378    ( 0.0000,  0.0000,  0.0000)

Unit cell:
           periodic     x           y           z      points  spacing
  1. axis:    yes    9.702222    0.000000    0.000000    60     0.1617
  2. axis:    yes    0.000000    9.702222    0.000000    60     0.1617
  3. axis:    no     0.000000    0.000000   24.851111   156     0.1593

  Lengths:   9.702222   9.702222  24.851111
  Angles:   90.000000  90.000000  90.000000

Effective grid spacing dv^(1/3) = 0.1609

     iter     time        total  log10-change:
                         energy  eigst   dens
iter:   1 08:54:01  -272.393269  -2.25
iter:   2 08:59:20  -272.391602  -2.89  -2.31
iter:   3 09:03:36  -272.391300c -3.52  -2.63
iter:   4 09:09:22  -272.390819c -3.30  -2.78
Writing to output.gpw (mode='')

iter:   5 09:16:23  -272.390768c -3.42  -3.07
iter:   6 09:21:54  -272.390704c -3.88  -3.15
iter:   7 09:29:37  -272.390762c -3.40  -3.39
iter:   8 09:35:54  -272.390700c -4.36  -3.24
iter:   9 09:41:53  -272.390699c -4.44  -3.58
Writing to output.gpw (mode='')

iter:  10 09:47:01  -272.390716c -4.67  -3.64
iter:  11 09:52:41  -272.390707c -5.01  -3.62
iter:  12 09:59:16  -272.390704c -4.95  -3.90
iter:  13 10:04:45  -272.390708c -5.80  -3.94
iter:  14 10:11:02  -272.390708c -5.45  -4.13c
Writing to output.gpw (mode='')

iter:  15 10:17:13  -272.390708c -6.07  -4.17c
iter:  16 10:25:57  -272.390707c -6.38  -4.23c
iter:  17 10:32:44  -272.390706c -6.44  -4.29c
iter:  18 10:38:47  -272.390706c -6.56  -4.41c
iter:  19 10:45:18  -272.390705c -6.48  -4.50c
Writing to output.gpw (mode='')

iter:  20 10:51:17  -272.390704c -6.90  -4.71c
iter:  21 10:58:05  -272.390704c -7.09  -4.79c
iter:  22 11:05:31  -272.390704c -7.15  -5.00c
iter:  23 11:11:48  -272.390705c -7.48c -5.03c

Converged after 23 iterations.

Dipole moment: (4.015650, -2.842817, 0.346409) |e|*Ang

Energy contributions relative to reference atoms: (reference = -11471.411034)

Kinetic:       +127.763231
Potential:     -119.581115
External:        +0.000000
XC:            -280.742315
Entropy (-ST):   -0.152244
Local:           +0.245617
--------------------------
Free energy:   -272.466826
Extrapolated:  -272.390705

Dipole-layer corrected work functions: 3.390009, 2.724091 eV

Showing only first 2 kpts
 Kpt  Band  Eigenvalues  Occupancy
  0    26     -3.31009    1.98740
  0    27     -3.22731    1.93573
  0    28     -2.89081    0.06946
  0    29     -2.80385    0.01256

  1    26     -3.07798    1.20634
  1    27     -3.04927    0.92237
  1    28     -3.02064    0.65122
  1    29     -3.00897    0.55312


Fermi level: -3.05705

No gap
Writing to output.gpw (mode='')


Forces in eV/Ang:
  0 Li    0.00334    0.00165   -0.27190
  1 Li   -0.00344    0.00136   -0.27242
  2 Li    0.00017   -0.00356   -0.27155
  3 Li    0.00116   -0.00183   -0.27260
  4 Li   -0.00162   -0.00170   -0.27278
  5 Li    0.00045    0.00558   -0.27112
  6 Li   -0.00375   -0.00008   -0.27436
  7 Li    0.00350    0.00050   -0.27465
  8 Li   -0.00014   -0.00188   -0.27338
  9 Li   -0.00030   -0.00367    0.26127
 10 Li    0.00083    0.00366    0.26115
 11 Li   -0.00062   -0.00263    0.26139
 12 Li    0.00298    0.00168    0.26371
 13 Li   -0.00124   -0.00139    0.25613
 14 Li   -0.00237    0.00117    0.26475
 15 Li   -0.00093    0.00210    0.25536
 16 Li   -0.00034   -0.00212    0.26859
 17 Li    0.00136    0.00099    0.25602
 18 Li   -0.00554   -0.00135    0.04113
 19 Li    0.00393   -0.00082    0.03701
 20 Li    0.00122    0.00297    0.00174
 21 Li   -0.00522   -0.00054    0.04239
 22 Li    0.00526   -0.00190    0.03967
 23 Li   -0.00049   -0.00228    0.02661
 24 Li    0.00049    0.00277    0.03083
 25 Li    0.00120    0.00251    0.03406
 26 Li   -0.00107   -0.00055    0.03787
 27 Li    0.00188   -0.02030   -0.00400
 28 Li   -0.00073    0.00750   -0.01981
 29 Li    0.00526    0.00029    0.01260
 30 Li    0.06802    0.03218   -0.23296
 31 Li    0.00035    0.00312   -0.02244
 32 Li   -0.07038   -0.03593   -0.11420
 33 Li    0.02039    0.02519   -0.06532
 34 Li   -0.00181   -0.01099   -0.01256
 35 Li   -0.01743    0.02439   -0.05972
 36 O    -0.05207    0.02665    0.00784
 37 C     0.13744   -0.07989   -0.12603
 38 C    -0.08781    0.07371   -0.05464
 39 H     0.02365   -0.02732    0.05090
 40 H    -0.03401   -0.00944    0.20769
 41 H     0.00145   -0.02563   -0.00457
 42 H     0.06953    0.05156    0.12165
 43 H    -0.06414    0.01919    0.10987
 44 H    -0.00108   -0.06282   -0.02408

System changes: positions 

Initializing position-dependent things.

Density initialized from wave functions
       .-----------------------.  
      /|                       |  
     / |                       |  
    /  |                       |  
   /   |                       |  
  /    |                       |  
 *     |                       |  
 |     |                       |  
 |     |                       |  
 |     |                       |  
 |     |              H        |  
 |     |                C H    |  
 |     Li            H   C     |  
 |     |              O   H    |  
 |   Li|     Li      Li        |  
 |     |  Li      Li      Li   |  
 | Li  |   Li      Li          |  
 |     |Li      Li      Li     |  
 |     | Li      Li            |  
 |   LLi     LLi     LLi       |  
 |     |  Li      Li      Li   |  
 | Li  |   Li      Li          |  
 |     |Li      Li      Li     |  
 Li    | Li      Li            |  
 |    Li      Li      Li       |  
 |     |                       |  
 |     |                       |  
 |     |                       |  
 |     |                       |  
 |     |                       |  
 |     |                       |  
 |     .-----------------------.  
 |    /                       /   
 |   /                       /    
 |  /                       /     
 | /                       /      
 |/                       /       
 *-----------------------*        

Positions:
   0 Li     1.617037    1.617037   10.000000    ( 0.0000,  0.0000,  0.0000)
   1 Li     4.851111    1.617037   10.000000    ( 0.0000,  0.0000,  0.0000)
   2 Li     8.085185    1.617037   10.000000    ( 0.0000,  0.0000,  0.0000)
   3 Li     1.617037    4.851111   10.000000    ( 0.0000,  0.0000,  0.0000)
   4 Li     4.851111    4.851111   10.000000    ( 0.0000,  0.0000,  0.0000)
   5 Li     8.085185    4.851111   10.000000    ( 0.0000,  0.0000,  0.0000)
   6 Li     1.617037    8.085185   10.000000    ( 0.0000,  0.0000,  0.0000)
   7 Li     4.851111    8.085185   10.000000    ( 0.0000,  0.0000,  0.0000)
   8 Li     8.085185    8.085185   10.000000    ( 0.0000,  0.0000,  0.0000)
   9 Li     0.000000    0.000000   11.617037    ( 0.0000,  0.0000,  0.0000)
  10 Li     3.234074    0.000000   11.617037    ( 0.0000,  0.0000,  0.0000)
  11 Li     6.468148    0.000000   11.617037    ( 0.0000,  0.0000,  0.0000)
  12 Li     0.000000    3.234074   11.617037    ( 0.0000,  0.0000,  0.0000)
  13 Li     3.234074    3.234074   11.617037    ( 0.0000,  0.0000,  0.0000)
  14 Li     6.468148    3.234074   11.617037    ( 0.0000,  0.0000,  0.0000)
  15 Li     0.000000    6.468148   11.617037    ( 0.0000,  0.0000,  0.0000)
  16 Li     3.234074    6.468148   11.617037    ( 0.0000,  0.0000,  0.0000)
  17 Li     6.468148    6.468148   11.617037    ( 0.0000,  0.0000,  0.0000)
  18 Li     1.615944    1.617052   13.476835    ( 0.0000,  0.0000,  0.0000)
  19 Li     4.851876    1.617082   13.476008    ( 0.0000,  0.0000,  0.0000)
  20 Li     8.085441    1.617757   13.470388    ( 0.0000,  0.0000,  0.0000)
  21 Li     1.615902    4.850798   13.477169    ( 0.0000,  0.0000,  0.0000)
  22 Li     4.852096    4.850717   13.476485    ( 0.0000,  0.0000,  0.0000)
  23 Li     8.085262    4.850567   13.474482    ( 0.0000,  0.0000,  0.0000)
  24 Li     1.617031    8.085576   13.474894    ( 0.0000,  0.0000,  0.0000)
  25 Li     4.851355    8.085512   13.475381    ( 0.0000,  0.0000,  0.0000)
  26 Li     8.085036    8.084991   13.476058    ( 0.0000,  0.0000,  0.0000)
  27 Li     0.000301   -0.003411   15.445094    ( 0.0000,  0.0000,  0.0000)
  28 Li     3.233907    0.001212   15.442669    ( 0.0000,  0.0000,  0.0000)
  29 Li     6.469024    0.000083   15.447854    ( 0.0000,  0.0000,  0.0000)
  30 Li     0.011263    3.239474   15.407080    ( 0.0000,  0.0000,  0.0000)
  31 Li     3.234145    3.234609   15.442234    ( 0.0000,  0.0000,  0.0000)
  32 Li     6.456531    3.228141   15.427069    ( 0.0000,  0.0000,  0.0000)
  33 Li     0.003320    6.472167   15.435338    ( 0.0000,  0.0000,  0.0000)
  34 Li     3.233800    6.466350   15.443844    ( 0.0000,  0.0000,  0.0000)
  35 Li     6.465274    6.472160   15.436197    ( 0.0000,  0.0000,  0.0000)
  36 O      8.083061    1.619790   18.438500    ( 0.0000,  0.0000,  0.0000)
  37 C      8.890063    2.804060   18.465785    ( 0.0000,  0.0000,  0.0000)
  38 C      8.082169    4.081205   18.453885    ( 0.0000,  0.0000,  0.0000)
  39 H      9.589638    2.787009   19.307227    ( 0.0000,  0.0000,  0.0000)
  40 H      9.522090    2.714344   17.565270    ( 0.0000,  0.0000,  0.0000)
  41 H      8.734704    4.957164   18.413532    ( 0.0000,  0.0000,  0.0000)
  42 H      7.438342    4.130608   17.566652    ( 0.0000,  0.0000,  0.0000)
  43 H      7.447780    4.154133   19.337638    ( 0.0000,  0.0000,  0.0000)
  44 H      7.503796    1.650281   19.211534    ( 0.0000,  0.0000,  0.0000)

Unit cell:
           periodic     x           y           z      points  spacing
  1. axis:    yes    9.702222    0.000000    0.000000    60     0.1617
  2. axis:    yes    0.000000    9.702222    0.000000    60     0.1617
  3. axis:    no     0.000000    0.000000   24.851111   156     0.1593

  Lengths:   9.702222   9.702222  24.851111
  Angles:   90.000000  90.000000  90.000000

Effective grid spacing dv^(1/3) = 0.1609

     iter     time        total  log10-change:
                         energy  eigst   dens
iter:   1 11:17:54  -272.422597  -1.42
iter:   2 11:23:59  -272.408216  -2.02  -1.84
iter:   3 11:30:11  -272.405173c -2.69  -2.18
iter:   4 11:35:24  -272.402041c -2.39  -2.34
Writing to output.gpw (mode='')

iter:   5 11:42:08  -272.402065c -3.40  -2.65
iter:   6 11:45:04  -272.401691c -3.07  -2.71
iter:   7 11:50:46  -272.401869c -2.46  -2.88
iter:   8 11:54:26  -272.401597c -3.72  -2.84
iter:   9 11:58:29  -272.401600c -3.64  -3.19
Writing to output.gpw (mode='')

iter:  10 12:02:05  -272.401716c -3.46  -3.22
iter:  11 12:04:59  -272.401672c -4.33  -3.10
iter:  12 12:08:51  -272.401626c -4.25  -3.18
iter:  13 12:13:20  -272.401622c -4.15  -3.24
iter:  14 12:18:05  -272.401612c -5.08  -3.37
Writing to output.gpw (mode='')

iter:  15 12:21:53  -272.401608c -5.00  -3.42
iter:  16 12:25:45  -272.401612c -4.69  -3.48
iter:  17 12:30:06  -272.401606c -4.89  -3.66
iter:  18 12:35:51  -272.401606c -4.96  -3.84
iter:  19 12:40:15  -272.401603c -5.61  -3.89
Writing to output.gpw (mode='')

iter:  20 12:45:47  -272.401602c -5.47  -4.04c
iter:  21 12:51:18  -272.401602c -5.95  -4.19c
iter:  22 12:55:41  -272.401603c -6.11  -4.29c
iter:  23 13:01:31  -272.401603c -6.22  -4.35c
iter:  24 13:05:18  -272.401604c -6.42  -4.41c
Writing to output.gpw (mode='')

iter:  25 13:11:40  -272.401603c -6.48  -4.49c
iter:  26 13:17:24  -272.401604c -6.82  -4.71c
iter:  27 13:22:38  -272.401604c -6.73  -4.81c
iter:  28 13:28:08  -272.401604c -7.28  -4.94c
iter:  29 13:35:01  -272.401604c -7.17  -5.08c
Writing to output.gpw (mode='')

iter:  30 13:40:12  -272.401604c -7.06  -5.13c
iter:  31 13:45:45  -272.401604c -7.14  -5.33c
iter:  32 13:52:18  -272.401604c -7.52c -5.44c

Converged after 32 iterations.

Dipole moment: (3.725084, -2.824330, 0.341419) |e|*Ang

Energy contributions relative to reference atoms: (reference = -11471.411034)

Kinetic:       +128.205332
Potential:     -119.914047
External:        +0.000000
XC:            -280.862049
Entropy (-ST):   -0.152057
Local:           +0.245189
--------------------------
Free energy:   -272.477633
Extrapolated:  -272.401604

Dipole-layer corrected work functions: 3.389697, 2.733372 eV

Showing only first 2 kpts
 Kpt  Band  Eigenvalues  Occupancy
  0    26     -3.31477    1.98745
  0    27     -3.23248    1.93658
  0    28     -2.89363    0.06727
  0    29     -2.80856    0.01262

  1    26     -3.08132    1.19531
  1    27     -3.05258    0.91071
  1    28     -3.02686    0.66655
  1    29     -3.01388    0.55653


Fermi level: -3.06153

No gap
Writing to output.gpw (mode='')


Forces in eV/Ang:
  0 Li    0.00340    0.00183   -0.27263
  1 Li   -0.00349    0.00152   -0.27277
  2 Li    0.00016   -0.00353   -0.27257
  3 Li    0.00110   -0.00189   -0.27361
  4 Li   -0.00165   -0.00195   -0.27328
  5 Li    0.00054    0.00569   -0.27245
  6 Li   -0.00398   -0.00015   -0.27461
  7 Li    0.00363    0.00047   -0.27490
  8 Li   -0.00004   -0.00202   -0.27361
  9 Li    0.00048   -0.00418    0.26460
 10 Li    0.00081    0.00379    0.26429
 11 Li   -0.00139   -0.00324    0.26424
 12 Li    0.00421    0.00230    0.26884
 13 Li   -0.00173   -0.00154    0.26127
 14 Li   -0.00314    0.00160    0.26897
 15 Li   -0.00075    0.00180    0.25996
 16 Li   -0.00000   -0.00206    0.27269
 17 Li    0.00085    0.00129    0.25995
 18 Li   -0.00055   -0.00626    0.02629
 19 Li    0.00058   -0.00464    0.02548
 20 Li   -0.00017   -0.00241   -0.00575
 21 Li    0.00186    0.00452    0.02444
 22 Li    0.00173    0.00034    0.02703
 23 Li   -0.00383    0.00171    0.01358
 24 Li    0.00230    0.00367    0.02267
 25 Li   -0.00003    0.00386    0.02643
 26 Li   -0.00150    0.00172    0.02818
 27 Li    0.00159   -0.01536   -0.00016
 28 Li    0.00015    0.00670   -0.01558
 29 Li    0.00446   -0.00008    0.01397
 30 Li    0.05442    0.02467   -0.18628
 31 Li   -0.00015    0.00217   -0.01783
 32 Li   -0.05670   -0.02936   -0.09309
 33 Li    0.01723    0.02247   -0.05545
 34 Li   -0.00198   -0.00937   -0.00937
 35 Li   -0.01420    0.02015   -0.05030
 36 O    -0.11106    0.00569    0.09569
 37 C     0.32370   -0.16690   -0.28211
 38 C    -0.10811    0.13729   -0.18063
 39 H    -0.01222   -0.03248    0.16509
 40 H    -0.11185    0.08242    0.17098
 41 H     0.03227    0.00468    0.08737
 42 H     0.02724   -0.00846    0.12861
 43 H    -0.04951    0.04239    0.12049
 44 H    -0.01367   -0.09258   -0.03259

System changes: positions 

Initializing position-dependent things.

Density initialized from wave functions
       .-----------------------.  
      /|                       |  
     / |                       |  
    /  |                       |  
   /   |                       |  
  /    |                       |  
 *     |                       |  
 |     |                       |  
 |     |                       |  
 |     |                       |  
 |     |              H        |  
 |     |                C H    |  
 |     Li            H   C     |  
 |     |              O   H    |  
 |   Li|     Li      Li        |  
 |     |  Li      Li      Li   |  
 | Li  |   Li      Li          |  
 |     |Li      Li      Li     |  
 |     | Li      Li            |  
 |   LLi     LLi     LLi       |  
 |     |  Li      Li      Li   |  
 | Li  |   Li      Li          |  
 |     |Li      Li      Li     |  
 Li    | Li      Li            |  
 |    Li      Li      Li       |  
 |     |                       |  
 |     |                       |  
 |     |                       |  
 |     |                       |  
 |     |                       |  
 |     |                       |  
 |     .-----------------------.  
 |    /                       /   
 |   /                       /    
 |  /                       /     
 | /                       /      
 |/                       /       
 *-----------------------*        

Positions:
   0 Li     1.617037    1.617037   10.000000    ( 0.0000,  0.0000,  0.0000)
   1 Li     4.851111    1.617037   10.000000    ( 0.0000,  0.0000,  0.0000)
   2 Li     8.085185    1.617037   10.000000    ( 0.0000,  0.0000,  0.0000)
   3 Li     1.617037    4.851111   10.000000    ( 0.0000,  0.0000,  0.0000)
   4 Li     4.851111    4.851111   10.000000    ( 0.0000,  0.0000,  0.0000)
   5 Li     8.085185    4.851111   10.000000    ( 0.0000,  0.0000,  0.0000)
   6 Li     1.617037    8.085185   10.000000    ( 0.0000,  0.0000,  0.0000)
   7 Li     4.851111    8.085185   10.000000    ( 0.0000,  0.0000,  0.0000)
   8 Li     8.085185    8.085185   10.000000    ( 0.0000,  0.0000,  0.0000)
   9 Li     0.000000    0.000000   11.617037    ( 0.0000,  0.0000,  0.0000)
  10 Li     3.234074    0.000000   11.617037    ( 0.0000,  0.0000,  0.0000)
  11 Li     6.468148    0.000000   11.617037    ( 0.0000,  0.0000,  0.0000)
  12 Li     0.000000    3.234074   11.617037    ( 0.0000,  0.0000,  0.0000)
  13 Li     3.234074    3.234074   11.617037    ( 0.0000,  0.0000,  0.0000)
  14 Li     6.468148    3.234074   11.617037    ( 0.0000,  0.0000,  0.0000)
  15 Li     0.000000    6.468148   11.617037    ( 0.0000,  0.0000,  0.0000)
  16 Li     3.234074    6.468148   11.617037    ( 0.0000,  0.0000,  0.0000)
  17 Li     6.468148    6.468148   11.617037    ( 0.0000,  0.0000,  0.0000)
  18 Li     1.615243    1.616917   13.481912    ( 0.0000,  0.0000,  0.0000)
  19 Li     4.852371    1.617003   13.480543    ( 0.0000,  0.0000,  0.0000)
  20 Li     8.085599    1.618155   13.470674    ( 0.0000,  0.0000,  0.0000)
  21 Li     1.615229    4.850704   13.482411    ( 0.0000,  0.0000,  0.0000)
  22 Li     4.852756    4.850477   13.481354    ( 0.0000,  0.0000,  0.0000)
  23 Li     8.085223    4.850263   13.477785    ( 0.0000,  0.0000,  0.0000)
  24 Li     1.617079    8.085906   13.478664    ( 0.0000,  0.0000,  0.0000)
  25 Li     4.851508    8.085807   13.479543    ( 0.0000,  0.0000,  0.0000)
  26 Li     8.084908    8.084909   13.480688    ( 0.0000,  0.0000,  0.0000)
  27 Li     0.000526   -0.005912   15.444556    ( 0.0000,  0.0000,  0.0000)
  28 Li     3.233805    0.002129   15.440255    ( 0.0000,  0.0000,  0.0000)
  29 Li     6.469678    0.000135   15.449380    ( 0.0000,  0.0000,  0.0000)
  30 Li     0.019601    3.243441   15.378332    ( 0.0000,  0.0000,  0.0000)
  31 Li     3.234184    3.234995   15.439495    ( 0.0000,  0.0000,  0.0000)
  32 Li     6.447921    3.223730   15.413054    ( 0.0000,  0.0000,  0.0000)
  33 Li     0.005805    6.475209   15.427396    ( 0.0000,  0.0000,  0.0000)
  34 Li     3.233580    6.465004   15.442311    ( 0.0000,  0.0000,  0.0000)
  35 Li     6.463140    6.475149   15.428912    ( 0.0000,  0.0000,  0.0000)
  36 O      8.079536    1.621533   18.435527    ( 0.0000,  0.0000,  0.0000)
  37 C      8.888696    2.803771   18.470652    ( 0.0000,  0.0000,  0.0000)
  38 C      8.080287    4.082270   18.462212    ( 0.0000,  0.0000,  0.0000)
  39 H      9.591899    2.783879   19.308700    ( 0.0000,  0.0000,  0.0000)
  40 H      9.526728    2.709911   17.579504    ( 0.0000,  0.0000,  0.0000)
  41 H      8.734427    4.955207   18.411213    ( 0.0000,  0.0000,  0.0000)
  42 H      7.441722    4.138188   17.573917    ( 0.0000,  0.0000,  0.0000)
  43 H      7.443055    4.155202   19.345951    ( 0.0000,  0.0000,  0.0000)
  44 H      7.504380    1.644580   19.209396    ( 0.0000,  0.0000,  0.0000)

Unit cell:
           periodic     x           y           z      points  spacing
  1. axis:    yes    9.702222    0.000000    0.000000    60     0.1617
  2. axis:    yes    0.000000    9.702222    0.000000    60     0.1617
  3. axis:    no     0.000000    0.000000   24.851111   156     0.1593

  Lengths:   9.702222   9.702222  24.851111
  Angles:   90.000000  90.000000  90.000000

Effective grid spacing dv^(1/3) = 0.1609

     iter     time        total  log10-change:
                         energy  eigst   dens
iter:   1 13:57:51  -272.434813  -1.41
iter:   2 14:02:14  -272.417213  -1.98  -1.81
iter:   3 14:07:24  -272.413696c -2.70  -2.16
iter:   4 14:11:57  -272.410426c -2.47  -2.33
Writing to output.gpw (mode='')

iter:   5 14:15:54  -272.410504c -3.40  -2.63
iter:   6 14:20:28  -272.410020c -2.96  -2.68
iter:   7 14:26:36  -272.410156c -2.48  -2.92
iter:   8 14:32:39  -272.409970c -3.68  -2.90
iter:   9 14:39:20  -272.409977c -3.73  -3.26
Writing to output.gpw (mode='')

iter:  10 14:44:21  -272.410112c -3.24  -3.21
iter:  11 14:50:46  -272.410011c -4.25  -3.09
iter:  12 14:57:44  -272.409974c -3.81  -3.25
iter:  13 15:04:29  -272.409986c -4.46  -3.37
iter:  14 15:09:37  -272.409981c -4.79  -3.65
Writing to output.gpw (mode='')

iter:  15 15:15:02  -272.409979c -5.01  -3.75
iter:  16 15:20:51  -272.409978c -5.17  -3.81
iter:  17 15:27:05  -272.409975c -5.49  -3.88
iter:  18 15:32:27  -272.409971c -5.20  -3.94
iter:  19 15:39:28  -272.409970c -5.79  -3.99
Writing to output.gpw (mode='')

iter:  20 15:44:57  -272.409971c -5.79  -4.05c
iter:  21 15:50:02  -272.409970c -5.97  -4.19c
iter:  22 15:55:30  -272.409972c -6.06  -4.31c
iter:  23 16:00:13  -272.409972c -6.30  -4.46c
iter:  24 16:04:52  -272.409972c -6.56  -4.50c
Writing to output.gpw (mode='')

iter:  25 16:11:04  -272.409974c -6.31  -4.64c
iter:  26 16:15:55  -272.409974c -6.74  -4.84c
iter:  27 16:22:42  -272.409974c -6.86  -4.90c
iter:  28 16:29:19  -272.409974c -6.86  -5.10c
iter:  29 16:34:04  -272.409975c -7.12  -5.22c
Writing to output.gpw (mode='')

iter:  30 16:37:44  -272.409974c -7.33  -5.23c
iter:  31 16:41:31  -272.409974c -7.16  -5.24c
iter:  32 16:45:57  -272.409974c -7.66c -5.33c

Converged after 32 iterations.

Dipole moment: (3.466507, -2.804018, 0.335599) |e|*Ang

Energy contributions relative to reference atoms: (reference = -11471.411034)

Kinetic:       +128.597253
Potential:     -120.196789
External:        +0.000000
XC:            -280.979342
Entropy (-ST):   -0.151820
Local:           +0.244814
--------------------------
Free energy:   -272.485884
Extrapolated:  -272.409974

Dipole-layer corrected work functions: 3.389436, 2.744300 eV

Showing only first 2 kpts
 Kpt  Band  Eigenvalues  Occupancy
  0    26     -3.32037    1.98751
  0    27     -3.23857    1.93751
  0    28     -2.89714    0.06493
  0    29     -2.81422    0.01270

  1    26     -3.08545    1.18372
  1    27     -3.05688    0.90046
  1    28     -3.03379    0.68081
  1    29     -3.01950    0.55886


Fermi level: -3.06687

No gap
Writing to output.gpw (mode='')


Forces in eV/Ang:
  0 Li    0.00342    0.00210   -0.27336
  1 Li   -0.00353    0.00177   -0.27313
  2 Li    0.00016   -0.00352   -0.27363
  3 Li    0.00106   -0.00199   -0.27466
  4 Li   -0.00175   -0.00229   -0.27381
  5 Li    0.00066    0.00577   -0.27385
  6 Li   -0.00428   -0.00027   -0.27483
  7 Li    0.00378    0.00042   -0.27515
  8 Li    0.00010   -0.00213   -0.27384
  9 Li    0.00137   -0.00474    0.26798
 10 Li    0.00080    0.00388    0.26753
 11 Li   -0.00226   -0.00394    0.26712
 12 Li    0.00555    0.00295    0.27416
 13 Li   -0.00224   -0.00172    0.26664
 14 Li   -0.00403    0.00204    0.27340
 15 Li   -0.00053    0.00150    0.26482
 16 Li    0.00039   -0.00190    0.27694
 17 Li    0.00025    0.00168    0.26407
 18 Li    0.00501   -0.01180    0.01055
 19 Li   -0.00316   -0.00892    0.01298
 20 Li   -0.00163   -0.00807   -0.01323
 21 Li    0.00984    0.01032    0.00517
 22 Li   -0.00212    0.00284    0.01351
 23 Li   -0.00752    0.00600   -0.00035
 24 Li    0.00430    0.00470    0.01393
 25 Li   -0.00140    0.00534    0.01828
 26 Li   -0.00196    0.00416    0.01782
 27 Li    0.00128   -0.01021    0.00348
 28 Li    0.00100    0.00582   -0.01099
 29 Li    0.00377   -0.00024    0.01567
 30 Li    0.03999    0.01749   -0.14218
 31 Li   -0.00081    0.00124   -0.01299
 32 Li   -0.04206   -0.02254   -0.07117
 33 Li    0.01391    0.01917   -0.04466
 34 Li   -0.00220   -0.00771   -0.00590
 35 Li   -0.01089    0.01571   -0.04017
 36 O    -0.06997   -0.01279    0.05218
 37 C     0.29128   -0.15830   -0.22233
 38 C    -0.05787    0.11008   -0.19112
 39 H    -0.05665   -0.03852    0.22470
 40 H    -0.09272    0.12769    0.03323
 41 H     0.05568    0.04324    0.15967
 42 H    -0.03871   -0.05901    0.08570
 43 H     0.00916    0.05187    0.06982
 44 H    -0.06888   -0.09287    0.04184

System changes: positions 

Initializing position-dependent things.

Density initialized from wave functions
       .-----------------------.  
      /|                       |  
     / |                       |  
    /  |                       |  
   /   |                       |  
  /    |                       |  
 *     |                       |  
 |     |                       |  
 |     |                       |  
 |     |                       |  
 |     |              H        |  
 |     |                C H    |  
 |     Li            H   C     |  
 |     |              O   H    |  
 |   Li|     Li      Li        |  
 |     |  Li      Li      Li   |  
 | Li  |   Li      Li          |  
 |     |Li      Li      Li     |  
 |     | Li      Li            |  
 |   LLi     LLi     LLi       |  
 |     |  Li      Li      Li   |  
 | Li  |   Li      Li          |  
 |     |Li      Li      Li     |  
 Li    | Li      Li            |  
 |    Li      Li      Li       |  
 |     |                       |  
 |     |                       |  
 |     |                       |  
 |     |                       |  
 |     |                       |  
 |     |                       |  
 |     .-----------------------.  
 |    /                       /   
 |   /                       /    
 |  /                       /     
 | /                       /      
 |/                       /       
 *-----------------------*        

Positions:
   0 Li     1.617037    1.617037   10.000000    ( 0.0000,  0.0000,  0.0000)
   1 Li     4.851111    1.617037   10.000000    ( 0.0000,  0.0000,  0.0000)
   2 Li     8.085185    1.617037   10.000000    ( 0.0000,  0.0000,  0.0000)
   3 Li     1.617037    4.851111   10.000000    ( 0.0000,  0.0000,  0.0000)
   4 Li     4.851111    4.851111   10.000000    ( 0.0000,  0.0000,  0.0000)
   5 Li     8.085185    4.851111   10.000000    ( 0.0000,  0.0000,  0.0000)
   6 Li     1.617037    8.085185   10.000000    ( 0.0000,  0.0000,  0.0000)
   7 Li     4.851111    8.085185   10.000000    ( 0.0000,  0.0000,  0.0000)
   8 Li     8.085185    8.085185   10.000000    ( 0.0000,  0.0000,  0.0000)
   9 Li     0.000000    0.000000   11.617037    ( 0.0000,  0.0000,  0.0000)
  10 Li     3.234074    0.000000   11.617037    ( 0.0000,  0.0000,  0.0000)
  11 Li     6.468148    0.000000   11.617037    ( 0.0000,  0.0000,  0.0000)
  12 Li     0.000000    3.234074   11.617037    ( 0.0000,  0.0000,  0.0000)
  13 Li     3.234074    3.234074   11.617037    ( 0.0000,  0.0000,  0.0000)
  14 Li     6.468148    3.234074   11.617037    ( 0.0000,  0.0000,  0.0000)
  15 Li     0.000000    6.468148   11.617037    ( 0.0000,  0.0000,  0.0000)
  16 Li     3.234074    6.468148   11.617037    ( 0.0000,  0.0000,  0.0000)
  17 Li     6.468148    6.468148   11.617037    ( 0.0000,  0.0000,  0.0000)
  18 Li     1.614755    1.616576   13.486351    ( 0.0000,  0.0000,  0.0000)
  19 Li     4.852723    1.616765   13.484573    ( 0.0000,  0.0000,  0.0000)
  20 Li     8.085700    1.618334   13.470665    ( 0.0000,  0.0000,  0.0000)
  21 Li     1.614860    4.850827   13.486884    ( 0.0000,  0.0000,  0.0000)
  22 Li     4.853266    4.850332   13.485676    ( 0.0000,  0.0000,  0.0000)
  23 Li     8.085046    4.850125   13.480534    ( 0.0000,  0.0000,  0.0000)
  24 Li     1.617202    8.086273   13.482076    ( 0.0000,  0.0000,  0.0000)
  25 Li     4.851609    8.086156   13.483365    ( 0.0000,  0.0000,  0.0000)
  26 Li     8.084765    8.084920   13.484891    ( 0.0000,  0.0000,  0.0000)
  27 Li     0.000739   -0.008195   15.444168    ( 0.0000,  0.0000,  0.0000)
  28 Li     3.233738    0.003006   15.438031    ( 0.0000,  0.0000,  0.0000)
  29 Li     6.470299    0.000176   15.450956    ( 0.0000,  0.0000,  0.0000)
  30 Li     0.027327    3.247093   15.351563    ( 0.0000,  0.0000,  0.0000)
  31 Li     3.234200    3.235341   15.436960    ( 0.0000,  0.0000,  0.0000)
  32 Li     6.439929    3.219615   15.399988    ( 0.0000,  0.0000,  0.0000)
  33 Li     0.008144    6.478111   15.419918    ( 0.0000,  0.0000,  0.0000)
  34 Li     3.233355    6.463732   15.440921    ( 0.0000,  0.0000,  0.0000)
  35 Li     6.461151    6.477946   15.422065    ( 0.0000,  0.0000,  0.0000)
  36 O      8.076001    1.622624   18.433042    ( 0.0000,  0.0000,  0.0000)
  37 C      8.890352    2.801864   18.473389    ( 0.0000,  0.0000,  0.0000)
  38 C      8.078757    4.084062   18.467461    ( 0.0000,  0.0000,  0.0000)
  39 H      9.592599    2.780538   19.313534    ( 0.0000,  0.0000,  0.0000)
  40 H      9.530125    2.708119   17.590505    ( 0.0000,  0.0000,  0.0000)
  41 H      8.735189    4.954559   18.412080    ( 0.0000,  0.0000,  0.0000)
  42 H      7.443226    4.143545   17.580689    ( 0.0000,  0.0000,  0.0000)
  43 H      7.439812    4.156903   19.353432    ( 0.0000,  0.0000,  0.0000)
  44 H      7.503415    1.638367   19.208883    ( 0.0000,  0.0000,  0.0000)

Unit cell:
           periodic     x           y           z      points  spacing
  1. axis:    yes    9.702222    0.000000    0.000000    60     0.1617
  2. axis:    yes    0.000000    9.702222    0.000000    60     0.1617
  3. axis:    no     0.000000    0.000000   24.851111   156     0.1593

  Lengths:   9.702222   9.702222  24.851111
  Angles:   90.000000  90.000000  90.000000

Effective grid spacing dv^(1/3) = 0.1609

     iter     time        total  log10-change:
                         energy  eigst   dens
iter:   1 16:51:33  -272.432103  -1.52
iter:   2 16:55:37  -272.422442  -2.08  -1.92
iter:   3 16:59:24  -272.420384c -2.73  -2.25
iter:   4 17:03:40  -272.417045c -2.55  -2.35
Writing to output.gpw (mode='')

iter:   5 17:07:27  -272.417133c -3.49  -2.65
iter:   6 17:10:24  -272.416585c -2.99  -2.70
iter:   7 17:13:17  -272.416603c -2.56  -2.93
iter:   8 17:16:32  -272.416523c -3.80  -3.01
iter:   9 17:19:14  -272.416520c -3.76  -3.27
Writing to output.gpw (mode='')

iter:  10 17:24:55  -272.416648c -3.18  -3.25
iter:  11 17:31:23  -272.416618c -4.05  -3.12
iter:  12 17:36:21  -272.416519c -3.79  -3.16
iter:  13 17:41:00  -272.416529c -4.76  -3.43
iter:  14 17:47:00  -272.416536c -4.54  -3.63
Writing to output.gpw (mode='')

iter:  15 17:50:20  -272.416527c -4.98  -3.64
iter:  16 17:52:41  -272.416522c -5.11  -3.80
iter:  17 17:55:57  -272.416523c -5.38  -3.87
iter:  18 17:58:50  -272.416523c -5.62  -3.91
iter:  19 18:03:33  -272.416513c -5.21  -3.96
Writing to output.gpw (mode='')

iter:  20 18:07:11  -272.416517c -5.78  -4.02c
iter:  21 18:10:23  -272.416520c -5.65  -4.32c
iter:  22 18:14:02  -272.416517c -6.27  -4.37c
iter:  23 18:18:20  -272.416518c -6.36  -4.47c
iter:  24 18:21:46  -272.416519c -6.47  -4.55c
Writing to output.gpw (mode='')

iter:  25 18:24:28  -272.416518c -6.73  -4.63c
iter:  26 18:28:56  -272.416519c -6.80  -4.68c
iter:  27 18:34:35  -272.416519c -6.76  -4.91c
iter:  28 18:39:31  -272.416519c -7.03  -5.04c
iter:  29 18:43:57  -272.416519c -7.07  -5.08c
Writing to output.gpw (mode='')

iter:  30 18:48:12  -272.416519c -7.01  -5.14c
iter:  31 18:52:50  -272.416519c -7.33  -5.23c
iter:  32 18:57:20  -272.416519c -7.57c -5.27c

Converged after 32 iterations.

Dipole moment: (3.289587, -2.786571, 0.330638) |e|*Ang

Energy contributions relative to reference atoms: (reference = -11471.411034)

Kinetic:       +128.686572
Potential:     -120.251308
External:        +0.000000
XC:            -281.020411
Entropy (-ST):   -0.151573
Local:           +0.244415
--------------------------
Free energy:   -272.492306
Extrapolated:  -272.416519

Dipole-layer corrected work functions: 3.389310, 2.753709 eV

Showing only first 2 kpts
 Kpt  Band  Eigenvalues  Occupancy
  0    26     -3.32537    1.98760
  0    27     -3.24393    1.93837
  0    28     -2.90011    0.06286
  0    29     -2.81930    0.01281

  1    26     -3.08902    1.17333
  1    27     -3.06089    0.89416
  1    28     -3.03957    0.69105
  1    29     -3.02425    0.55967


Fermi level: -3.07151

No gap
Writing to output.gpw (mode='')


Forces in eV/Ang:
  0 Li    0.00342    0.00235   -0.27406
  1 Li   -0.00352    0.00198   -0.27348
  2 Li    0.00015   -0.00356   -0.27464
  3 Li    0.00106   -0.00206   -0.27565
  4 Li   -0.00187   -0.00259   -0.27432
  5 Li    0.00076    0.00584   -0.27519
  6 Li   -0.00458   -0.00040   -0.27505
  7 Li    0.00395    0.00036   -0.27542
  8 Li    0.00021   -0.00216   -0.27407
  9 Li    0.00220   -0.00537    0.27086
 10 Li    0.00086    0.00383    0.27026
 11 Li   -0.00314   -0.00468    0.26956
 12 Li    0.00683    0.00353    0.27892
 13 Li   -0.00268   -0.00193    0.27141
 14 Li   -0.00494    0.00239    0.27737
 15 Li   -0.00031    0.00134    0.26922
 16 Li    0.00084   -0.00156    0.28059
 17 Li   -0.00040    0.00221    0.26775
 18 Li    0.01026   -0.01708   -0.00381
 19 Li   -0.00667   -0.01295    0.00143
 20 Li   -0.00296   -0.01314   -0.01942
 21 Li    0.01742    0.01593   -0.01250
 22 Li   -0.00564    0.00519    0.00119
 23 Li   -0.01094    0.00993   -0.01300
 24 Li    0.00615    0.00570    0.00597
 25 Li   -0.00266    0.00670    0.01080
 26 Li   -0.00238    0.00642    0.00833
 27 Li    0.00094   -0.00546    0.00658
 28 Li    0.00178    0.00494   -0.00667
 29 Li    0.00326   -0.00020    0.01733
 30 Li    0.02768    0.01178   -0.10609
 31 Li   -0.00145    0.00047   -0.00860
 32 Li   -0.02860   -0.01665   -0.05191
 33 Li    0.01080    0.01578   -0.03442
 34 Li   -0.00235   -0.00617   -0.00266
 35 Li   -0.00792    0.01165   -0.03066
 36 O    -0.05691   -0.02969    0.04579
 37 C     0.12801   -0.07867   -0.05478
 38 C     0.02959    0.03026   -0.10233
 39 H    -0.09978   -0.04183    0.21862
 40 H    -0.02400    0.13144   -0.12347
 41 H     0.06013    0.06403    0.19348
 42 H    -0.09661   -0.08410    0.02078
 43 H     0.07953    0.04614   -0.00580
 44 H    -0.05975   -0.07481    0.04572

System changes: positions 

Initializing position-dependent things.

Density initialized from wave functions
       .-----------------------.  
      /|                       |  
     / |                       |  
    /  |                       |  
   /   |                       |  
  /    |                       |  
 *     |                       |  
 |     |                       |  
 |     |                       |  
 |     |                       |  
 |     |              H        |  
 |     |                C H    |  
 |     Li            HH  C     |  
 |     |              O   H    |  
 |   Li|     Li      Li        |  
 |     |  Li      Li      Li   |  
 | Li  |   Li      Li          |  
 |     |Li      Li      Li     |  
 |     | Li      Li            |  
 |   LLi     LLi     LLi       |  
 |     |  Li      Li      Li   |  
 | Li  |   Li      Li          |  
 |     |Li      Li      Li     |  
 Li    | Li      Li            |  
 |    Li      Li      Li       |  
 |     |                       |  
 |     |                       |  
 |     |                       |  
 |     |                       |  
 |     |                       |  
 |     |                       |  
 |     .-----------------------.  
 |    /                       /   
 |   /                       /    
 |  /                       /     
 | /                       /      
 |/                       /       
 *-----------------------*        

Positions:
   0 Li     1.617037    1.617037   10.000000    ( 0.0000,  0.0000,  0.0000)
   1 Li     4.851111    1.617037   10.000000    ( 0.0000,  0.0000,  0.0000)
   2 Li     8.085185    1.617037   10.000000    ( 0.0000,  0.0000,  0.0000)
   3 Li     1.617037    4.851111   10.000000    ( 0.0000,  0.0000,  0.0000)
   4 Li     4.851111    4.851111   10.000000    ( 0.0000,  0.0000,  0.0000)
   5 Li     8.085185    4.851111   10.000000    ( 0.0000,  0.0000,  0.0000)
   6 Li     1.617037    8.085185   10.000000    ( 0.0000,  0.0000,  0.0000)
   7 Li     4.851111    8.085185   10.000000    ( 0.0000,  0.0000,  0.0000)
   8 Li     8.085185    8.085185   10.000000    ( 0.0000,  0.0000,  0.0000)
   9 Li     0.000000    0.000000   11.617037    ( 0.0000,  0.0000,  0.0000)
  10 Li     3.234074    0.000000   11.617037    ( 0.0000,  0.0000,  0.0000)
  11 Li     6.468148    0.000000   11.617037    ( 0.0000,  0.0000,  0.0000)
  12 Li     0.000000    3.234074   11.617037    ( 0.0000,  0.0000,  0.0000)
  13 Li     3.234074    3.234074   11.617037    ( 0.0000,  0.0000,  0.0000)
  14 Li     6.468148    3.234074   11.617037    ( 0.0000,  0.0000,  0.0000)
  15 Li     0.000000    6.468148   11.617037    ( 0.0000,  0.0000,  0.0000)
  16 Li     3.234074    6.468148   11.617037    ( 0.0000,  0.0000,  0.0000)
  17 Li     6.468148    6.468148   11.617037    ( 0.0000,  0.0000,  0.0000)
  18 Li     1.614550    1.615920   13.490110    ( 0.0000,  0.0000,  0.0000)
  19 Li     4.852886    1.616285   13.488087    ( 0.0000,  0.0000,  0.0000)
  20 Li     8.085725    1.618212   13.470252    ( 0.0000,  0.0000,  0.0000)
  21 Li     1.614909    4.851270   13.490489    ( 0.0000,  0.0000,  0.0000)
  22 Li     4.853588    4.850316   13.489438    ( 0.0000,  0.0000,  0.0000)
  23 Li     8.084662    4.850214   13.482638    ( 0.0000,  0.0000,  0.0000)
  24 Li     1.617438    8.086711   13.485153    ( 0.0000,  0.0000,  0.0000)
  25 Li     4.851639    8.086599   13.486899    ( 0.0000,  0.0000,  0.0000)
  26 Li     8.084590    8.085066   13.488701    ( 0.0000,  0.0000,  0.0000)
  27 Li     0.000942   -0.010285   15.443970    ( 0.0000,  0.0000,  0.0000)
  28 Li     3.233717    0.003868   15.435968    ( 0.0000,  0.0000,  0.0000)
  29 Li     6.470905    0.000209   15.452685    ( 0.0000,  0.0000,  0.0000)
  30 Li     0.034597    3.250504   15.326149    ( 0.0000,  0.0000,  0.0000)
  31 Li     3.234183    3.235651   15.434586    ( 0.0000,  0.0000,  0.0000)
  32 Li     6.432416    3.215703   15.387587    ( 0.0000,  0.0000,  0.0000)
  33 Li     0.010395    6.480951   15.412726    ( 0.0000,  0.0000,  0.0000)
  34 Li     3.233110    6.462503   15.439662    ( 0.0000,  0.0000,  0.0000)
  35 Li     6.459262    6.480611   15.415498    ( 0.0000,  0.0000,  0.0000)
  36 O      8.071692    1.622921   18.431928    ( 0.0000,  0.0000,  0.0000)
  37 C      8.893462    2.799103   18.475533    ( 0.0000,  0.0000,  0.0000)
  38 C      8.078411    4.085805   18.470608    ( 0.0000,  0.0000,  0.0000)
  39 H      9.591078    2.776776   19.321951    ( 0.0000,  0.0000,  0.0000)
  40 H      9.532984    2.709091   17.597060    ( 0.0000,  0.0000,  0.0000)
  41 H      8.737033    4.955313   18.416724    ( 0.0000,  0.0000,  0.0000)
  42 H      7.442413    4.146524   17.586725    ( 0.0000,  0.0000,  0.0000)
  43 H      7.438848    4.159253   19.359516    ( 0.0000,  0.0000,  0.0000)
  44 H      7.501616    1.631543   19.209121    ( 0.0000,  0.0000,  0.0000)

Unit cell:
           periodic     x           y           z      points  spacing
  1. axis:    yes    9.702222    0.000000    0.000000    60     0.1617
  2. axis:    yes    0.000000    9.702222    0.000000    60     0.1617
  3. axis:    no     0.000000    0.000000   24.851111   156     0.1593

  Lengths:   9.702222   9.702222  24.851111
  Angles:   90.000000  90.000000  90.000000

Effective grid spacing dv^(1/3) = 0.1609

     iter     time        total  log10-change:
                         energy  eigst   dens
iter:   1 19:01:12  -272.432027  -1.56
iter:   2 19:06:20  -272.427837  -2.16  -2.06
iter:   3 19:11:20  -272.426613c -2.77  -2.33
iter:   4 19:16:39  -272.423076c -2.54  -2.35
Writing to output.gpw (mode='')

iter:   5 19:22:31  -272.423353c -3.74  -2.68
iter:   6 19:28:48  -272.422742c -3.12  -2.69
iter:   7 19:34:35  -272.422669c -2.53  -2.89
iter:   8 19:41:41  -272.422601c -3.86  -3.02
iter:   9 19:46:14  -272.422589c -3.77  -3.29
Writing to output.gpw (mode='')

iter:  10 19:51:22  -272.422718c -3.21  -3.28
iter:  11 19:58:07  -272.422682c -4.10  -3.13
iter:  12 20:04:10  -272.422641c -4.41  -3.18
iter:  13 20:07:49  -272.422591c -4.11  -3.38
iter:  14 20:13:50  -272.422593c -4.95  -3.76
Writing to output.gpw (mode='')

iter:  15 20:17:37  -272.422596c -5.45  -3.77
iter:  16 20:22:18  -272.422594c -5.11  -3.83
iter:  17 20:25:52  -272.422587c -5.07  -3.85
iter:  18 20:31:08  -272.422588c -5.86  -4.08c
iter:  19 20:34:31  -272.422590c -5.67  -4.19c
Writing to output.gpw (mode='')

iter:  20 20:39:04  -272.422588c -5.89  -4.25c
iter:  21 20:45:34  -272.422588c -6.01  -4.40c
iter:  22 20:50:07  -272.422589c -6.29  -4.46c
iter:  23 20:56:39  -272.422589c -6.44  -4.54c
iter:  24 21:02:13  -272.422588c -6.42  -4.69c
Writing to output.gpw (mode='')

iter:  25 21:08:49  -272.422588c -6.69  -4.83c
iter:  26 21:13:20  -272.422588c -7.02  -5.02c
iter:  27 21:18:55  -272.422589c -7.07  -5.06c
iter:  28 21:24:19  -272.422589c -7.04  -5.12c
iter:  29 21:27:53  -272.422589c -7.34  -5.27c
Writing to output.gpw (mode='')

iter:  30 21:30:51  -272.422589c -7.31  -5.30c
iter:  31 21:34:05  -272.422589c -7.29  -5.35c
iter:  32 21:37:33  -272.422589c -7.46c -5.42c

Converged after 32 iterations.

Dipole moment: (3.190963, -2.771935, 0.326884) |e|*Ang

Energy contributions relative to reference atoms: (reference = -11471.411034)

Kinetic:       +128.549279
Potential:     -120.137189
External:        +0.000000
XC:            -281.003183
Entropy (-ST):   -0.151324
Local:           +0.244166
--------------------------
Free energy:   -272.498251
Extrapolated:  -272.422589

Dipole-layer corrected work functions: 3.389267, 2.760884 eV

Showing only first 2 kpts
 Kpt  Band  Eigenvalues  Occupancy
  0    26     -3.32941    1.98772
  0    27     -3.24817    1.93916
  0    28     -2.90216    0.06104
  0    29     -2.82345    0.01296

  1    26     -3.09161    1.16385
  1    27     -3.06423    0.89198
  1    28     -3.04385    0.69752
  1    29     -3.02773    0.55899


Fermi level: -3.07508

No gap
Writing to output.gpw (mode='')


Forces in eV/Ang:
  0 Li    0.00341    0.00256   -0.27470
  1 Li   -0.00352    0.00218   -0.27381
  2 Li    0.00015   -0.00364   -0.27559
  3 Li    0.00114   -0.00209   -0.27658
  4 Li   -0.00205   -0.00287   -0.27479
  5 Li    0.00084    0.00589   -0.27645
  6 Li   -0.00485   -0.00055   -0.27524
  7 Li    0.00408    0.00030   -0.27572
  8 Li    0.00033   -0.00213   -0.27429
  9 Li    0.00305   -0.00605    0.27324
 10 Li    0.00096    0.00357    0.27238
 11 Li   -0.00407   -0.00548    0.27153
 12 Li    0.00807    0.00405    0.28331
 13 Li   -0.00303   -0.00220    0.27564
 14 Li   -0.00590    0.00263    0.28097
 15 Li   -0.00009    0.00132    0.27323
 16 Li    0.00142   -0.00093    0.28359
 17 Li   -0.00116    0.00292    0.27101
 18 Li    0.01514   -0.02196   -0.01695
 19 Li   -0.00991   -0.01665   -0.00915
 20 Li   -0.00416   -0.01759   -0.02434
 21 Li    0.02447    0.02120   -0.02865
 22 Li   -0.00887    0.00734   -0.00999
 23 Li   -0.01404    0.01343   -0.02446
 24 Li    0.00783    0.00665   -0.00131
 25 Li   -0.00382    0.00792    0.00386
 26 Li   -0.00272    0.00853   -0.00035
 27 Li    0.00057   -0.00088    0.00917
 28 Li    0.00251    0.00402   -0.00256
 29 Li    0.00288   -0.00001    0.01879
 30 Li    0.01670    0.00688   -0.07579
 31 Li   -0.00209   -0.00017   -0.00474
 32 Li   -0.01639   -0.01158   -0.03536
 33 Li    0.00788    0.01229   -0.02480
 34 Li   -0.00244   -0.00473    0.00036
 35 Li   -0.00523    0.00781   -0.02164
 36 O     0.00077   -0.03307   -0.00687
 37 C    -0.06673    0.01117    0.11533
 38 C     0.10494   -0.04402    0.01433
 39 H    -0.13102   -0.04793    0.15950
 40 H     0.02878    0.10389   -0.21371
 41 H     0.04596    0.05620    0.18806
 42 H    -0.11676   -0.08741   -0.03089
 43 H     0.13778    0.02924   -0.07488
 44 H    -0.05567   -0.03993    0.06732

System changes: positions 

Initializing position-dependent things.

Density initialized from wave functions
       .-----------------------.  
      /|                       |  
     / |                       |  
    /  |                       |  
   /   |                       |  
  /    |                       |  
 *     |                       |  
 |     |                       |  
 |     |                       |  
 |     |                       |  
 |     |              H        |  
 |     |                C H    |  
 |     Li            HH  C     |  
 |     |              O   H    |  
 |   Li|     Li      Li        |  
 |     |  Li      Li      Li   |  
 | Li  |   Li      Li          |  
 |     |Li      Li      Li     |  
 |     | Li      Li            |  
 |   LLi     LLi     LLi       |  
 |     |  Li      Li      Li   |  
 | Li  |   Li      Li          |  
 |     |Li      Li      Li     |  
 Li    | Li      Li            |  
 |    Li      Li      Li       |  
 |     |                       |  
 |     |                       |  
 |     |                       |  
 |     |                       |  
 |     |                       |  
 |     |                       |  
 |     .-----------------------.  
 |    /                       /   
 |   /                       /    
 |  /                       /     
 | /                       /      
 |/                       /       
 *-----------------------*        

Positions:
   0 Li     1.617037    1.617037   10.000000    ( 0.0000,  0.0000,  0.0000)
[...]
  44 H      7.495593    1.615822   19.212494    ( 0.0000,  0.0000,  0.0000)

Unit cell:
           periodic     x           y           z      points  spacing
  1. axis:    yes    9.702222    0.000000    0.000000    60     0.1617
  2. axis:    yes    0.000000    9.702222    0.000000    60     0.1617
  3. axis:    no     0.000000    0.000000   24.851111   156     0.1593

  Lengths:   9.702222   9.702222  24.851111
  Angles:   90.000000  90.000000  90.000000

Effective grid spacing dv^(1/3) = 0.1609

     iter     time        total  log10-change:
                         energy  eigst   dens
iter:   1 23:41:18  -272.442362  -1.51
iter:   2 23:46:48  -272.441442  -2.21  -2.26
iter:   3 23:50:39  -272.440771c -2.70  -2.23
iter:   4 23:53:23  -272.435928c -2.64  -2.27
Writing to output.gpw (mode='')

iter:   5 23:57:20  -272.435982c -3.44  -2.60
iter:   6 23:59:53  -272.435163c -2.58  -2.66
iter:   7 00:02:58  -272.436067c -2.11  -2.93
iter:   8 00:06:25  -272.435157c -3.27  -2.64
iter:   9 00:09:10  -272.435167c -3.57  -3.16
Writing to output.gpw (mode='')

iter:  10 00:12:28  -272.435361c -3.32  -3.16
iter:  11 00:15:01  -272.435275c -4.22  -3.03
iter:  12 00:17:39  -272.435151c -3.78  -3.14
iter:  13 00:20:52  -272.435156c -4.64  -3.63
iter:  14 00:23:05  -272.435160c -5.20  -3.70
Writing to output.gpw (mode='')

iter:  15 00:26:12  -272.435157c -4.88  -3.72
iter:  16 00:29:18  -272.435151c -4.47  -3.83
iter:  17 00:33:11  -272.435153c -5.37  -3.80
iter:  18 00:36:03  -272.435160c -5.10  -3.92
iter:  19 00:40:00  -272.435154c -5.66  -4.05c
Writing to output.gpw (mode='')

iter:  20 00:42:50  -272.435154c -5.88  -4.20c
iter:  21 00:45:04  -272.435156c -5.93  -4.29c
iter:  22 00:47:10  -272.435155c -6.60  -4.46c
iter:  23 00:49:34  -272.435155c -6.37  -4.54c
iter:  24 00:51:53  -272.435155c -6.91  -4.65c
Writing to output.gpw (mode='')

iter:  25 00:55:19  -272.435157c -6.54  -4.69c
iter:  26 00:58:51  -272.435156c -6.75  -4.76c
iter:  27 01:01:33  -272.435157c -7.01  -4.83c
iter:  28 01:04:03  -272.435157c -6.89  -5.06c
iter:  29 01:06:28  -272.435157c -7.29  -5.11c
Writing to output.gpw (mode='')

iter:  30 01:08:51  -272.435157c -7.30  -5.25c
iter:  31 01:11:58  -272.435157c -7.25  -5.32c
iter:  32 01:14:58  -272.435157c -7.69c -5.34c

Converged after 32 iterations.

Dipole moment: (3.180675, -2.751572, 0.322683) |e|*Ang

Energy contributions relative to reference atoms: (reference = -11471.411034)

Kinetic:       +127.843734
Potential:     -119.598523
External:        +0.000000
XC:            -280.848188
Entropy (-ST):   -0.150772
Local:           +0.243206
--------------------------
Free energy:   -272.510543
Extrapolated:  -272.435157

Dipole-layer corrected work functions: 3.389173, 2.768866 eV

Showing only first 2 kpts
 Kpt  Band  Eigenvalues  Occupancy
  0    26     -3.33493    1.98810
  0    27     -3.25343    1.94070
  0    28     -2.90329    0.05780
  0    29     -2.82932    0.01347

  1    26     -3.09374    1.14611
  1    27     -3.06887    0.89889
  1    28     -3.04809    0.70020
  1    29     -3.03093    0.55303


Fermi level: -3.07902

No gap
Writing to output.gpw (mode='')


Forces in eV/Ang:
  0 Li    0.00338    0.00295   -0.27595
  1 Li   -0.00345    0.00255   -0.27436
  2 Li    0.00010   -0.00394   -0.27747
  3 Li    0.00147   -0.00206   -0.27842
  4 Li   -0.00255   -0.00344   -0.27556
  5 Li    0.00098    0.00596   -0.27906
  6 Li   -0.00543   -0.00089   -0.27552
  7 Li    0.00434    0.00019   -0.27637
  8 Li    0.00057   -0.00192   -0.27460
  9 Li    0.00496   -0.00794    0.27675
 10 Li    0.00152    0.00213    0.27473
 11 Li   -0.00645   -0.00759    0.27411
 12 Li    0.01084    0.00503    0.29206
 13 Li   -0.00350   -0.00311    0.28300
 14 Li   -0.00837    0.00274    0.28776
 15 Li    0.00034    0.00202    0.28075
 16 Li    0.00330    0.00175    0.28783
 17 Li   -0.00335    0.00530    0.27681
 18 Li    0.02447   -0.03109   -0.04201
 19 Li   -0.01587   -0.02342   -0.02918
 20 Li   -0.00645   -0.02539   -0.03131
 21 Li    0.03780    0.03128   -0.05901
 22 Li   -0.01488    0.01125   -0.03101
 23 Li   -0.01953    0.01969   -0.04554
 24 Li    0.01088    0.00858   -0.01513
 25 Li   -0.00597    0.01000   -0.00987
 26 Li   -0.00326    0.01268   -0.01703
 27 Li   -0.00010    0.00910    0.01373
 28 Li    0.00411    0.00158    0.00586
 29 Li    0.00204    0.00066    0.02085
 30 Li   -0.00669   -0.00292   -0.01791
 31 Li   -0.00344   -0.00132    0.00189
 32 Li    0.00760   -0.00156   -0.00468
 33 Li    0.00174    0.00418   -0.00574
 34 Li   -0.00224   -0.00138    0.00603
 35 Li    0.00004   -0.00035   -0.00304
 36 O     0.07665   -0.00556   -0.04066
 37 C    -0.24634    0.13430    0.20039
 38 C     0.10637   -0.08790    0.14128
 39 H    -0.15147   -0.05825   -0.03404
 40 H     0.00081    0.01821   -0.06852
 41 H     0.00862   -0.01897    0.09190
 42 H    -0.00804   -0.05834   -0.02137
 43 H     0.13864   -0.01599   -0.08485
 44 H     0.02562    0.02699    0.00848

System changes: positions 

Initializing position-dependent things.

Density initialized from wave functions
       .-----------------------.  
      /|                       |  
     / |                       |  
    /  |                       |  
   /   |                       |  
  /    |                       |  
 *     |                       |  
 |     |                       |  
 |     |                       |  
 |     |                       |  
 |     |              H        |  
 |     |                C H    |  
 |     Li            HH  C     |  
 |     |              O   H    |  
 |   Li|     Li      Li        |  
 |     |  Li      Li      Li   |  
 | Li  |   Li      Li          |  
 |     |Li      Li      Li     |  
 |     | Li      Li            |  
 |   LLi     LLi     LLi       |  
 |     |  Li      Li      Li   |  
 | Li  |   Li      Li          |  
 |     |Li      Li      Li     |  
 Li    | Li      Li            |  
 |    Li      Li      Li       |  
 |     |                       |  
 |     |                       |  
 |     |                       |  
 |     |                       |  
 |     |                       |  
 |     |                       |  
 |     .-----------------------.  
 |    /                       /   
 |   /                       /    
 |  /                       /     
 | /                       /      
 |/                       /       
 *-----------------------*        

Positions:
   0 Li     1.617037    1.617037   10.000000    ( 0.0000,  0.0000,  0.0000)
   1 Li     4.851111    1.617037   10.000000    ( 0.0000,  0.0000,  0.0000)
   2 Li     8.085185    1.617037   10.000000    ( 0.0000,  0.0000,  0.0000)
   3 Li     1.617037    4.851111   10.000000    ( 0.0000,  0.0000,  0.0000)
   4 Li     4.851111    4.851111   10.000000    ( 0.0000,  0.0000,  0.0000)
   5 Li     8.085185    4.851111   10.000000    ( 0.0000,  0.0000,  0.0000)
   6 Li     1.617037    8.085185   10.000000    ( 0.0000,  0.0000,  0.0000)
   7 Li     4.851111    8.085185   10.000000    ( 0.0000,  0.0000,  0.0000)
   8 Li     8.085185    8.085185   10.000000    ( 0.0000,  0.0000,  0.0000)
   9 Li     0.000000    0.000000   11.617037    ( 0.0000,  0.0000,  0.0000)
  10 Li     3.234074    0.000000   11.617037    ( 0.0000,  0.0000,  0.0000)
  11 Li     6.468148    0.000000   11.617037    ( 0.0000,  0.0000,  0.0000)
  12 Li     0.000000    3.234074   11.617037    ( 0.0000,  0.0000,  0.0000)
  13 Li     3.234074    3.234074   11.617037    ( 0.0000,  0.0000,  0.0000)
  14 Li     6.468148    3.234074   11.617037    ( 0.0000,  0.0000,  0.0000)
  15 Li     0.000000    6.468148   11.617037    ( 0.0000,  0.0000,  0.0000)
  16 Li     3.234074    6.468148   11.617037    ( 0.0000,  0.0000,  0.0000)
  17 Li     6.468148    6.468148   11.617037    ( 0.0000,  0.0000,  0.0000)
  18 Li     1.616225    1.611356   13.496195    ( 0.0000,  0.0000,  0.0000)
  19 Li     4.851864    1.612872   13.494724    ( 0.0000,  0.0000,  0.0000)
  20 Li     8.085197    1.615501   13.466032    ( 0.0000,  0.0000,  0.0000)
  21 Li     1.618465    4.855264   13.494599    ( 0.0000,  0.0000,  0.0000)
  22 Li     4.853071    4.851306   13.496529    ( 0.0000,  0.0000,  0.0000)
  23 Li     8.081838    4.852284   13.483976    ( 0.0000,  0.0000,  0.0000)
  24 Li     1.619064    8.088638   13.491905    ( 0.0000,  0.0000,  0.0000)
  25 Li     4.851173    8.088699   13.495378    ( 0.0000,  0.0000,  0.0000)
  26 Li     8.083821    8.086599   13.497235    ( 0.0000,  0.0000,  0.0000)
  27 Li     0.001476   -0.015058   15.444787    ( 0.0000,  0.0000,  0.0000)
  28 Li     3.234033    0.006341   15.430988    ( 0.0000,  0.0000,  0.0000)
  29 Li     6.472675    0.000300   15.459190    ( 0.0000,  0.0000,  0.0000)
  30 Li     0.053256    3.259170   15.258071    ( 0.0000,  0.0000,  0.0000)
  31 Li     3.233846    3.236332   15.428537    ( 0.0000,  0.0000,  0.0000)
  32 Li     6.413205    3.205250   15.354587    ( 0.0000,  0.0000,  0.0000)
  33 Li     0.016549    6.489003   15.393080    ( 0.0000,  0.0000,  0.0000)
  34 Li     3.232234    6.459092   15.436877    ( 0.0000,  0.0000,  0.0000)
  35 Li     6.454275    6.487674   15.397733    ( 0.0000,  0.0000,  0.0000)
  36 O      8.061297    1.621032   18.431124    ( 0.0000,  0.0000,  0.0000)
  37 C      8.896802    2.793613   18.486655    ( 0.0000,  0.0000,  0.0000)
  38 C      8.085888    4.087435   18.477472    ( 0.0000,  0.0000,  0.0000)
  39 H      9.571094    2.761353   19.357048    ( 0.0000,  0.0000,  0.0000)
  40 H      9.537329    2.722899   17.598315    ( 0.0000,  0.0000,  0.0000)
  41 H      8.745955    4.960667   18.448125    ( 0.0000,  0.0000,  0.0000)
  42 H      7.432432    4.143458   17.601351    ( 0.0000,  0.0000,  0.0000)
  43 H      7.451560    4.167493   19.367357    ( 0.0000,  0.0000,  0.0000)
  44 H      7.494148    1.611535   19.213747    ( 0.0000,  0.0000,  0.0000)

Unit cell:
           periodic     x           y           z      points  spacing
  1. axis:    yes    9.702222    0.000000    0.000000    60     0.1617
  2. axis:    yes    0.000000    9.702222    0.000000    60     0.1617
  3. axis:    no     0.000000    0.000000   24.851111   156     0.1593

  Lengths:   9.702222   9.702222  24.851111
  Angles:   90.000000  90.000000  90.000000

Effective grid spacing dv^(1/3) = 0.1609

     iter     time        total  log10-change:
                         energy  eigst   dens
iter:   1 01:17:58  -272.444264  -1.83
iter:   2 01:20:15  -272.442055  -2.35  -2.20
iter:   3 01:23:04  -272.441284c -3.13  -2.32
iter:   4 01:26:55  -272.439248c -2.52  -2.43
Writing to output.gpw (mode='')

iter:   5 01:31:13  -272.439361c -3.94  -2.76
iter:   6 01:34:06  -272.438984c -3.12  -2.82
iter:   7 01:36:11  -272.439177c -2.64  -2.98
iter:   8 01:37:49  -272.438970c -3.97  -2.90
iter:   9 01:40:21  -272.439015c -3.84  -3.17
Writing to output.gpw (mode='')

iter:  10 01:44:13  -272.438959c -4.45  -3.15
iter:  11 01:47:55  -272.438926c -4.16  -3.30
iter:  12 01:50:50  -272.438917c -4.25  -3.53
iter:  13 01:54:14  -272.438921c -5.17  -3.57
iter:  14 01:57:02  -272.438922c -4.95  -3.79
Writing to output.gpw (mode='')

iter:  15 01:59:29  -272.438920c -5.59  -3.79
iter:  16 02:03:11  -272.438915c -4.99  -3.87
iter:  17 02:05:47  -272.438920c -5.41  -3.88
iter:  18 02:09:13  -272.438919c -6.23  -4.12c
iter:  19 02:12:28  -272.438916c -5.91  -4.20c
Writing to output.gpw (mode='')

iter:  20 02:15:45  -272.438918c -6.04  -4.34c
iter:  21 02:18:46  -272.438917c -6.53  -4.50c
iter:  22 02:22:18  -272.438916c -6.68  -4.61c
iter:  23 02:25:08  -272.438917c -7.12  -4.76c
iter:  24 02:28:14  -272.438917c -7.13  -4.86c
Writing to output.gpw (mode='')

iter:  25 02:32:58  -272.438917c -7.24  -4.96c
iter:  26 02:36:25  -272.438917c -7.48c -4.97c

Converged after 26 iterations.

Dipole moment: (3.247591, -2.751851, 0.322900) |e|*Ang

Energy contributions relative to reference atoms: (reference = -11471.411034)

Kinetic:       +127.816787
Potential:     -119.580250
External:        +0.000000
XC:            -280.843274
Entropy (-ST):   -0.150612
Local:           +0.243125
--------------------------
Free energy:   -272.514223
Extrapolated:  -272.438917

Dipole-layer corrected work functions: 3.389077, 2.768353 eV

Showing only first 2 kpts
 Kpt  Band  Eigenvalues  Occupancy
  0    26     -3.33537    1.98827
  0    27     -3.25348    1.94110
  0    28     -2.90238    0.05713
  0    29     -2.82991    0.01371

  1    26     -3.09302    1.14205
  1    27     -3.06893    0.90250
  1    28     -3.04760    0.69852
  1    29     -3.03021    0.54971


Fermi level: -3.07871

No gap
Writing to output.gpw (mode='')


Forces in eV/Ang:
  0 Li    0.00342    0.00299   -0.27619
  1 Li   -0.00347    0.00259   -0.27439
  2 Li    0.00007   -0.00409   -0.27790
  3 Li    0.00166   -0.00198   -0.27882
  4 Li   -0.00275   -0.00356   -0.27561
  5 Li    0.00098    0.00601   -0.27971
  6 Li   -0.00555   -0.00100   -0.27546
  7 Li    0.00437    0.00019   -0.27650
  8 Li    0.00062   -0.00183   -0.27458
  9 Li    0.00558   -0.00873    0.27683
 10 Li    0.00188    0.00119    0.27405
 11 Li   -0.00737   -0.00842    0.27389
 12 Li    0.01170    0.00522    0.29435
 13 Li   -0.00344   -0.00358    0.28408
 14 Li   -0.00932    0.00253    0.28919
 15 Li    0.00045    0.00266    0.28224
 16 Li    0.00423    0.00330    0.28774
 17 Li   -0.00430    0.00648    0.27775
 18 Li    0.02613   -0.03247   -0.04701
 19 Li   -0.01680   -0.02443   -0.03306
 20 Li   -0.00691   -0.02657   -0.03146
 21 Li    0.03995    0.03284   -0.06463
 22 Li   -0.01596    0.01185   -0.03518
 23 Li   -0.02019    0.02065   -0.04927
 24 Li    0.01137    0.00900   -0.01802
 25 Li   -0.00633    0.01022   -0.01305
 26 Li   -0.00329    0.01358   -0.02054
 27 Li   -0.00018    0.01190    0.01440
 28 Li    0.00453    0.00072    0.00802
 29 Li    0.00171    0.00090    0.02065
 30 Li   -0.01247   -0.00526   -0.00352
 31 Li   -0.00380   -0.00159    0.00270
 32 Li    0.01346    0.00122    0.00179
 33 Li    0.00005    0.00166   -0.00148
 34 Li   -0.00201   -0.00029    0.00716
 35 Li    0.00138   -0.00267    0.00161
 36 O     0.04933    0.00979   -0.01901
 37 C    -0.15114    0.08112    0.08738
 38 C     0.03784   -0.03345    0.09204
 39 H    -0.12363   -0.04409   -0.06793
 40 H    -0.05227   -0.00161    0.06996
 41 H     0.00391   -0.04305    0.04071
 42 H     0.06564   -0.03366    0.02163
 43 H     0.06938   -0.02454   -0.00453
 44 H     0.05729    0.03370   -0.03373

System changes: positions 

Initializing position-dependent things.

Density initialized from wave functions
       .-----------------------.  
      /|                       |  
     / |                       |  
    /  |                       |  
   /   |                       |  
  /    |                       |  
 *     |                       |  
 |     |                       |  
 |     |                       |  
 |     |                       |  
 |     |              H        |  
 |     |                C H    |  
 |     Li            HH  C     |  
 |     |              O   H    |  
 |   Li|     Li      Li        |  
 |     |  Li      Li      Li   |  
 | Li  |   Li      Li          |  
 |     |Li      Li      Li     |  
 |     | Li      Li            |  
 |   LLi     LLi     LLi       |  
 |     |  Li      Li      Li   |  
 | Li  |   Li      Li          |  
 |     |Li      Li      Li     |  
 Li    | Li      Li            |  
 |    Li      Li      Li       |  
 |     |                       |  
 |     |                       |  
 |     |                       |  
 |     |                       |  
 |     |                       |  
 |     |                       |  
 |     .-----------------------.  
 |    /                       /   
 |   /                       /    
 |  /                       /     
 | /                       /      
 |/                       /       
 *-----------------------*        

Positions:
   0 Li     1.617037    1.617037   10.000000    ( 0.0000,  0.0000,  0.0000)
   1 Li     4.851111    1.617037   10.000000    ( 0.0000,  0.0000,  0.0000)
   2 Li     8.085185    1.617037   10.000000    ( 0.0000,  0.0000,  0.0000)
   3 Li     1.617037    4.851111   10.000000    ( 0.0000,  0.0000,  0.0000)
   4 Li     4.851111    4.851111   10.000000    ( 0.0000,  0.0000,  0.0000)
   5 Li     8.085185    4.851111   10.000000    ( 0.0000,  0.0000,  0.0000)
   6 Li     1.617037    8.085185   10.000000    ( 0.0000,  0.0000,  0.0000)
   7 Li     4.851111    8.085185   10.000000    ( 0.0000,  0.0000,  0.0000)
   8 Li     8.085185    8.085185   10.000000    ( 0.0000,  0.0000,  0.0000)
   9 Li     0.000000    0.000000   11.617037    ( 0.0000,  0.0000,  0.0000)
  10 Li     3.234074    0.000000   11.617037    ( 0.0000,  0.0000,  0.0000)
  11 Li     6.468148    0.000000   11.617037    ( 0.0000,  0.0000,  0.0000)
  12 Li     0.000000    3.234074   11.617037    ( 0.0000,  0.0000,  0.0000)
  13 Li     3.234074    3.234074   11.617037    ( 0.0000,  0.0000,  0.0000)
  14 Li     6.468148    3.234074   11.617037    ( 0.0000,  0.0000,  0.0000)
  15 Li     0.000000    6.468148   11.617037    ( 0.0000,  0.0000,  0.0000)
  16 Li     3.234074    6.468148   11.617037    ( 0.0000,  0.0000,  0.0000)
  17 Li     6.468148    6.468148   11.617037    ( 0.0000,  0.0000,  0.0000)
  18 Li     1.617302    1.609725   13.495318    ( 0.0000,  0.0000,  0.0000)
  19 Li     4.851176    1.611646   13.494385    ( 0.0000,  0.0000,  0.0000)
  20 Li     8.084902    1.614275   13.464433    ( 0.0000,  0.0000,  0.0000)
  21 Li     1.620230    4.856838   13.492890    ( 0.0000,  0.0000,  0.0000)
  22 Li     4.852470    4.851823   13.496168    ( 0.0000,  0.0000,  0.0000)
  23 Li     8.080821    4.853229   13.482458    ( 0.0000,  0.0000,  0.0000)
  24 Li     1.619639    8.089165   13.492088    ( 0.0000,  0.0000,  0.0000)
  25 Li     4.850904    8.089293   13.495938    ( 0.0000,  0.0000,  0.0000)
  26 Li     8.083618    8.087234   13.497542    ( 0.0000,  0.0000,  0.0000)
  27 Li     0.001533   -0.015231   15.445382    ( 0.0000,  0.0000,  0.0000)
  28 Li     3.234222    0.006664   15.430665    ( 0.0000,  0.0000,  0.0000)
  29 Li     6.472938    0.000333   15.460656    ( 0.0000,  0.0000,  0.0000)
  30 Li     0.055028    3.259995   15.250078    ( 0.0000,  0.0000,  0.0000)
  31 Li     3.233682    3.236356   15.427932    ( 0.0000,  0.0000,  0.0000)
  32 Li     6.411400    3.204068   15.350817    ( 0.0000,  0.0000,  0.0000)
  33 Li     0.017279    6.490028   15.390717    ( 0.0000,  0.0000,  0.0000)
  34 Li     3.232059    6.458677   15.436792    ( 0.0000,  0.0000,  0.0000)
  35 Li     6.453737    6.488421   15.395689    ( 0.0000,  0.0000,  0.0000)
  36 O      8.061317    1.620838   18.431003    ( 0.0000,  0.0000,  0.0000)
  37 C      8.893739    2.794852   18.489782    ( 0.0000,  0.0000,  0.0000)
  38 C      8.088177    4.086825   18.479776    ( 0.0000,  0.0000,  0.0000)
  39 H      9.564059    2.757880   19.360897    ( 0.0000,  0.0000,  0.0000)
  40 H      9.535768    2.725769   17.599089    ( 0.0000,  0.0000,  0.0000)
  41 H      8.747539    4.960503   18.454822    ( 0.0000,  0.0000,  0.0000)
  42 H      7.432330    4.141053   17.603765    ( 0.0000,  0.0000,  0.0000)
  43 H      7.456193    4.168093   19.367518    ( 0.0000,  0.0000,  0.0000)
  44 H      7.494444    1.609773   19.213766    ( 0.0000,  0.0000,  0.0000)

Unit cell:
           periodic     x           y           z      points  spacing
  1. axis:    yes    9.702222    0.000000    0.000000    60     0.1617
  2. axis:    yes    0.000000    9.702222    0.000000    60     0.1617
  3. axis:    no     0.000000    0.000000   24.851111   156     0.1593

  Lengths:   9.702222   9.702222  24.851111
  Angles:   90.000000  90.000000  90.000000

Effective grid spacing dv^(1/3) = 0.1609

     iter     time        total  log10-change:
                         energy  eigst   dens
iter:   1 02:40:53  -272.445082  -2.13
iter:   2 02:44:16  -272.443026  -2.71  -2.25
iter:   3 02:49:15  -272.442451c -3.56  -2.47
iter:   4 02:53:03  -272.441590c -2.98  -2.63
