
  ___ ___ ___ _ _ _  
 |   |   |_  | | | | 
 | | | | | . | | | | 
 |__ |  _|___|_____|  22.8.0
 |___|_|             

User:   vazumah@d021
Date:   Wed Mar  8 10:08:27 2023
Arch:   x86_64
Pid:    43377
CWD:    /home/vazumah/Research_Projects/LiMEAS/LiNRR_proton_donors/on_pure_surface/Li_BCC100/adsorbates/CH3CH2OH_y/bridge/8.085_1.617
Python: 3.10.6
gpaw:   /home/vazumah/anaconda3/envs/NAME/lib/python3.10/site-packages/gpaw
_gpaw:  /home/vazumah/anaconda3/envs/NAME/lib/python3.10/site-packages/
        _gpaw.cpython-310-x86_64-linux-gnu.so
ase:    /home/vazumah/anaconda3/envs/NAME/lib/python3.10/site-packages/ase (version 3.22.1)
numpy:  /home/vazumah/anaconda3/envs/NAME/lib/python3.10/site-packages/numpy (version 1.23.3)
scipy:  /home/vazumah/anaconda3/envs/NAME/lib/python3.10/site-packages/scipy (version 1.9.1)
libxc:  5.2.3
units:  Angstrom and eV
cores: 32
OpenMP: True
OMP_NUM_THREADS: 1

Reading from output.gpw
Reading input parameters:
  h: 0.16
  kpts: {size: [4, 4, 1]}
  occupations: {name: fermi-dirac,
                width: 0.05}
  poissonsolver: {dipolelayer: xy}
  xc: BEEF-vdW

Initialize ...

species:
  Li:
    name: Lithium
    id: 830b4218f175192f93f959cfc0aad614
    Z: 3.0
    valence: 1
    core: 2
    charge: 0.0
    file: /home/vazumah/anaconda3/envs/NAME/share/gpaw/Li.PBE.gz
    compensation charges: {type: gauss,
                           rc: 0.33,
                           lmax: 2}
    cutoffs: {filter: 1.91,
              core: 2.55}
    valence states:
      #              energy  rcut
      - 2s(1.00)    -2.874   1.058
      - 2p(0.00)    -1.090   1.058
      -  s          24.337   1.058
  
    # Using partial waves for Li as LCAO basis

  O:
    name: Oxygen
    id: 32ecd46bf208036f09c70b0ec9a88b78
    Z: 8.0
    valence: 6
    core: 2
    charge: 0.0
    file: /home/vazumah/anaconda3/envs/NAME/share/gpaw/O.PBE.gz
    compensation charges: {type: gauss,
                           rc: 0.21,
                           lmax: 2}
    cutoffs: {filter: 1.17,
              core: 0.83}
    valence states:
      #              energy  rcut
      - 2s(2.00)   -23.961   0.688
      - 2p(4.00)    -9.029   0.598
      -  s           3.251   0.688
      -  p          18.182   0.598
      -  d           0.000   0.619
  
    # Using partial waves for O as LCAO basis

  C:
    name: Carbon
    id: 4aa54d4b901d75f77cc0ea3eec22967b
    Z: 6.0
    valence: 4
    core: 2
    charge: 0.0
    file: /home/vazumah/anaconda3/envs/NAME/share/gpaw/C.PBE.gz
    compensation charges: {type: gauss,
                           rc: 0.20,
                           lmax: 2}
    cutoffs: {filter: 1.14,
              core: 1.14}
    valence states:
      #              energy  rcut
      - 2s(2.00)   -13.751   0.635
      - 2p(2.00)    -5.284   0.635
      -  s          13.461   0.635
      -  p          21.927   0.635
      -  d           0.000   0.635
  
    # Using partial waves for C as LCAO basis

  H:
    name: Hydrogen
    id: d65de229564ff8ea4db303e23b6d1ecf
    Z: 1.0
    valence: 1
    core: 0
    charge: 0.0
    file: /home/vazumah/anaconda3/envs/NAME/share/gpaw/H.PBE.gz
    compensation charges: {type: gauss,
                           rc: 0.15,
                           lmax: 2}
    cutoffs: {filter: 0.85,
              core: 0.53}
    valence states:
      #              energy  rcut
      - 1s(1.00)    -6.494   0.476
      -  s          20.717   0.476
      -  p           0.000   0.476
  
    # Using partial waves for H as LCAO basis

Reference energy: -11471.411034  # eV

Spin-paired calculation

Convergence criteria:
 Maximum [total energy] change in last 3 cyles: 0.0005 eV / electron
 Maximum integral of absolute [dens]ity change: 0.0001 electrons / valence electron
 Maximum integral of absolute [eigenst]ate change: 4e-08 eV^2 / valence electron
 Maximum number of scf [iter]ations: 333
 (Square brackets indicate name in SCF output, whereas a 'c' in
 the SCF output indicates the quantity has converged.)

Symmetries present (total): 1

  ( 1  0  0)
  ( 0  1  0)
  ( 0  0  1)

16 k-points: 4 x 4 x 1 Monkhorst-Pack grid
8 k-points in the irreducible part of the Brillouin zone
       k-points in crystal coordinates                weights
   0:     0.12500000   -0.37500000    0.00000000          2/16
   1:     0.12500000   -0.12500000    0.00000000          2/16
   2:     0.12500000    0.12500000    0.00000000          2/16
   3:     0.12500000    0.37500000    0.00000000          2/16
   4:     0.37500000   -0.37500000    0.00000000          2/16
   5:     0.37500000   -0.12500000    0.00000000          2/16
   6:     0.37500000    0.12500000    0.00000000          2/16
   7:     0.37500000    0.37500000    0.00000000          2/16

Wave functions: Uniform real-space grid
  Kinetic energy operator: 6*3+1=19 point O(h^6) finite-difference Laplacian
  ScaLapack parameters: grid=1x1, blocksize=None
  Wavefunction extrapolation:
    Improved wavefunction reuse through dual PAW basis 

Occupation numbers: Fermi-Dirac:
  width: 0.0500  # eV
 

Eigensolver
   Davidson(niter=2) 

Densities:
  Coarse grid: 60*60*156 grid
  Fine grid: 120*120*312 grid
  Total Charge: 0.000000 

Density mixing:
  Method: separate
  Backend: pulay
  Linear mixing parameter: 0.05
  old densities: 5
  Damping of long wavelength oscillations: 50 

Hamiltonian:
  XC and Coulomb potentials evaluated on a 120*120*312 grid
  Using the BEEF-vdW Exchange-Correlation functional
  Interpolation: tri-quintic (5. degree polynomial)
  Poisson solver: FastPoissonSolver using
    Stencil: 6*3+1=19 point O(h^6) finite-difference Laplacian
    FFT axes: [0, 1]
    FST axes: [2]

Dipole correction along z-axis 

XC parameters: BEEF-vdW with 2 nearest neighbor stencil

Memory estimate:
  Process memory now: 214.94 MiB
  Calculator: 281.63 MiB
    Density: 87.85 MiB
      Arrays: 27.47 MiB
      Localized functions: 49.94 MiB
      Mixer: 10.44 MiB
    Hamiltonian: 21.91 MiB
      Arrays: 17.96 MiB
      XC: 0.00 MiB
      Poisson: 0.00 MiB
      vbar: 3.94 MiB
    Wavefunctions: 171.87 MiB
      Arrays psit_nG: 79.32 MiB
      Eigensolver: 89.98 MiB
      Projections: 0.04 MiB
      Projectors: 2.54 MiB

Total number of cores used: 32
Parallelization over k-points: 8
Domain decomposition: 1 x 1 x 4

Number of atoms: 45
Number of atomic orbitals: 162
Number of bands in calculation: 38
Number of valence electrons: 56
Bands to converge: occupied

... initialized

Initializing position-dependent things.

Creating initial wave functions:
  38 bands from LCAO basis set

       .-----------------------.  
      /|                       |  
     / |                       |  
    /  |                       |  
   /   |                       |  
  /    |                       |  
 *     |                       |  
 |     |                       |  
 |     |                       |  
 |     |                  H    |  
 |     |             H C       |  
 |     |               H H     |  
 |     |                C      |  
 |     |           H O    H    |  
 |   Li|     Li      Li        |  
 |     |  Li      Li      Li   |  
 | Li  |   Li      Li          |  
 |     |Li      Li      Li     |  
 Li    | Li      Li            |  
 |   LLi     LLi     LLi       |  
 |     |  Li      Li      Li   |  
 | Li  |   Li      Li          |  
 |     |Li      Li      Li     |  
 Li    | Li      Li            |  
 |    Li      Li      Li       |  
 |     |                       |  
 |     |                       |  
 |     |                       |  
 |     |                       |  
 |     |                       |  
 |     |                       |  
 |     .-----------------------.  
 |    /                       /   
 |   /                       /    
 |  /                       /     
 | /                       /      
 |/                       /       
 *-----------------------*        

Positions:
   0 Li     1.617037    1.617037   10.000000    ( 0.0000,  0.0000,  0.0000)
   1 Li     4.851111    1.617037   10.000000    ( 0.0000,  0.0000,  0.0000)
   2 Li     8.085185    1.617037   10.000000    ( 0.0000,  0.0000,  0.0000)
   3 Li     1.617037    4.851111   10.000000    ( 0.0000,  0.0000,  0.0000)
   4 Li     4.851111    4.851111   10.000000    ( 0.0000,  0.0000,  0.0000)
   5 Li     8.085185    4.851111   10.000000    ( 0.0000,  0.0000,  0.0000)
   6 Li     1.617037    8.085185   10.000000    ( 0.0000,  0.0000,  0.0000)
   7 Li     4.851111    8.085185   10.000000    ( 0.0000,  0.0000,  0.0000)
   8 Li     8.085185    8.085185   10.000000    ( 0.0000,  0.0000,  0.0000)
   9 Li     0.000000    0.000000   11.617037    ( 0.0000,  0.0000,  0.0000)
  10 Li     3.234074    0.000000   11.617037    ( 0.0000,  0.0000,  0.0000)
  11 Li     6.468148    0.000000   11.617037    ( 0.0000,  0.0000,  0.0000)
  12 Li     0.000000    3.234074   11.617037    ( 0.0000,  0.0000,  0.0000)
  13 Li     3.234074    3.234074   11.617037    ( 0.0000,  0.0000,  0.0000)
  14 Li     6.468148    3.234074   11.617037    ( 0.0000,  0.0000,  0.0000)
  15 Li     0.000000    6.468148   11.617037    ( 0.0000,  0.0000,  0.0000)
  16 Li     3.234074    6.468148   11.617037    ( 0.0000,  0.0000,  0.0000)
  17 Li     6.468148    6.468148   11.617037    ( 0.0000,  0.0000,  0.0000)
  18 Li     1.648890    1.602249   13.479109    ( 0.0000,  0.0000,  0.0000)
  19 Li     4.866945    1.633011   13.501787    ( 0.0000,  0.0000,  0.0000)
  20 Li     8.084941    1.612249   13.501165    ( 0.0000,  0.0000,  0.0000)
  21 Li     1.645298    4.867045   13.483293    ( 0.0000,  0.0000,  0.0000)
  22 Li     4.865050    4.838577   13.515609    ( 0.0000,  0.0000,  0.0000)
  23 Li     8.061654    4.861377   13.538899    ( 0.0000,  0.0000,  0.0000)
  24 Li     1.635953    8.095462   13.469777    ( 0.0000,  0.0000,  0.0000)
  25 Li     4.847875    8.091701   13.472373    ( 0.0000,  0.0000,  0.0000)
  26 Li     8.090306    8.108200   13.489725    ( 0.0000,  0.0000,  0.0000)
  27 Li     0.053284    0.011087   15.455366    ( 0.0000,  0.0000,  0.0000)
  28 Li     3.267152    0.007696   15.437174    ( 0.0000,  0.0000,  0.0000)
  29 Li     6.490352    0.003378   15.473517    ( 0.0000,  0.0000,  0.0000)
  30 Li     0.093816    3.264708   15.340829    ( 0.0000,  0.0000,  0.0000)
  31 Li     3.236490    3.225729   15.460633    ( 0.0000,  0.0000,  0.0000)
  32 Li     6.496736    3.210645   15.583415    ( 0.0000,  0.0000,  0.0000)
  33 Li     0.010186    6.472464   15.440438    ( 0.0000,  0.0000,  0.0000)
  34 Li     3.227534    6.479972   15.452599    ( 0.0000,  0.0000,  0.0000)
  35 Li     6.460555    6.500136   15.453950    ( 0.0000,  0.0000,  0.0000)
  36 O      7.766871    1.796195   18.147567    ( 0.0000,  0.0000,  0.0000)
  37 C      8.689462    2.636568   18.881089    ( 0.0000,  0.0000,  0.0000)
  38 C      8.086430    3.962056   19.322084    ( 0.0000,  0.0000,  0.0000)
  39 H      9.109586    2.084091   19.733889    ( 0.0000,  0.0000,  0.0000)
  40 H      9.508465    2.820409   18.180490    ( 0.0000,  0.0000,  0.0000)
  41 H      8.850162    4.565154   19.820681    ( 0.0000,  0.0000,  0.0000)
  42 H      7.725272    4.535026   18.464748    ( 0.0000,  0.0000,  0.0000)
  43 H      7.262533    3.822241   20.026748    ( 0.0000,  0.0000,  0.0000)
  44 H      7.069304    1.508054   18.751861    ( 0.0000,  0.0000,  0.0000)

Unit cell:
           periodic     x           y           z      points  spacing
  1. axis:    yes    9.702222    0.000000    0.000000    60     0.1617
  2. axis:    yes    0.000000    9.702222    0.000000    60     0.1617
  3. axis:    no     0.000000    0.000000   24.851111   156     0.1593

  Lengths:   9.702222   9.702222  24.851111
  Angles:   90.000000  90.000000  90.000000

Effective grid spacing dv^(1/3) = 0.1609

     iter     time        total  log10-change:
                         energy  eigst   dens
iter:   1 10:09:39  -271.728534  +1.08
iter:   2 10:16:11  -272.307013  +0.42  -1.70
iter:   3 10:20:07  -272.450553  -0.06  -1.98
iter:   4 10:22:23  -272.506795  -0.44  -2.20
Writing to output.gpw (mode='')

iter:   5 10:24:00  -272.532809  -0.75  -2.40
iter:   6 10:27:54  -272.546212  -1.02  -2.57
iter:   7 10:30:04  -272.554065c -1.24  -2.77
iter:   8 10:32:53  -272.558804c -1.47  -2.77
iter:   9 10:34:57  -272.562790c -1.56  -2.71
Writing to output.gpw (mode='')

iter:  10 10:37:03  -272.565208c -1.72  -2.58
iter:  11 10:38:41  -272.566600c -1.96  -2.56
iter:  12 10:40:29  -272.567648c -2.12  -2.53
iter:  13 10:43:32  -272.566978c -2.21  -2.51
iter:  14 10:45:31  -272.568136c -2.43  -2.63
Writing to output.gpw (mode='')

iter:  15 10:47:10  -272.566795c -2.53  -2.55
iter:  16 10:48:41  -272.567093c -2.87  -2.77
iter:  17 10:50:15  -272.566965c -2.87  -2.74
iter:  18 10:51:54  -272.566955c -3.04  -2.77
iter:  19 10:54:08  -272.567053c -3.04  -2.80
Writing to output.gpw (mode='')

iter:  20 10:56:34  -272.567099c -3.33  -2.86
iter:  21 10:58:16  -272.567164c -3.61  -2.87
iter:  22 11:00:06  -272.567135c -3.55  -2.87
iter:  23 11:02:10  -272.567270c -3.23  -2.97
iter:  24 11:03:48  -272.567245c -3.81  -3.28
Writing to output.gpw (mode='')

iter:  25 11:07:09  -272.567261c -3.97  -3.29
iter:  26 11:09:37  -272.567214c -4.05  -3.25
iter:  27 11:11:57  -272.567247c -4.24  -3.34
iter:  28 11:14:34  -272.567259c -4.39  -3.39
iter:  29 11:19:05  -272.567247c -4.47  -3.31
Writing to output.gpw (mode='')

iter:  30 11:22:46  -272.567236c -4.47  -3.59
iter:  31 11:24:58  -272.567235c -4.49  -3.67
iter:  32 11:26:52  -272.567239c -4.79  -3.72
iter:  33 11:28:20  -272.567244c -4.65  -3.79
iter:  34 11:31:09  -272.567240c -4.72  -4.00c
Writing to output.gpw (mode='')

iter:  35 11:33:06  -272.567241c -4.91  -4.12c
iter:  36 11:36:09  -272.567243c -5.05  -4.16c
iter:  37 11:38:36  -272.567244c -5.10  -4.27c
iter:  38 11:40:36  -272.567246c -5.20  -4.32c
iter:  39 11:42:42  -272.567247c -5.35  -4.41c
Writing to output.gpw (mode='')

iter:  40 11:45:44  -272.567248c -5.43  -4.52c
iter:  41 11:47:32  -272.567249c -5.62  -4.53c
iter:  42 11:49:25  -272.567249c -5.82  -4.50c
iter:  43 11:51:40  -272.567250c -5.88  -4.52c
iter:  44 11:54:27  -272.567250c -5.89  -4.52c
Writing to output.gpw (mode='')

iter:  45 11:57:11  -272.567250c -6.02  -4.49c
iter:  46 12:01:07  -272.567250c -5.95  -4.48c
iter:  47 12:03:00  -272.567248c -6.00  -4.41c
iter:  48 12:04:34  -272.567250c -6.28  -4.32c
iter:  49 12:07:17  -272.567252c -6.03  -4.41c
Writing to output.gpw (mode='')

iter:  50 12:09:04  -272.567253c -6.32  -4.52c
iter:  51 12:11:19  -272.567253c -6.36  -4.54c
iter:  52 12:13:45  -272.567255c -6.37  -4.59c
iter:  53 12:15:39  -272.567256c -6.38  -4.82c
iter:  54 12:17:30  -272.567256c -6.53  -4.89c
Writing to output.gpw (mode='')

iter:  55 12:19:21  -272.567256c -6.74  -4.91c
iter:  56 12:21:20  -272.567256c -6.67  -4.99c
iter:  57 12:23:01  -272.567256c -6.70  -5.16c
iter:  58 12:25:17  -272.567256c -6.98  -5.25c
iter:  59 12:27:17  -272.567256c -6.97  -5.27c
Writing to output.gpw (mode='')

iter:  60 12:31:19  -272.567256c -6.91  -5.28c
iter:  61 12:35:13  -272.567256c -7.23  -5.26c
iter:  62 12:40:21  -272.567256c -7.31  -5.26c
iter:  63 12:46:23  -272.567255c -7.12  -5.27c
iter:  64 12:51:03  -272.567256c -7.33  -5.27c
Writing to output.gpw (mode='')

iter:  65 12:55:40  -272.567255c -7.24  -5.25c
iter:  66 13:01:47  -272.567255c -7.19  -5.23c
iter:  67 13:04:39  -272.567255c -7.31  -5.17c
iter:  68 13:09:15  -272.567255c -7.54c -5.12c

Converged after 68 iterations.

Dipole moment: (0.221587, -3.354809, 0.341954) |e|*Ang

Energy contributions relative to reference atoms: (reference = -11471.411034)

Kinetic:       +125.845506
Potential:     -118.492450
External:        +0.000000
XC:            -280.095043
Entropy (-ST):   -0.153295
Local:           +0.251380
--------------------------
Free energy:   -272.643903
Extrapolated:  -272.567255

Dipole-layer corrected work functions: 3.379886, 2.722534 eV

Showing only first 2 kpts
 Kpt  Band  Eigenvalues  Occupancy
  0    26     -3.29293    1.98422
  0    27     -3.21428    1.92616
  0    28     -2.89145    0.07869
  0    29     -2.78575    0.00984

  1    26     -3.08704    1.34375
  1    27     -3.04517    0.93969
  1    28     -3.01633    0.66469
  1    29     -2.99761    0.51006


Fermi level: -3.05121

No gap
Writing to output.gpw (mode='')


Forces in eV/Ang:
  0 Li    0.00630    0.00094   -0.27589
  1 Li   -0.00799   -0.00080   -0.27087
  2 Li   -0.00025   -0.00242   -0.27505
  3 Li   -0.00339   -0.00233   -0.27913
  4 Li    0.00026   -0.00330   -0.26904
  5 Li    0.00035    0.00703   -0.27690
  6 Li   -0.00359    0.00105   -0.26819
  7 Li    0.00148    0.00283   -0.27806
  8 Li   -0.00181   -0.00665   -0.27490
  9 Li    0.00299    0.00799    0.27692
 10 Li    0.01992    0.01380    0.25529
 11 Li   -0.00344    0.00678    0.27478
 12 Li   -0.00063    0.01383    0.31664
 13 Li    0.00613    0.00065    0.27230
 14 Li    0.01112    0.00645    0.28056
 15 Li   -0.01417   -0.01069    0.29306
 16 Li    0.02391   -0.00807    0.27849
 17 Li    0.00510   -0.00023    0.28016
 18 Li   -0.01315    0.00364   -0.00080
 19 Li    0.01999   -0.00290    0.02263
 20 Li    0.00265    0.01970   -0.05333
 21 Li   -0.00018    0.00695   -0.01730
 22 Li    0.01093   -0.00484    0.01774
 23 Li   -0.00024   -0.01919   -0.03845
 24 Li   -0.01775   -0.00747    0.02991
 25 Li    0.01904    0.00099    0.03579
 26 Li    0.00159   -0.01453    0.02014
 27 Li   -0.00523   -0.01193   -0.00102
 28 Li    0.00246    0.00320    0.00497
 29 Li   -0.00972   -0.02326   -0.00889
 30 Li   -0.01779    0.00157   -0.00663
 31 Li    0.01578    0.00095   -0.00648
 32 Li    0.02103   -0.01374    0.01108
 33 Li   -0.00650    0.01084   -0.01142
 34 Li    0.00314   -0.00652   -0.00402
 35 Li   -0.00040   -0.00204   -0.01050
 36 O    -0.00844    0.09309   -0.02574
 37 C     0.02069   -0.04391   -0.04301
 38 C     0.01996    0.02646    0.04592
 39 H    -0.08319    0.04176   -0.06419
 40 H     0.03230   -0.03739   -0.00335
 41 H     0.02908   -0.00505    0.01909
 42 H    -0.03384   -0.05546   -0.00470
 43 H    -0.02799   -0.03602   -0.02585
 44 H     0.00102    0.02057    0.02821

System changes: positions 

Initializing position-dependent things.

Density initialized from wave functions
       .-----------------------.  
      /|                       |  
     / |                       |  
    /  |                       |  
   /   |                       |  
  /    |                       |  
 *     |                       |  
 |     |                       |  
 |     |                       |  
 |     |                  H    |  
 |     |             H C       |  
 |     |               H H     |  
 |     |                C      |  
 |     |           H O    H    |  
 |   Li|     Li      Li        |  
 |     |  Li      Li      Li   |  
 | Li  |   Li      Li          |  
 |     |Li      Li      Li     |  
 Li    | Li      Li            |  
 |   LLi     LLi     LLi       |  
 |     |  Li      Li      Li   |  
 | Li  |   Li      Li          |  
 |     |Li      Li      Li     |  
 Li    | Li      Li            |  
 |    Li      Li      Li       |  
 |     |                       |  
 |     |                       |  
 |     |                       |  
 |     |                       |  
 |     |                       |  
 |     |                       |  
 |     .-----------------------.  
 |    /                       /   
 |   /                       /    
 |  /                       /     
 | /                       /      
 |/                       /       
 *-----------------------*        

Positions:
   0 Li     1.617037    1.617037   10.000000    ( 0.0000,  0.0000,  0.0000)
   1 Li     4.851111    1.617037   10.000000    ( 0.0000,  0.0000,  0.0000)
   2 Li     8.085185    1.617037   10.000000    ( 0.0000,  0.0000,  0.0000)
   3 Li     1.617037    4.851111   10.000000    ( 0.0000,  0.0000,  0.0000)
   4 Li     4.851111    4.851111   10.000000    ( 0.0000,  0.0000,  0.0000)
   5 Li     8.085185    4.851111   10.000000    ( 0.0000,  0.0000,  0.0000)
   6 Li     1.617037    8.085185   10.000000    ( 0.0000,  0.0000,  0.0000)
   7 Li     4.851111    8.085185   10.000000    ( 0.0000,  0.0000,  0.0000)
   8 Li     8.085185    8.085185   10.000000    ( 0.0000,  0.0000,  0.0000)
   9 Li     0.000000    0.000000   11.617037    ( 0.0000,  0.0000,  0.0000)
  10 Li     3.234074    0.000000   11.617037    ( 0.0000,  0.0000,  0.0000)
  11 Li     6.468148    0.000000   11.617037    ( 0.0000,  0.0000,  0.0000)
  12 Li     0.000000    3.234074   11.617037    ( 0.0000,  0.0000,  0.0000)
  13 Li     3.234074    3.234074   11.617037    ( 0.0000,  0.0000,  0.0000)
  14 Li     6.468148    3.234074   11.617037    ( 0.0000,  0.0000,  0.0000)
  15 Li     0.000000    6.468148   11.617037    ( 0.0000,  0.0000,  0.0000)
  16 Li     3.234074    6.468148   11.617037    ( 0.0000,  0.0000,  0.0000)
  17 Li     6.468148    6.468148   11.617037    ( 0.0000,  0.0000,  0.0000)
  18 Li     1.648917    1.601500   13.479329    ( 0.0000,  0.0000,  0.0000)
  19 Li     4.866789    1.632597   13.502826    ( 0.0000,  0.0000,  0.0000)
  20 Li     8.085901    1.614231   13.497772    ( 0.0000,  0.0000,  0.0000)
  21 Li     1.647029    4.868634   13.482168    ( 0.0000,  0.0000,  0.0000)
  22 Li     4.865416    4.838440   13.517750    ( 0.0000,  0.0000,  0.0000)
  23 Li     8.060804    4.859889   13.538683    ( 0.0000,  0.0000,  0.0000)
  24 Li     1.635271    8.094529   13.471424    ( 0.0000,  0.0000,  0.0000)
  25 Li     4.848442    8.092338   13.474626    ( 0.0000,  0.0000,  0.0000)
  26 Li     8.090542    8.106778   13.491201    ( 0.0000,  0.0000,  0.0000)
  27 Li     0.051975    0.006880   15.456948    ( 0.0000,  0.0000,  0.0000)
  28 Li     3.267042    0.008950   15.434644    ( 0.0000,  0.0000,  0.0000)
  29 Li     6.490947    0.001940   15.473560    ( 0.0000,  0.0000,  0.0000)
  30 Li     0.097634    3.265449   15.337144    ( 0.0000,  0.0000,  0.0000)
  31 Li     3.238528    3.226432   15.465454    ( 0.0000,  0.0000,  0.0000)
  32 Li     6.492379    3.206630   15.584670    ( 0.0000,  0.0000,  0.0000)
  33 Li     0.011534    6.476040   15.441649    ( 0.0000,  0.0000,  0.0000)
  34 Li     3.227041    6.477906   15.452766    ( 0.0000,  0.0000,  0.0000)
  35 Li     6.459482    6.502453   15.452453    ( 0.0000,  0.0000,  0.0000)
  36 O      7.761007    1.806813   18.146890    ( 0.0000,  0.0000,  0.0000)
  37 C      8.687218    2.637502   18.879085    ( 0.0000,  0.0000,  0.0000)
  38 C      8.086898    3.961060   19.325581    ( 0.0000,  0.0000,  0.0000)
  39 H      9.099950    2.083877   19.732243    ( 0.0000,  0.0000,  0.0000)
  40 H      9.508787    2.821224   18.181361    ( 0.0000,  0.0000,  0.0000)
  41 H      8.851352    4.561554   19.826596    ( 0.0000,  0.0000,  0.0000)
  42 H      7.729119    4.532996   18.467264    ( 0.0000,  0.0000,  0.0000)
  43 H      7.263037    3.815982   20.030631    ( 0.0000,  0.0000,  0.0000)
  44 H      7.065603    1.509088   18.749006    ( 0.0000,  0.0000,  0.0000)

Unit cell:
           periodic     x           y           z      points  spacing
  1. axis:    yes    9.702222    0.000000    0.000000    60     0.1617
  2. axis:    yes    0.000000    9.702222    0.000000    60     0.1617
  3. axis:    no     0.000000    0.000000   24.851111   156     0.1593

  Lengths:   9.702222   9.702222  24.851111
  Angles:   90.000000  90.000000  90.000000

Effective grid spacing dv^(1/3) = 0.1609

     iter     time        total  log10-change:
                         energy  eigst   dens
iter:   1 13:12:49  -272.573062  -1.87
iter:   2 13:16:12  -272.570527  -2.62  -2.26
iter:   3 13:20:28  -272.570267c -3.22  -2.56
iter:   4 13:23:00  -272.569878c -3.57  -2.69
Writing to output.gpw (mode='')

iter:   5 13:26:14  -272.569356c -2.89  -2.80
iter:   6 13:29:43  -272.569352c -3.54  -3.07
iter:   7 13:33:16  -272.569375c -3.39  -3.18
iter:   8 13:37:56  -272.569393c -3.75  -3.28
iter:   9 13:41:03  -272.569385c -4.18  -3.36
Writing to output.gpw (mode='')

iter:  10 13:45:22  -272.569378c -4.64  -3.43
iter:  11 13:49:59  -272.569350c -4.61  -3.50
iter:  12 13:55:42  -272.569354c -4.94  -3.87
iter:  13 14:00:05  -272.569366c -5.38  -3.94
iter:  14 14:02:50  -272.569361c -6.12  -3.92
Writing to output.gpw (mode='')

iter:  15 14:06:53  -272.569363c -5.51  -4.12c
iter:  16 14:11:31  -272.569364c -5.89  -4.23c
iter:  17 14:14:10  -272.569364c -6.17  -4.42c
iter:  18 14:17:36  -272.569362c -6.36  -4.45c
iter:  19 14:20:41  -272.569362c -6.54  -4.60c
Writing to output.gpw (mode='')

iter:  20 14:24:50  -272.569363c -6.76  -4.72c
iter:  21 14:28:09  -272.569363c -7.05  -4.73c
iter:  22 14:30:36  -272.569363c -7.12  -4.86c
iter:  23 14:33:45  -272.569363c -7.29  -4.89c
iter:  24 14:37:07  -272.569363c -7.32  -4.93c
Writing to output.gpw (mode='')

iter:  25 14:40:43  -272.569363c -7.29  -5.06c
iter:  26 14:43:40  -272.569363c -7.26  -5.18c
iter:  27 14:47:09  -272.569363c -7.33  -5.31c
iter:  28 14:51:24  -272.569363c -7.51c -5.34c

Converged after 28 iterations.

Dipole moment: (0.142939, -3.303194, 0.341219) |e|*Ang

Energy contributions relative to reference atoms: (reference = -11471.411034)

Kinetic:       +126.127509
Potential:     -118.699371
External:        +0.000000
XC:            -280.172437
Entropy (-ST):   -0.153291
Local:           +0.251582
--------------------------
Free energy:   -272.646008
Extrapolated:  -272.569363

Dipole-layer corrected work functions: 3.379901, 2.723962 eV

Showing only first 2 kpts
 Kpt  Band  Eigenvalues  Occupancy
  0    26     -3.29346    1.98416
  0    27     -3.21491    1.92603
  0    28     -2.89230    0.07889
  0    29     -2.78624    0.00980

  1    26     -3.08789    1.34485
  1    27     -3.04607    0.94150
  1    28     -3.01736    0.66747
  1    29     -2.99792    0.50690


Fermi level: -3.05193

No gap
Writing to output.gpw (mode='')


Forces in eV/Ang:
  0 Li    0.00633    0.00102   -0.27583
  1 Li   -0.00801   -0.00074   -0.27084
  2 Li   -0.00030   -0.00253   -0.27503
  3 Li   -0.00313   -0.00215   -0.27926
  4 Li   -0.00001   -0.00346   -0.26903
  5 Li    0.00030    0.00714   -0.27688
  6 Li   -0.00395    0.00083   -0.26813
  7 Li    0.00171    0.00289   -0.27836
  8 Li   -0.00174   -0.00661   -0.27500
  9 Li    0.00332    0.00667    0.27710
 10 Li    0.01998    0.01277    0.25648
 11 Li   -0.00351    0.00599    0.27565
 12 Li    0.00100    0.01490    0.31604
 13 Li    0.00664    0.00042    0.27246
 14 Li    0.00947    0.00677    0.27989
 15 Li   -0.01452   -0.01081    0.29313
 16 Li    0.02553   -0.00677    0.27898
 17 Li    0.00436    0.00005    0.28121
 18 Li   -0.01243    0.00429   -0.00099
 19 Li    0.02001   -0.00173    0.02098
 20 Li    0.00153    0.01601   -0.04685
 21 Li   -0.00163    0.00493   -0.01542
 22 Li    0.01074   -0.00545    0.01529
 23 Li    0.00072   -0.01694   -0.03658
 24 Li   -0.01586   -0.00597    0.02674
 25 Li    0.01705   -0.00018    0.03119
 26 Li    0.00133   -0.01264    0.01709
 27 Li   -0.00458   -0.00660   -0.00332
 28 Li    0.00230    0.00173    0.00854
 29 Li   -0.00964   -0.02207   -0.01026
 30 Li   -0.02071    0.00077   -0.00390
 31 Li    0.01360    0.00007   -0.01030
 32 Li    0.02684   -0.01173    0.01343
 33 Li   -0.00815    0.00590   -0.01200
 34 Li    0.00348   -0.00410   -0.00279
 35 Li    0.00129   -0.00543   -0.00751
 36 O    -0.06234    0.03275   -0.14866
 37 C     0.01635   -0.00220    0.02266
 38 C     0.03289    0.03360    0.05900
 39 H    -0.03468   -0.00309   -0.03264
 40 H     0.02414   -0.04639   -0.00830
 41 H     0.01942   -0.00499    0.02351
 42 H    -0.06322   -0.01632   -0.00152
 43 H    -0.01056   -0.01152   -0.05691
 44 H     0.01624    0.04187    0.03970

System changes: positions 

Initializing position-dependent things.

Density initialized from wave functions
       .-----------------------.  
      /|                       |  
     / |                       |  
    /  |                       |  
   /   |                       |  
  /    |                       |  
 *     |                       |  
 |     |                       |  
 |     |                       |  
 |     |                  H    |  
 |     |             H C       |  
 |     |               H H     |  
 |     |               LC      |  
 |     |           H O    H    |  
 |   Li|     Li      Li        |  
 |     |  Li      Li      Li   |  
 | Li  |   Li      Li          |  
 |     |Li      Li      Li     |  
 Li    | Li                    |  
 |   LLi     LLi     LLi       |  
 |     |  Li      Li      Li   |  
 | Li  |   Li      Li          |  
 |     |Li      Li      Li     |  
 Li    | Li      Li            |  
 |    Li      Li      Li       |  
 |     |                       |  
 |     |                       |  
 |     |                       |  
 |     |                       |  
 |     |                       |  
 |     |                       |  
 |     .-----------------------.  
 |    /                       /   
 |   /                       /    
 |  /                       /     
 | /                       /      
 |/                       /       
 *-----------------------*        

Positions:
   0 Li     1.617037    1.617037   10.000000    ( 0.0000,  0.0000,  0.0000)
   1 Li     4.851111    1.617037   10.000000    ( 0.0000,  0.0000,  0.0000)
   2 Li     8.085185    1.617037   10.000000    ( 0.0000,  0.0000,  0.0000)
   3 Li     1.617037    4.851111   10.000000    ( 0.0000,  0.0000,  0.0000)
   4 Li     4.851111    4.851111   10.000000    ( 0.0000,  0.0000,  0.0000)
   5 Li     8.085185    4.851111   10.000000    ( 0.0000,  0.0000,  0.0000)
   6 Li     1.617037    8.085185   10.000000    ( 0.0000,  0.0000,  0.0000)
   7 Li     4.851111    8.085185   10.000000    ( 0.0000,  0.0000,  0.0000)
   8 Li     8.085185    8.085185   10.000000    ( 0.0000,  0.0000,  0.0000)
   9 Li     0.000000    0.000000   11.617037    ( 0.0000,  0.0000,  0.0000)
  10 Li     3.234074    0.000000   11.617037    ( 0.0000,  0.0000,  0.0000)
  11 Li     6.468148    0.000000   11.617037    ( 0.0000,  0.0000,  0.0000)
  12 Li     0.000000    3.234074   11.617037    ( 0.0000,  0.0000,  0.0000)
  13 Li     3.234074    3.234074   11.617037    ( 0.0000,  0.0000,  0.0000)
  14 Li     6.468148    3.234074   11.617037    ( 0.0000,  0.0000,  0.0000)
  15 Li     0.000000    6.468148   11.617037    ( 0.0000,  0.0000,  0.0000)
  16 Li     3.234074    6.468148   11.617037    ( 0.0000,  0.0000,  0.0000)
  17 Li     6.468148    6.468148   11.617037    ( 0.0000,  0.0000,  0.0000)
  18 Li     1.651045    1.600067   13.480052    ( 0.0000,  0.0000,  0.0000)
  19 Li     4.865618    1.633396   13.505008    ( 0.0000,  0.0000,  0.0000)
  20 Li     8.086618    1.615594   13.496857    ( 0.0000,  0.0000,  0.0000)
  21 Li     1.651083    4.870626   13.482910    ( 0.0000,  0.0000,  0.0000)
  22 Li     4.865505    4.837181   13.523470    ( 0.0000,  0.0000,  0.0000)
  23 Li     8.058986    4.858208   13.542691    ( 0.0000,  0.0000,  0.0000)
  24 Li     1.635575    8.093699   13.473144    ( 0.0000,  0.0000,  0.0000)
  25 Li     4.847215    8.091260   13.475636    ( 0.0000,  0.0000,  0.0000)
  26 Li     8.091303    8.104767   13.493432    ( 0.0000,  0.0000,  0.0000)
  27 Li     0.052771    0.002737   15.459801    ( 0.0000,  0.0000,  0.0000)
  28 Li     3.268145    0.009381   15.433896    ( 0.0000,  0.0000,  0.0000)
  29 Li     6.488247   -0.002925   15.470926    ( 0.0000,  0.0000,  0.0000)
  30 Li     0.105330    3.265103   15.334691    ( 0.0000,  0.0000,  0.0000)
  31 Li     3.240674    3.226281   15.474853    ( 0.0000,  0.0000,  0.0000)
  32 Li     6.490362    3.199027   15.595559    ( 0.0000,  0.0000,  0.0000)
  33 Li     0.014711    6.479017   15.444528    ( 0.0000,  0.0000,  0.0000)
  34 Li     3.226524    6.478218   15.457087    ( 0.0000,  0.0000,  0.0000)
  35 Li     6.456859    6.505409   15.453967    ( 0.0000,  0.0000,  0.0000)
  36 O      7.746742    1.827228   18.137791    ( 0.0000,  0.0000,  0.0000)
  37 C      8.678979    2.635250   18.882797    ( 0.0000,  0.0000,  0.0000)
  38 C      8.086892    3.955509   19.345725    ( 0.0000,  0.0000,  0.0000)
  39 H      9.078178    2.069665   19.732657    ( 0.0000,  0.0000,  0.0000)
  40 H      9.507555    2.822993   18.194239    ( 0.0000,  0.0000,  0.0000)
  41 H      8.852749    4.544032   19.862526    ( 0.0000,  0.0000,  0.0000)
  42 H      7.741216    4.539017   18.490295    ( 0.0000,  0.0000,  0.0000)
  43 H      7.259022    3.800972   20.046173    ( 0.0000,  0.0000,  0.0000)
  44 H      7.049764    1.513379   18.731209    ( 0.0000,  0.0000,  0.0000)

Unit cell:
           periodic     x           y           z      points  spacing
  1. axis:    yes    9.702222    0.000000    0.000000    60     0.1617
  2. axis:    yes    0.000000    9.702222    0.000000    60     0.1617
  3. axis:    no     0.000000    0.000000   24.851111   156     0.1593

  Lengths:   9.702222   9.702222  24.851111
  Angles:   90.000000  90.000000  90.000000

Effective grid spacing dv^(1/3) = 0.1609

     iter     time        total  log10-change:
                         energy  eigst   dens
iter:   1 14:56:40  -272.607183  -0.85
iter:   2 15:00:35  -272.581985  -1.63  -1.76
iter:   3 15:04:38  -272.578565  -2.33  -2.05
iter:   4 15:10:29  -272.575076c -2.71  -2.21
Writing to output.gpw (mode='')

iter:   5 15:14:28  -272.572442c -2.22  -2.38
iter:   6 15:18:38  -272.571911c -2.11  -2.64
iter:   7 15:23:22  -272.572072c -2.43  -2.67
iter:   8 15:27:37  -272.572001c -3.11  -2.78
iter:   9 15:31:50  -272.571986c -3.56  -2.97
Writing to output.gpw (mode='')

iter:  10 15:34:53  -272.571887c -3.53  -3.15
iter:  11 15:39:05  -272.571918c -3.74  -3.27
iter:  12 15:42:59  -272.571907c -4.69  -3.40
iter:  13 15:45:40  -272.571933c -4.33  -3.53
iter:  14 15:52:51  -272.571933c -4.61  -3.70
Writing to output.gpw (mode='')

iter:  15 15:57:52  -272.571929c -5.23  -3.78
iter:  16 16:00:44  -272.571930c -5.10  -3.82
iter:  17 16:04:01  -272.571925c -5.04  -3.86
iter:  18 16:08:16  -272.571926c -5.37  -3.92
iter:  19 16:11:52  -272.571928c -5.66  -4.17c
Writing to output.gpw (mode='')

iter:  20 16:16:02  -272.571927c -5.85  -4.22c
iter:  21 16:26:50  -272.571925c -5.95  -4.28c
iter:  22 16:33:08  -272.571925c -6.17  -4.37c
iter:  23 16:44:32  -272.571924c -6.31  -4.51c
iter:  24 16:57:53  -272.571924c -6.36  -4.65c
Writing to output.gpw (mode='')

iter:  25 17:09:15  -272.571925c -6.52  -4.73c
iter:  26 17:18:11  -272.571925c -6.69  -4.92c
iter:  27 17:29:21  -272.571925c -6.92  -5.02c
iter:  28 17:36:30  -272.571925c -7.00  -5.07c
iter:  29 17:49:23  -272.571926c -7.01  -5.10c
Writing to output.gpw (mode='')

iter:  30 17:59:01  -272.571926c -7.34  -5.17c
iter:  31 18:06:04  -272.571926c -7.24  -5.20c
iter:  32 18:15:53  -272.571926c -7.43c -5.31c

Converged after 32 iterations.

Dipole moment: (-0.072905, -3.201647, 0.340921) |e|*Ang

Energy contributions relative to reference atoms: (reference = -11471.411034)

Kinetic:       +126.072920
Potential:     -118.666775
External:        +0.000000
XC:            -280.152583
Entropy (-ST):   -0.153410
Local:           +0.251216
--------------------------
Free energy:   -272.648631
Extrapolated:  -272.571926

Dipole-layer corrected work functions: 3.379570, 2.724202 eV

Showing only first 2 kpts
 Kpt  Band  Eigenvalues  Occupancy
  0    26     -3.29202    1.98372
  0    27     -3.21420    1.92507
  0    28     -2.89309    0.08016
  0    29     -2.78469    0.00951

  1    26     -3.08897    1.35471
  1    27     -3.04671    0.94830
  1    28     -3.01746    0.66870
  1    29     -2.99729    0.50249


Fermi level: -3.05189

No gap
Writing to output.gpw (mode='')


Forces in eV/Ang:
  0 Li    0.00649    0.00111   -0.27573
  1 Li   -0.00815   -0.00070   -0.27075
  2 Li   -0.00039   -0.00263   -0.27516
  3 Li   -0.00293   -0.00193   -0.27968
  4 Li   -0.00031   -0.00351   -0.26869
  5 Li    0.00028    0.00734   -0.27711
  6 Li   -0.00418    0.00066   -0.26767
  7 Li    0.00183    0.00301   -0.27886
  8 Li   -0.00177   -0.00663   -0.27519
  9 Li    0.00363    0.00579    0.27856
 10 Li    0.02072    0.01205    0.25697
 11 Li   -0.00403    0.00529    0.27859
 12 Li    0.00261    0.01641    0.31844
 13 Li    0.00725    0.00084    0.27237
 14 Li    0.00811    0.00743    0.28053
 15 Li   -0.01471   -0.01229    0.29498
 16 Li    0.02725   -0.00708    0.27876
 17 Li    0.00367   -0.00091    0.28370
 18 Li   -0.01312    0.00571   -0.00099
 19 Li    0.02173   -0.00068    0.02001
 20 Li    0.00078    0.01341   -0.04255
 21 Li   -0.00412    0.00270   -0.01424
 22 Li    0.01162   -0.00617    0.01249
 23 Li    0.00213   -0.01576   -0.03692
 24 Li   -0.01493   -0.00488    0.02444
 25 Li    0.01642   -0.00077    0.02811
 26 Li    0.00108   -0.01128    0.01400
 27 Li   -0.00537   -0.00210   -0.00638
 28 Li    0.00158    0.00106    0.01168
 29 Li   -0.00812   -0.02089   -0.01164
 30 Li   -0.02532    0.00062   -0.00041
 31 Li    0.01258   -0.00043   -0.01480
 32 Li    0.03489   -0.01087    0.01852
 33 Li   -0.01107    0.00126   -0.01244
 34 Li    0.00380   -0.00308   -0.00293
 35 Li    0.00399   -0.00962   -0.00508
 36 O    -0.10749   -0.03663   -0.20804
 37 C     0.01354    0.03270    0.08366
 38 C     0.06069    0.04991    0.13610
 39 H     0.00292   -0.04235   -0.01915
 40 H     0.01346   -0.07095   -0.01647
 41 H    -0.01782   -0.01888   -0.01319
 42 H    -0.09010    0.00383    0.01848
 43 H     0.01008    0.02276   -0.10042
 44 H     0.05944    0.08917    0.03283

System changes: positions 

Initializing position-dependent things.

Density initialized from wave functions
       .-----------------------.  
      /|                       |  
     / |                       |  
    /  |                       |  
   /   |                       |  
  /    |                       |  
 *     |                       |  
 |     |                       |  
 |     |                       |  
 |     |                  H    |  
 |     |             H C       |  
 |     |               H H     |  
 |     |               LC      |  
 |     |           H O    H    |  
 |   Li|     Li      Li        |  
 |     |  Li      Li      Li   |  
 | Li  |   Li      Li          |  
 |     |Li      Li      Li     |  
 Li    | Li                    |  
 |   LLi     LLi     LLi       |  
 |     |  Li      Li      Li   |  
 | Li  |   Li      Li          |  
 |     |Li      Li      Li     |  
 Li    | Li      Li            |  
 |    Li      Li      Li       |  
 |     |                       |  
 |     |                       |  
 |     |                       |  
 |     |                       |  
 |     |                       |  
 |     |                       |  
 |     .-----------------------.  
 |    /                       /   
 |   /                       /    
 |  /                       /     
 | /                       /      
 |/                       /       
 *-----------------------*        

Positions:
   0 Li     1.617037    1.617037   10.000000    ( 0.0000,  0.0000,  0.0000)
   1 Li     4.851111    1.617037   10.000000    ( 0.0000,  0.0000,  0.0000)
   2 Li     8.085185    1.617037   10.000000    ( 0.0000,  0.0000,  0.0000)
   3 Li     1.617037    4.851111   10.000000    ( 0.0000,  0.0000,  0.0000)
   4 Li     4.851111    4.851111   10.000000    ( 0.0000,  0.0000,  0.0000)
   5 Li     8.085185    4.851111   10.000000    ( 0.0000,  0.0000,  0.0000)
   6 Li     1.617037    8.085185   10.000000    ( 0.0000,  0.0000,  0.0000)
   7 Li     4.851111    8.085185   10.000000    ( 0.0000,  0.0000,  0.0000)
   8 Li     8.085185    8.085185   10.000000    ( 0.0000,  0.0000,  0.0000)
   9 Li     0.000000    0.000000   11.617037    ( 0.0000,  0.0000,  0.0000)
  10 Li     3.234074    0.000000   11.617037    ( 0.0000,  0.0000,  0.0000)
  11 Li     6.468148    0.000000   11.617037    ( 0.0000,  0.0000,  0.0000)
  12 Li     0.000000    3.234074   11.617037    ( 0.0000,  0.0000,  0.0000)
  13 Li     3.234074    3.234074   11.617037    ( 0.0000,  0.0000,  0.0000)
  14 Li     6.468148    3.234074   11.617037    ( 0.0000,  0.0000,  0.0000)
  15 Li     0.000000    6.468148   11.617037    ( 0.0000,  0.0000,  0.0000)
  16 Li     3.234074    6.468148   11.617037    ( 0.0000,  0.0000,  0.0000)
  17 Li     6.468148    6.468148   11.617037    ( 0.0000,  0.0000,  0.0000)
  18 Li     1.653188    1.598897   13.480590    ( 0.0000,  0.0000,  0.0000)
  19 Li     4.864842    1.634461   13.507343    ( 0.0000,  0.0000,  0.0000)
  20 Li     8.086742    1.616020   13.496818    ( 0.0000,  0.0000,  0.0000)
  21 Li     1.654559    4.872071   13.483944    ( 0.0000,  0.0000,  0.0000)
  22 Li     4.865546    4.835802   13.528873    ( 0.0000,  0.0000,  0.0000)
  23 Li     8.057426    4.857137   13.546221    ( 0.0000,  0.0000,  0.0000)
  24 Li     1.636011    8.093273   13.474714    ( 0.0000,  0.0000,  0.0000)
  25 Li     4.845912    8.089605   13.476161    ( 0.0000,  0.0000,  0.0000)
  26 Li     8.091977    8.103144   13.495552    ( 0.0000,  0.0000,  0.0000)
  27 Li     0.054641    0.000890   15.461850    ( 0.0000,  0.0000,  0.0000)
  28 Li     3.269562    0.009031   15.434960    ( 0.0000,  0.0000,  0.0000)
  29 Li     6.484494   -0.007883   15.467849    ( 0.0000,  0.0000,  0.0000)
  30 Li     0.110886    3.264222   15.333910    ( 0.0000,  0.0000,  0.0000)
  31 Li     3.241975    3.225625   15.481603    ( 0.0000,  0.0000,  0.0000)
  32 Li     6.491556    3.193094   15.606709    ( 0.0000,  0.0000,  0.0000)
  33 Li     0.017228    6.480179   15.446324    ( 0.0000,  0.0000,  0.0000)
  34 Li     3.226378    6.479923   15.461622    ( 0.0000,  0.0000,  0.0000)
  35 Li     6.454596    6.507188   15.456195    ( 0.0000,  0.0000,  0.0000)
  36 O      7.733587    1.844210   18.127767    ( 0.0000,  0.0000,  0.0000)
  37 C      8.671149    2.631999   18.887947    ( 0.0000,  0.0000,  0.0000)
  38 C      8.086933    3.949860   19.367236    ( 0.0000,  0.0000,  0.0000)
  39 H      9.059291    2.053172   19.733203    ( 0.0000,  0.0000,  0.0000)
  40 H      9.506263    2.824010   18.208429    ( 0.0000,  0.0000,  0.0000)
  41 H      8.853389    4.527350   19.898876    ( 0.0000,  0.0000,  0.0000)
  42 H      7.752487    4.545900   18.514762    ( 0.0000,  0.0000,  0.0000)
  43 H      7.253727    3.788626   20.060807    ( 0.0000,  0.0000,  0.0000)
  44 H      7.034923    1.517829   18.713308    ( 0.0000,  0.0000,  0.0000)

Unit cell:
           periodic     x           y           z      points  spacing
  1. axis:    yes    9.702222    0.000000    0.000000    60     0.1617
  2. axis:    yes    0.000000    9.702222    0.000000    60     0.1617
  3. axis:    no     0.000000    0.000000   24.851111   156     0.1593

  Lengths:   9.702222   9.702222  24.851111
  Angles:   90.000000  90.000000  90.000000

Effective grid spacing dv^(1/3) = 0.1609

     iter     time        total  log10-change:
                         energy  eigst   dens
iter:   1 18:27:21  -272.602783  -0.88
iter:   2 18:36:22  -272.582639  -1.67  -1.80
iter:   3 18:50:04  -272.579883c -2.35  -2.08
iter:   4 19:06:29  -272.577547c -2.80  -2.24
Writing to output.gpw (mode='')

iter:   5 19:20:52  -272.574387c -2.21  -2.36
iter:   6 19:30:10  -272.573902c -2.13  -2.67
iter:   7 19:38:17  -272.574066c -2.48  -2.68
iter:   8 19:45:42  -272.573954c -3.12  -2.74
iter:   9 19:52:40  -272.573968c -3.61  -3.01
Writing to output.gpw (mode='')

iter:  10 19:57:24  -272.573880c -3.67  -3.18
iter:  11 20:01:25  -272.573905c -3.65  -3.27
iter:  12 20:06:11  -272.573899c -4.69  -3.42
iter:  13 20:14:47  -272.573901c -4.66  -3.49
iter:  14 20:20:08  -272.573920c -4.54  -3.66
Writing to output.gpw (mode='')

iter:  15 20:22:40  -272.573914c -5.15  -3.81
iter:  16 20:25:36  -272.573911c -4.98  -3.86
iter:  17 20:30:01  -272.573903c -5.32  -3.94
iter:  18 20:36:08  -272.573901c -5.47  -4.00
iter:  19 20:42:04  -272.573905c -5.78  -4.04c
Writing to output.gpw (mode='')

iter:  20 20:45:40  -272.573907c -5.92  -4.25c
iter:  21 20:48:57  -272.573906c -5.89  -4.35c
iter:  22 20:52:01  -272.573909c -6.03  -4.50c
iter:  23 20:59:14  -272.573909c -6.44  -4.64c
iter:  24 21:05:20  -272.573907c -6.62  -4.65c
Writing to output.gpw (mode='')

iter:  25 21:12:28  -272.573907c -6.64  -4.74c
iter:  26 21:17:32  -272.573908c -6.59  -4.88c
iter:  27 21:23:53  -272.573908c -6.92  -4.96c
iter:  28 21:28:59  -272.573908c -7.04  -4.99c
iter:  29 21:32:28  -272.573908c -7.13  -5.03c
Writing to output.gpw (mode='')

iter:  30 21:35:56  -272.573908c -7.30  -5.11c
iter:  31 21:39:44  -272.573908c -7.50c -5.39c

Converged after 31 iterations.

Dipole moment: (-0.256976, -3.117319, 0.341197) |e|*Ang

Energy contributions relative to reference atoms: (reference = -11471.411034)

Kinetic:       +125.828974
Potential:     -118.495491
External:        +0.000000
XC:            -280.082392
Entropy (-ST):   -0.153540
Local:           +0.251772
--------------------------
Free energy:   -272.650678
Extrapolated:  -272.573908

Dipole-layer corrected work functions: 3.379155, 2.723257 eV

Showing only first 2 kpts
 Kpt  Band  Eigenvalues  Occupancy
  0    26     -3.28998    1.98327
  0    27     -3.21286    1.92412
  0    28     -2.89321    0.08140
  0    29     -2.78255    0.00924

  1    26     -3.08939    1.36428
  1    27     -3.04665    0.95443
  1    28     -3.01669    0.66796
  1    29     -2.99633    0.50038


Fermi level: -3.05121

No gap
Writing to output.gpw (mode='')


Forces in eV/Ang:
  0 Li    0.00665    0.00115   -0.27562
  1 Li   -0.00830   -0.00073   -0.27064
  2 Li   -0.00045   -0.00263   -0.27526
  3 Li   -0.00284   -0.00178   -0.28001
  4 Li   -0.00049   -0.00344   -0.26832
  5 Li    0.00027    0.00749   -0.27732
  6 Li   -0.00421    0.00061   -0.26716
  7 Li    0.00181    0.00311   -0.27927
  8 Li   -0.00187   -0.00669   -0.27530
  9 Li    0.00382    0.00516    0.28001
 10 Li    0.02169    0.01161    0.25735
 11 Li   -0.00474    0.00457    0.28130
 12 Li    0.00367    0.01744    0.32092
 13 Li    0.00792    0.00127    0.27235
 14 Li    0.00712    0.00798    0.28121
 15 Li   -0.01466   -0.01345    0.29681
 16 Li    0.02841   -0.00783    0.27854
 17 Li    0.00313   -0.00188    0.28575
 18 Li   -0.01396    0.00691   -0.00069
 19 Li    0.02316   -0.00022    0.01904
 20 Li    0.00065    0.01220   -0.04010
 21 Li   -0.00613    0.00111   -0.01342
 22 Li    0.01265   -0.00660    0.01014
 23 Li    0.00322   -0.01561   -0.03732
 24 Li   -0.01443   -0.00432    0.02269
 25 Li    0.01617   -0.00061    0.02618
 26 Li    0.00101   -0.01037    0.01135
 27 Li   -0.00707   -0.00029   -0.00840
 28 Li    0.00059    0.00128    0.01282
 29 Li   -0.00574   -0.01968   -0.01205
 30 Li   -0.02792    0.00118    0.00127
 31 Li    0.01233   -0.00039   -0.01704
 32 Li    0.04009   -0.01147    0.02339
 33 Li   -0.01330   -0.00126   -0.01206
 34 Li    0.00381   -0.00352   -0.00351
 35 Li    0.00623   -0.01260   -0.00365
 36 O    -0.10394   -0.05079   -0.20622
 37 C    -0.00140    0.05376    0.11618
 38 C     0.07019    0.08886    0.10986
 39 H     0.01148   -0.07062   -0.00908
 40 H    -0.00022   -0.08404   -0.02008
 41 H    -0.04238   -0.05845   -0.03374
 42 H    -0.10076    0.00072    0.05729
 43 H     0.01453    0.04250   -0.12189
 44 H     0.09322    0.10765    0.03792

System changes: positions 

Initializing position-dependent things.

Density initialized from wave functions
       .-----------------------.  
      /|                       |  
     / |                       |  
    /  |                       |  
   /   |                       |  
  /    |                       |  
 *     |                       |  
 |     |                       |  
 |     |                       |  
 |     |                  H    |  
 |     |             H C       |  
 |     |               H H     |  
 |     |               LC      |  
 |     |           H O    H    |  
 |   Li|     Li      Li        |  
 |     |  Li      Li      Li   |  
 | Li  |   Li      Li          |  
 |     |Li      Li      Li     |  
 Li    | Li                    |  
 |   LLi     LLi     LLi       |  
 |     |  Li      Li      Li   |  
 | Li  |   Li      Li          |  
 |     |Li      Li      Li     |  
 Li    | Li      Li            |  
 |    Li      Li      Li       |  
 |     |                       |  
 |     |                       |  
 |     |                       |  
 |     |                       |  
 |     |                       |  
 |     |                       |  
 |     .-----------------------.  
 |    /                       /   
 |   /                       /    
 |  /                       /     
 | /                       /      
 |/                       /       
 *-----------------------*        

Positions:
   0 Li     1.617037    1.617037   10.000000    ( 0.0000,  0.0000,  0.0000)
   1 Li     4.851111    1.617037   10.000000    ( 0.0000,  0.0000,  0.0000)
   2 Li     8.085185    1.617037   10.000000    ( 0.0000,  0.0000,  0.0000)
   3 Li     1.617037    4.851111   10.000000    ( 0.0000,  0.0000,  0.0000)
   4 Li     4.851111    4.851111   10.000000    ( 0.0000,  0.0000,  0.0000)
   5 Li     8.085185    4.851111   10.000000    ( 0.0000,  0.0000,  0.0000)
   6 Li     1.617037    8.085185   10.000000    ( 0.0000,  0.0000,  0.0000)
   7 Li     4.851111    8.085185   10.000000    ( 0.0000,  0.0000,  0.0000)
   8 Li     8.085185    8.085185   10.000000    ( 0.0000,  0.0000,  0.0000)
   9 Li     0.000000    0.000000   11.617037    ( 0.0000,  0.0000,  0.0000)
  10 Li     3.234074    0.000000   11.617037    ( 0.0000,  0.0000,  0.0000)
  11 Li     6.468148    0.000000   11.617037    ( 0.0000,  0.0000,  0.0000)
  12 Li     0.000000    3.234074   11.617037    ( 0.0000,  0.0000,  0.0000)
  13 Li     3.234074    3.234074   11.617037    ( 0.0000,  0.0000,  0.0000)
  14 Li     6.468148    3.234074   11.617037    ( 0.0000,  0.0000,  0.0000)
  15 Li     0.000000    6.468148   11.617037    ( 0.0000,  0.0000,  0.0000)
  16 Li     3.234074    6.468148   11.617037    ( 0.0000,  0.0000,  0.0000)
  17 Li     6.468148    6.468148   11.617037    ( 0.0000,  0.0000,  0.0000)
  18 Li     1.654606    1.598310   13.481125    ( 0.0000,  0.0000,  0.0000)
  19 Li     4.865060    1.635794   13.510375    ( 0.0000,  0.0000,  0.0000)
  20 Li     8.086701    1.616722   13.496003    ( 0.0000,  0.0000,  0.0000)
  21 Li     1.657152    4.873100   13.484779    ( 0.0000,  0.0000,  0.0000)
  22 Li     4.866016    4.834258   13.534330    ( 0.0000,  0.0000,  0.0000)
  23 Li     8.056241    4.855903   13.548462    ( 0.0000,  0.0000,  0.0000)
  24 Li     1.635871    8.092726   13.476915    ( 0.0000,  0.0000,  0.0000)
  25 Li     4.845360    8.087748   13.477415    ( 0.0000,  0.0000,  0.0000)
  26 Li     8.092601    8.101270   13.498095    ( 0.0000,  0.0000,  0.0000)
  27 Li     0.056906    0.000029   15.463169    ( 0.0000,  0.0000,  0.0000)
  28 Li     3.271091    0.008408   15.436820    ( 0.0000,  0.0000,  0.0000)
  29 Li     6.480382   -0.012934   15.464443    ( 0.0000,  0.0000,  0.0000)
  30 Li     0.114163    3.263071   15.335537    ( 0.0000,  0.0000,  0.0000)
  31 Li     3.243273    3.224818   15.486351    ( 0.0000,  0.0000,  0.0000)
  32 Li     6.495016    3.188517   15.618192    ( 0.0000,  0.0000,  0.0000)
  33 Li     0.018885    6.480631   15.447570    ( 0.0000,  0.0000,  0.0000)
  34 Li     3.226525    6.482023   15.465552    ( 0.0000,  0.0000,  0.0000)
  35 Li     6.452802    6.508265   15.458509    ( 0.0000,  0.0000,  0.0000)
  36 O      7.720784    1.860165   18.117482    ( 0.0000,  0.0000,  0.0000)
  37 C      8.663695    2.628607   18.893646    ( 0.0000,  0.0000,  0.0000)
  38 C      8.087191    3.944392   19.388054    ( 0.0000,  0.0000,  0.0000)
  39 H      9.042430    2.034717   19.732964    ( 0.0000,  0.0000,  0.0000)
  40 H      9.505438    2.825205   18.223370    ( 0.0000,  0.0000,  0.0000)
  41 H      8.853595    4.510616   19.935207    ( 0.0000,  0.0000,  0.0000)
  42 H      7.762050    4.551775   18.539354    ( 0.0000,  0.0000,  0.0000)
  43 H      7.247851    3.777849   20.073639    ( 0.0000,  0.0000,  0.0000)
  44 H      7.021917    1.523285   18.697061    ( 0.0000,  0.0000,  0.0000)

Unit cell:
           periodic     x           y           z      points  spacing
  1. axis:    yes    9.702222    0.000000    0.000000    60     0.1617
  2. axis:    yes    0.000000    9.702222    0.000000    60     0.1617
  3. axis:    no     0.000000    0.000000   24.851111   156     0.1593

  Lengths:   9.702222   9.702222  24.851111
  Angles:   90.000000  90.000000  90.000000

Effective grid spacing dv^(1/3) = 0.1609

     iter     time        total  log10-change:
                         energy  eigst   dens
iter:   1 21:44:08  -272.602752  -0.92
iter:   2 21:48:26  -272.584142  -1.70  -1.82
iter:   3 21:52:48  -272.581728c -2.37  -2.11
iter:   4 21:55:29  -272.580749c -2.83  -2.27
Writing to output.gpw (mode='')

iter:   5 21:58:23  -272.576832c -2.19  -2.32
iter:   6 22:01:29  -272.576556c -2.26  -2.71
iter:   7 22:04:41  -272.576654c -2.62  -2.72
iter:   8 22:07:23  -272.576691c -3.17  -2.76
iter:   9 22:10:41  -272.576714c -3.36  -2.99
Writing to output.gpw (mode='')

iter:  10 22:13:51  -272.576684c -3.86  -2.97
iter:  11 22:17:41  -272.576583c -4.00  -3.02
iter:  12 22:20:14  -272.576605c -4.34  -3.45
iter:  13 22:23:27  -272.576603c -4.59  -3.64
iter:  14 22:25:55  -272.576607c -4.98  -3.60
Writing to output.gpw (mode='')

iter:  15 22:29:01  -272.576624c -4.05  -3.59
iter:  16 22:32:39  -272.576617c -5.12  -3.30
iter:  17 22:36:01  -272.576607c -4.82  -3.39
iter:  18 22:39:18  -272.576607c -4.87  -3.60
iter:  19 22:41:45  -272.576609c -5.01  -3.67
Writing to output.gpw (mode='')

iter:  20 22:44:34  -272.576623c -4.85  -3.82
iter:  21 22:47:45  -272.576618c -5.76  -3.89
iter:  22 22:51:04  -272.576615c -6.00  -3.96
iter:  23 22:54:31  -272.576613c -5.80  -4.08c
iter:  24 22:57:27  -272.576609c -5.76  -4.28c
Writing to output.gpw (mode='')

iter:  25 22:59:57  -272.576609c -6.25  -4.44c
iter:  26 23:02:45  -272.576609c -6.60  -4.50c
iter:  27 23:05:01  -272.576609c -6.70  -4.74c
iter:  28 23:08:14  -272.576609c -6.84  -4.77c
iter:  29 23:10:45  -272.576609c -7.00  -4.83c
Writing to output.gpw (mode='')

iter:  30 23:12:56  -272.576610c -7.24  -4.88c
iter:  31 23:15:17  -272.576610c -7.36  -4.96c
iter:  32 23:18:09  -272.576610c -7.42c -5.05c

Converged after 32 iterations.

Dipole moment: (-0.403099, -3.040368, 0.342308) |e|*Ang

Energy contributions relative to reference atoms: (reference = -11471.411034)

Kinetic:       +125.529537
Potential:     -118.284893
External:        +0.000000
XC:            -279.996665
Entropy (-ST):   -0.153685
Local:           +0.252254
--------------------------
Free energy:   -272.653453
Extrapolated:  -272.576610

Dipole-layer corrected work functions: 3.378731, 2.720698 eV

Showing only first 2 kpts
 Kpt  Band  Eigenvalues  Occupancy
  0    26     -3.28715    1.98282
  0    27     -3.21072    1.92316
  0    28     -2.89249    0.08261
  0    29     -2.77960    0.00897

  1    26     -3.08891    1.37301
  1    27     -3.04572    0.96012
  1    28     -3.01501    0.66623
  1    29     -2.99481    0.50016


Fermi level: -3.04971

No gap
Writing to output.gpw (mode='')


Forces in eV/Ang:
  0 Li    0.00671    0.00117   -0.27552
  1 Li   -0.00838   -0.00078   -0.27057
  2 Li   -0.00048   -0.00250   -0.27520
  3 Li   -0.00286   -0.00166   -0.28025
  4 Li   -0.00055   -0.00329   -0.26805
  5 Li    0.00026    0.00757   -0.27734
  6 Li   -0.00417    0.00059   -0.26678
  7 Li    0.00179    0.00315   -0.27976
  8 Li   -0.00199   -0.00680   -0.27541
  9 Li    0.00389    0.00427    0.28151
 10 Li    0.02277    0.01122    0.25897
 11 Li   -0.00543    0.00363    0.28407
 12 Li    0.00465    0.01830    0.32220
 13 Li    0.00893    0.00160    0.27281
 14 Li    0.00593    0.00854    0.28112
 15 Li   -0.01457   -0.01419    0.29823
 16 Li    0.02946   -0.00851    0.27920
 17 Li    0.00262   -0.00271    0.28755
 18 Li   -0.01423    0.00784   -0.00002
 19 Li    0.02364   -0.00013    0.01705
 20 Li    0.00070    0.01067   -0.03650
 21 Li   -0.00787   -0.00053   -0.01187
 22 Li    0.01350   -0.00675    0.00731
 23 Li    0.00411   -0.01543   -0.03618
 24 Li   -0.01321   -0.00359    0.01994
 25 Li    0.01502   -0.00015    0.02316
 26 Li    0.00100   -0.00897    0.00780
 27 Li   -0.00946    0.00056   -0.00981
 28 Li   -0.00075    0.00189    0.01298
 29 Li   -0.00235   -0.01777   -0.01152
 30 Li   -0.02825    0.00232    0.00061
 31 Li    0.01182   -0.00010   -0.01778
 32 Li    0.04335   -0.01325    0.02802
 33 Li   -0.01498   -0.00334   -0.01106
 34 Li    0.00350   -0.00460   -0.00378
 35 Li    0.00834   -0.01540   -0.00232
 36 O    -0.07589   -0.02720   -0.20481
 37 C    -0.01499    0.05301    0.13242
 38 C     0.06669    0.11009    0.13959
 39 H     0.00519   -0.07502   -0.02396
 40 H    -0.02042   -0.09602   -0.03252
 41 H    -0.07728   -0.08910   -0.08412
 42 H    -0.09694    0.01079    0.09206
 43 H     0.02195    0.06084   -0.13712
 44 H     0.10207    0.10879    0.04552

System changes: positions 

Initializing position-dependent things.

Density initialized from wave functions
       .-----------------------.  
      /|                       |  
     / |                       |  
    /  |                       |  
   /   |                       |  
  /    |                       |  
 *     |                       |  
 |     |                       |  
 |     |                       |  
 |     |                  H    |  
 |     |             H C       |  
 |     |               H H     |  
 |     Li              LC      |  
 |     |           H O    H    |  
 |   Li|     Li      Li        |  
 |     |  Li      Li      Li   |  
 | Li  |   Li      Li          |  
 |     |Li      Li      Li     |  
 |     | Li                    |  
 |   LLi     LLi     LLi       |  
 |     |  Li      Li      Li   |  
 | Li  |   Li      Li          |  
 |     |Li      Li      Li     |  
 Li    | Li      Li            |  
 |    Li      Li      Li       |  
 |     |                       |  
 |     |                       |  
 |     |                       |  
 |     |                       |  
 |     |                       |  
 |     |                       |  
 |     .-----------------------.  
 |    /                       /   
 |   /                       /    
 |  /                       /     
 | /                       /      
 |/                       /       
 *-----------------------*        

Positions:
   0 Li     1.617037    1.617037   10.000000    ( 0.0000,  0.0000,  0.0000)
   1 Li     4.851111    1.617037   10.000000    ( 0.0000,  0.0000,  0.0000)
   2 Li     8.085185    1.617037   10.000000    ( 0.0000,  0.0000,  0.0000)
   3 Li     1.617037    4.851111   10.000000    ( 0.0000,  0.0000,  0.0000)
   4 Li     4.851111    4.851111   10.000000    ( 0.0000,  0.0000,  0.0000)
   5 Li     8.085185    4.851111   10.000000    ( 0.0000,  0.0000,  0.0000)
   6 Li     1.617037    8.085185   10.000000    ( 0.0000,  0.0000,  0.0000)
   7 Li     4.851111    8.085185   10.000000    ( 0.0000,  0.0000,  0.0000)
   8 Li     8.085185    8.085185   10.000000    ( 0.0000,  0.0000,  0.0000)
   9 Li     0.000000    0.000000   11.617037    ( 0.0000,  0.0000,  0.0000)
  10 Li     3.234074    0.000000   11.617037    ( 0.0000,  0.0000,  0.0000)
  11 Li     6.468148    0.000000   11.617037    ( 0.0000,  0.0000,  0.0000)
  12 Li     0.000000    3.234074   11.617037    ( 0.0000,  0.0000,  0.0000)
  13 Li     3.234074    3.234074   11.617037    ( 0.0000,  0.0000,  0.0000)
  14 Li     6.468148    3.234074   11.617037    ( 0.0000,  0.0000,  0.0000)
  15 Li     0.000000    6.468148   11.617037    ( 0.0000,  0.0000,  0.0000)
  16 Li     3.234074    6.468148   11.617037    ( 0.0000,  0.0000,  0.0000)
  17 Li     6.468148    6.468148   11.617037    ( 0.0000,  0.0000,  0.0000)
  18 Li     1.656426    1.597493   13.481494    ( 0.0000,  0.0000,  0.0000)
  19 Li     4.865107    1.637118   13.513434    ( 0.0000,  0.0000,  0.0000)
  20 Li     8.086360    1.616788   13.495527    ( 0.0000,  0.0000,  0.0000)
  21 Li     1.660077    4.874192   13.485684    ( 0.0000,  0.0000,  0.0000)
  22 Li     4.866290    4.832633   13.539948    ( 0.0000,  0.0000,  0.0000)
  23 Li     8.054922    4.854956   13.550667    ( 0.0000,  0.0000,  0.0000)
  24 Li     1.635978    8.092421   13.479073    ( 0.0000,  0.0000,  0.0000)
  25 Li     4.844454    8.085519   13.478353    ( 0.0000,  0.0000,  0.0000)
  26 Li     8.093226    8.099524   13.500639    ( 0.0000,  0.0000,  0.0000)
  27 Li     0.059654   -0.000046   15.464443    ( 0.0000,  0.0000,  0.0000)
  28 Li     3.272827    0.007411   15.439609    ( 0.0000,  0.0000,  0.0000)
  29 Li     6.475396   -0.018544   15.460643    ( 0.0000,  0.0000,  0.0000)
  30 Li     0.117249    3.261633   15.336758    ( 0.0000,  0.0000,  0.0000)
  31 Li     3.244231    3.223735   15.490642    ( 0.0000,  0.0000,  0.0000)
  32 Li     6.499627    3.183822   15.630082    ( 0.0000,  0.0000,  0.0000)
  33 Li     0.020648    6.480449   15.448261    ( 0.0000,  0.0000,  0.0000)
  34 Li     3.226794    6.484859   15.470170    ( 0.0000,  0.0000,  0.0000)
  35 Li     6.450859    6.508966   15.461178    ( 0.0000,  0.0000,  0.0000)
  36 O      7.707693    1.876986   18.106375    ( 0.0000,  0.0000,  0.0000)
  37 C      8.655670    2.625147   18.899305    ( 0.0000,  0.0000,  0.0000)
  38 C      8.087271    3.938681   19.409811    ( 0.0000,  0.0000,  0.0000)
  39 H      9.024971    2.015716   19.731963    ( 0.0000,  0.0000,  0.0000)
  40 H      9.504230    2.826090   18.238635    ( 0.0000,  0.0000,  0.0000)
  41 H      8.853694    4.493033   19.971135    ( 0.0000,  0.0000,  0.0000)
  42 H      7.772068    4.558263   18.565101    ( 0.0000,  0.0000,  0.0000)
  43 H      7.241307    3.767396   20.086388    ( 0.0000,  0.0000,  0.0000)
  44 H      7.008557    1.529020   18.680033    ( 0.0000,  0.0000,  0.0000)

Unit cell:
           periodic     x           y           z      points  spacing
  1. axis:    yes    9.702222    0.000000    0.000000    60     0.1617
  2. axis:    yes    0.000000    9.702222    0.000000    60     0.1617
  3. axis:    no     0.000000    0.000000   24.851111   156     0.1593

  Lengths:   9.702222   9.702222  24.851111
  Angles:   90.000000  90.000000  90.000000

Effective grid spacing dv^(1/3) = 0.1609

     iter     time        total  log10-change:
                         energy  eigst   dens
iter:   1 23:21:14  -272.605404  -0.90
iter:   2 23:23:49  -272.587530  -1.68  -1.82
iter:   3 23:26:21  -272.585178c -2.34  -2.10
iter:   4 23:28:27  -272.584111c -2.79  -2.27
Writing to output.gpw (mode='')

iter:   5 23:31:15  -272.580077c -2.19  -2.32
iter:   6 23:34:08  -272.579762c -2.21  -2.70
iter:   7 23:37:24  -272.579889c -2.58  -2.71
iter:   8 23:40:08  -272.579870c -3.24  -2.74
iter:   9 23:42:38  -272.579918c -3.34  -3.01
Writing to output.gpw (mode='')

iter:  10 23:46:14  -272.579884c -3.85  -2.99
iter:  11 23:48:50  -272.579820c -3.88  -3.03
iter:  12 23:51:35  -272.579897c -3.66  -3.13
iter:  13 23:54:02  -272.579834c -4.63  -3.26
iter:  14 23:57:22  -272.579816c -4.53  -3.51
Writing to output.gpw (mode='')

iter:  15 23:59:27  -272.579858c -4.61  -3.61
iter:  16 00:01:37  -272.579825c -4.69  -3.61
iter:  17 00:03:42  -272.579819c -4.84  -3.98
iter:  18 00:07:00  -272.579823c -5.68  -4.00
iter:  19 00:10:20  -272.579825c -5.78  -4.10c
Writing to output.gpw (mode='')

iter:  20 00:13:21  -272.579816c -5.03  -4.15c
iter:  21 00:15:05  -272.579821c -5.86  -3.92
iter:  22 00:18:05  -272.579820c -6.01  -4.19c
iter:  23 00:21:07  -272.579824c -5.89  -4.23c
iter:  24 00:24:47  -272.579825c -6.26  -4.51c
Writing to output.gpw (mode='')

iter:  25 00:28:04  -272.579825c -6.61  -4.63c
iter:  26 00:32:32  -272.579825c -6.56  -4.70c
iter:  27 00:35:23  -272.579826c -6.53  -4.93c
iter:  28 00:38:38  -272.579826c -6.95  -4.94c
iter:  29 00:41:10  -272.579825c -7.10  -4.92c
Writing to output.gpw (mode='')

iter:  30 00:44:13  -272.579825c -7.31  -5.08c
iter:  31 00:46:44  -272.579826c -7.17  -5.18c
iter:  32 00:49:31  -272.579825c -7.48c -5.12c

Converged after 32 iterations.

Dipole moment: (-0.553102, -2.962193, 0.343507) |e|*Ang

Energy contributions relative to reference atoms: (reference = -11471.411034)

Kinetic:       +125.207824
Potential:     -118.058349
External:        +0.000000
XC:            -279.904263
Entropy (-ST):   -0.153834
Local:           +0.251879
--------------------------
Free energy:   -272.656742
Extrapolated:  -272.579825

Dipole-layer corrected work functions: 3.378392, 2.718054 eV

Showing only first 2 kpts
 Kpt  Band  Eigenvalues  Occupancy
  0    26     -3.28430    1.98236
  0    27     -3.20857    1.92219
  0    28     -2.89178    0.08386
  0    29     -2.77666    0.00872

  1    26     -3.08845    1.38186
  1    27     -3.04481    0.96589
  1    28     -3.01326    0.66396
  1    29     -2.99333    0.50027


Fermi level: -3.04822

No gap
Writing to output.gpw (mode='')


Forces in eV/Ang:
  0 Li    0.00673    0.00121   -0.27550
  1 Li   -0.00845   -0.00081   -0.27053
  2 Li   -0.00050   -0.00235   -0.27527
  3 Li   -0.00296   -0.00157   -0.28060
  4 Li   -0.00057   -0.00313   -0.26778
  5 Li    0.00028    0.00764   -0.27753
  6 Li   -0.00415    0.00061   -0.26641
  7 Li    0.00175    0.00321   -0.28031
  8 Li   -0.00209   -0.00691   -0.27560
  9 Li    0.00397    0.00344    0.28305
 10 Li    0.02404    0.01084    0.26023
 11 Li   -0.00632    0.00259    0.28685
 12 Li    0.00553    0.01900    0.32407
 13 Li    0.00997    0.00194    0.27326
 14 Li    0.00477    0.00902    0.28134
 15 Li   -0.01434   -0.01486    0.29990
 16 Li    0.03038   -0.00936    0.27956
 17 Li    0.00208   -0.00356    0.28940
 18 Li   -0.01477    0.00891    0.00081
 19 Li    0.02427   -0.00011    0.01515
 20 Li    0.00099    0.00979   -0.03365
 21 Li   -0.00967   -0.00211   -0.01048
 22 Li    0.01455   -0.00687    0.00450
 23 Li    0.00498   -0.01570   -0.03531
 24 Li   -0.01230   -0.00312    0.01749
 25 Li    0.01420    0.00053    0.02073
 26 Li    0.00104   -0.00785    0.00444
 27 Li   -0.01220    0.00047   -0.01109
 28 Li   -0.00232    0.00292    0.01237
 29 Li    0.00153   -0.01575   -0.01077
 30 Li   -0.02823    0.00369   -0.00013
 31 Li    0.01167    0.00034   -0.01802
 32 Li    0.04616   -0.01551    0.03351
 33 Li   -0.01668   -0.00469   -0.00969
 34 Li    0.00312   -0.00632   -0.00447
 35 Li    0.01053   -0.01791   -0.00134
 36 O    -0.02129    0.03242   -0.15908
 37 C    -0.01674    0.05838    0.14993
 38 C     0.06317    0.11792    0.12134
 39 H    -0.01010   -0.07866   -0.03278
 40 H    -0.03928   -0.11061   -0.05524
 41 H    -0.09862   -0.10640   -0.11423
 42 H    -0.09427    0.00861    0.11704
 43 H     0.02951    0.06897   -0.12886
 44 H     0.12559    0.11299    0.02716

System changes: positions 

Initializing position-dependent things.

Density initialized from wave functions
       .-----------------------.  
      /|                       |  
     / |                       |  
    /  |                       |  
   /   |                       |  
  /    |                       |  
 *     |                       |  
 |     |                       |  
 |     |                       |  
 |     |                  H    |  
 |     |             H C       |  
 |     |               H H     |  
 |     |               LC H    |  
 |     |           H O         |  
 |   Li|     Li      Li        |  
 |     |  Li      Li      Li   |  
 | Li  |   Li      Li          |  
 |     |Li      Li      Li     |  
 Li    | Li                    |  
 |   LLi     LLi     LLi       |  
 |     |  Li      Li      Li   |  
 | Li  |   Li      Li          |  
 |     |Li      Li      Li     |  
 Li    | Li      Li            |  
 |    Li      Li      Li       |  
 |     |                       |  
 |     |                       |  
 |     |                       |  
 |     |                       |  
 |     |                       |  
 |     |                       |  
 |     .-----------------------.  
 |    /                       /   
 |   /                       /    
 |  /                       /     
 | /                       /      
 |/                       /       
 *-----------------------*        

Positions:
   0 Li     1.617037    1.617037   10.000000    ( 0.0000,  0.0000,  0.0000)
   1 Li     4.851111    1.617037   10.000000    ( 0.0000,  0.0000,  0.0000)
   2 Li     8.085185    1.617037   10.000000    ( 0.0000,  0.0000,  0.0000)
   3 Li     1.617037    4.851111   10.000000    ( 0.0000,  0.0000,  0.0000)
   4 Li     4.851111    4.851111   10.000000    ( 0.0000,  0.0000,  0.0000)
   5 Li     8.085185    4.851111   10.000000    ( 0.0000,  0.0000,  0.0000)
   6 Li     1.617037    8.085185   10.000000    ( 0.0000,  0.0000,  0.0000)
   7 Li     4.851111    8.085185   10.000000    ( 0.0000,  0.0000,  0.0000)
   8 Li     8.085185    8.085185   10.000000    ( 0.0000,  0.0000,  0.0000)
   9 Li     0.000000    0.000000   11.617037    ( 0.0000,  0.0000,  0.0000)
  10 Li     3.234074    0.000000   11.617037    ( 0.0000,  0.0000,  0.0000)
  11 Li     6.468148    0.000000   11.617037    ( 0.0000,  0.0000,  0.0000)
  12 Li     0.000000    3.234074   11.617037    ( 0.0000,  0.0000,  0.0000)
  13 Li     3.234074    3.234074   11.617037    ( 0.0000,  0.0000,  0.0000)
  14 Li     6.468148    3.234074   11.617037    ( 0.0000,  0.0000,  0.0000)
  15 Li     0.000000    6.468148   11.617037    ( 0.0000,  0.0000,  0.0000)
  16 Li     3.234074    6.468148   11.617037    ( 0.0000,  0.0000,  0.0000)
  17 Li     6.468148    6.468148   11.617037    ( 0.0000,  0.0000,  0.0000)
  18 Li     1.658011    1.596753   13.481696    ( 0.0000,  0.0000,  0.0000)
  19 Li     4.865806    1.638489   13.517299    ( 0.0000,  0.0000,  0.0000)
  20 Li     8.085744    1.616787   13.493907    ( 0.0000,  0.0000,  0.0000)
  21 Li     1.662911    4.875343   13.486185    ( 0.0000,  0.0000,  0.0000)
  22 Li     4.866791    4.830804   13.546111    ( 0.0000,  0.0000,  0.0000)
  23 Li     8.053611    4.853903   13.551473    ( 0.0000,  0.0000,  0.0000)
  24 Li     1.635700    8.092104   13.482089    ( 0.0000,  0.0000,  0.0000)
  25 Li     4.843973    8.082913   13.480110    ( 0.0000,  0.0000,  0.0000)
  26 Li     8.093834    8.097451   13.503856    ( 0.0000,  0.0000,  0.0000)
  27 Li     0.062923    0.000714   15.465337    ( 0.0000,  0.0000,  0.0000)
  28 Li     3.274823    0.006061   15.443524    ( 0.0000,  0.0000,  0.0000)
  29 Li     6.469364   -0.025038   15.456273    ( 0.0000,  0.0000,  0.0000)
  30 Li     0.118896    3.259868   15.338442    ( 0.0000,  0.0000,  0.0000)
  31 Li     3.245210    3.222397   15.493498    ( 0.0000,  0.0000,  0.0000)
  32 Li     6.506388    3.179412   15.642406    ( 0.0000,  0.0000,  0.0000)
  33 Li     0.022036    6.479750   15.447934    ( 0.0000,  0.0000,  0.0000)
  34 Li     3.227350    6.488320   15.474916    ( 0.0000,  0.0000,  0.0000)
  35 Li     6.448956    6.509131   15.463803    ( 0.0000,  0.0000,  0.0000)
  36 O      7.693586    1.896453   18.094533    ( 0.0000,  0.0000,  0.0000)
  37 C      8.647358    2.622079   18.904828    ( 0.0000,  0.0000,  0.0000)
  38 C      8.087478    3.932706   19.431848    ( 0.0000,  0.0000,  0.0000)
  39 H      9.006428    1.995313   19.729384    ( 0.0000,  0.0000,  0.0000)
  40 H      9.502759    2.826667   18.253806    ( 0.0000,  0.0000,  0.0000)
  41 H      8.853550    4.474982   20.006830    ( 0.0000,  0.0000,  0.0000)
  42 H      7.782024    4.563641   18.591014    ( 0.0000,  0.0000,  0.0000)
  43 H      7.234444    3.757356   20.098623    ( 0.0000,  0.0000,  0.0000)
  44 H      6.995917    1.535568   18.662981    ( 0.0000,  0.0000,  0.0000)

Unit cell:
           periodic     x           y           z      points  spacing
  1. axis:    yes    9.702222    0.000000    0.000000    60     0.1617
  2. axis:    yes    0.000000    9.702222    0.000000    60     0.1617
  3. axis:    no     0.000000    0.000000   24.851111   156     0.1593

  Lengths:   9.702222   9.702222  24.851111
  Angles:   90.000000  90.000000  90.000000

Effective grid spacing dv^(1/3) = 0.1609

     iter     time        total  log10-change:
                         energy  eigst   dens
iter:   1 00:52:02  -272.608261  -0.88
iter:   2 00:54:17  -272.590226  -1.66  -1.81
iter:   3 00:58:22  -272.587931c -2.30  -2.10
iter:   4 01:03:38  -272.587447c -2.73  -2.27
Writing to output.gpw (mode='')

iter:   5 01:07:37  -272.583850c -2.49  -2.29
iter:   6 01:11:40  -272.583183c -1.86  -2.48
iter:   7 01:13:42  -272.585002c -1.99  -2.57
iter:   8 01:15:30  -272.584755c -2.62  -2.38
iter:   9 01:18:04  -272.583825c -3.24  -2.39
Writing to output.gpw (mode='')

iter:  10 01:19:55  -272.582628c -2.59  -2.48
iter:  11 01:21:41  -272.582707c -2.93  -3.05
iter:  12 01:23:59  -272.582731c -3.50  -3.12
iter:  13 01:26:27  -272.582768c -3.59  -3.32
iter:  14 01:28:29  -272.582806c -3.55  -3.43
Writing to output.gpw (mode='')

iter:  15 01:30:43  -272.582786c -4.03  -3.42
iter:  16 01:32:27  -272.582712c -4.57  -3.47
iter:  17 01:34:24  -272.582720c -5.05  -3.60
iter:  18 01:36:23  -272.582756c -4.48  -3.72
iter:  19 01:39:52  -272.582735c -5.47  -3.72
Writing to output.gpw (mode='')

iter:  20 01:42:02  -272.582721c -5.39  -3.85
iter:  21 01:44:17  -272.582728c -5.81  -3.91
iter:  22 01:47:36  -272.582723c -5.66  -4.08c
iter:  23 01:51:55  -272.582721c -5.88  -4.32c
iter:  24 01:56:05  -272.582722c -6.21  -4.36c
Writing to output.gpw (mode='')

iter:  25 01:58:38  -272.582724c -6.30  -4.45c
iter:  26 02:02:12  -272.582723c -6.45  -4.61c
iter:  27 02:05:25  -272.582722c -6.45  -4.69c
iter:  28 02:09:28  -272.582722c -6.81  -4.74c
iter:  29 02:14:12  -272.582722c -6.95  -4.90c
Writing to output.gpw (mode='')

iter:  30 02:17:45  -272.582722c -7.25  -5.07c
iter:  31 02:20:39  -272.582722c -7.11  -5.10c
iter:  32 02:23:52  -272.582723c -7.40c -5.17c

Converged after 32 iterations.

Dipole moment: (-0.688816, -2.880489, 0.345103) |e|*Ang

Energy contributions relative to reference atoms: (reference = -11471.411034)

Kinetic:       +124.924667
Potential:     -117.861018
External:        +0.000000
XC:            -279.822371
Entropy (-ST):   -0.153988
Local:           +0.252994
--------------------------
Free energy:   -272.659717
Extrapolated:  -272.582723

Dipole-layer corrected work functions: 3.377932, 2.714527 eV

Showing only first 2 kpts
 Kpt  Band  Eigenvalues  Occupancy
  0    26     -3.28099    1.98189
  0    27     -3.20592    1.92120
  0    28     -2.89055    0.08509
  0    29     -2.77325    0.00847

  1    26     -3.08744    1.39026
  1    27     -3.04337    0.97138
  1    28     -3.01095    0.66114
  1    29     -2.99149    0.50140


Fermi level: -3.04623

No gap
Writing to output.gpw (mode='')


Forces in eV/Ang:
  0 Li    0.00675    0.00122   -0.27544
  1 Li   -0.00851   -0.00088   -0.27051
  2 Li   -0.00051   -0.00211   -0.27526
  3 Li   -0.00306   -0.00148   -0.28090
  4 Li   -0.00054   -0.00287   -0.26751
  5 Li    0.00026    0.00769   -0.27760
  6 Li   -0.00401    0.00066   -0.26604
  7 Li    0.00168    0.00324   -0.28095
  8 Li   -0.00226   -0.00705   -0.27576
  9 Li    0.00407    0.00213    0.28461
 10 Li    0.02558    0.01024    0.26227
 11 Li   -0.00749    0.00102    0.28970
 12 Li    0.00663    0.01960    0.32530
 13 Li    0.01142    0.00212    0.27400
 14 Li    0.00308    0.00949    0.28098
 15 Li   -0.01398   -0.01507    0.30142
 16 Li    0.03140   -0.00994    0.28037
 17 Li    0.00132   -0.00413    0.29112
 18 Li   -0.01490    0.00995    0.00202
 19 Li    0.02422   -0.00024    0.01211
 20 Li    0.00146    0.00851   -0.02913
 21 Li   -0.01153   -0.00397   -0.00835
 22 Li    0.01558   -0.00685    0.00086
 23 Li    0.00583   -0.01595   -0.03290
 24 Li   -0.01063   -0.00247    0.01373
 25 Li    0.01245    0.00143    0.01687
 26 Li    0.00113   -0.00619   -0.00017
 27 Li   -0.01576   -0.00034   -0.01218
 28 Li   -0.00439    0.00436    0.01092
 29 Li    0.00673   -0.01282   -0.00927
 30 Li   -0.02652    0.00565   -0.00232
 31 Li    0.01120    0.00097   -0.01699
 32 Li    0.04812   -0.01890    0.04028
 33 Li   -0.01823   -0.00596   -0.00738
 34 Li    0.00246   -0.00871   -0.00506
 35 Li    0.01302   -0.02062   -0.00006
 36 O     0.01622   -0.01460   -0.09866
 37 C    -0.00266    0.04879    0.15581
 38 C     0.05226    0.10551    0.11441
 39 H    -0.02288   -0.07874   -0.05216
 40 H    -0.05917   -0.12213   -0.07554
 41 H    -0.11637   -0.12475   -0.12113
 42 H    -0.07471    0.01067    0.14150
 43 H     0.03387    0.07507   -0.12724
 44 H     0.13584    0.12370   -0.00402

System changes: positions 

Initializing position-dependent things.

Density initialized from wave functions
       .-----------------------.  
      /|                       |  
     / |                       |  
    /  |                       |  
   /   |                       |  
  /    |                       |  
 *     |                       |  
 |     |                       |  
 |     |                       |  
 |     |                  H    |  
 |     |             H C       |  
 |     |               HH      |  
 |     |               LC H    |  
 |     |           H O         |  
 |   Li|     Li      Li        |  
 |     |  Li      Li      Li   |  
 | Li  |   Li      Li          |  
 |     |Li      Li      Li     |  
 Li    | Li                    |  
 |   LLi     LLi     LLi       |  
 |     |  Li      Li      Li   |  
 | Li  |   Li      Li          |  
 |     |Li      Li      Li     |  
 Li    | Li      Li            |  
 |    Li      Li      Li       |  
 |     |                       |  
 |     |                       |  
 |     |                       |  
 |     |                       |  
 |     |                       |  
 |     |                       |  
 |     .-----------------------.  
 |    /                       /   
 |   /                       /    
 |  /                       /     
 | /                       /      
 |/                       /       
 *-----------------------*        

Positions:
   0 Li     1.617037    1.617037   10.000000    ( 0.0000,  0.0000,  0.0000)
   1 Li     4.851111    1.617037   10.000000    ( 0.0000,  0.0000,  0.0000)
   2 Li     8.085185    1.617037   10.000000    ( 0.0000,  0.0000,  0.0000)
   3 Li     1.617037    4.851111   10.000000    ( 0.0000,  0.0000,  0.0000)
   4 Li     4.851111    4.851111   10.000000    ( 0.0000,  0.0000,  0.0000)
   5 Li     8.085185    4.851111   10.000000    ( 0.0000,  0.0000,  0.0000)
   6 Li     1.617037    8.085185   10.000000    ( 0.0000,  0.0000,  0.0000)
   7 Li     4.851111    8.085185   10.000000    ( 0.0000,  0.0000,  0.0000)
   8 Li     8.085185    8.085185   10.000000    ( 0.0000,  0.0000,  0.0000)
   9 Li     0.000000    0.000000   11.617037    ( 0.0000,  0.0000,  0.0000)
  10 Li     3.234074    0.000000   11.617037    ( 0.0000,  0.0000,  0.0000)
  11 Li     6.468148    0.000000   11.617037    ( 0.0000,  0.0000,  0.0000)
  12 Li     0.000000    3.234074   11.617037    ( 0.0000,  0.0000,  0.0000)
  13 Li     3.234074    3.234074   11.617037    ( 0.0000,  0.0000,  0.0000)
  14 Li     6.468148    3.234074   11.617037    ( 0.0000,  0.0000,  0.0000)
  15 Li     0.000000    6.468148   11.617037    ( 0.0000,  0.0000,  0.0000)
  16 Li     3.234074    6.468148   11.617037    ( 0.0000,  0.0000,  0.0000)
  17 Li     6.468148    6.468148   11.617037    ( 0.0000,  0.0000,  0.0000)
  18 Li     1.659377    1.596548   13.481923    ( 0.0000,  0.0000,  0.0000)
  19 Li     4.867072    1.640195   13.521301    ( 0.0000,  0.0000,  0.0000)
  20 Li     8.084645    1.616111   13.493199    ( 0.0000,  0.0000,  0.0000)
  21 Li     1.664831    4.875709   13.487230    ( 0.0000,  0.0000,  0.0000)
  22 Li     4.867424    4.828802   13.551867    ( 0.0000,  0.0000,  0.0000)
  23 Li     8.052727    4.853180   13.551907    ( 0.0000,  0.0000,  0.0000)
  24 Li     1.635458    8.092120   13.484916    ( 0.0000,  0.0000,  0.0000)
  25 Li     4.843486    8.079805   13.481360    ( 0.0000,  0.0000,  0.0000)
  26 Li     8.094398    8.095755   13.506806    ( 0.0000,  0.0000,  0.0000)
  27 Li     0.066961    0.003553   15.465356    ( 0.0000,  0.0000,  0.0000)
[...]
iter:  11 14:08:53  -272.664651c -3.86  -3.08
iter:  12 14:14:08  -272.664711c -3.57  -3.14
iter:  13 14:18:56  -272.664678c -3.63  -3.19
iter:  14 14:26:50  -272.664596c -4.47  -3.20
Writing to output.gpw (mode='')

iter:  15 14:34:02  -272.664574c -4.57  -3.48
iter:  16 14:40:42  -272.664584c -4.77  -3.57
iter:  17 14:47:03  -272.664625c -4.74  -3.63
iter:  18 14:54:38  -272.664603c -5.29  -3.75
iter:  19 14:59:17  -272.664581c -4.64  -3.85
Writing to output.gpw (mode='')

iter:  20 15:04:40  -272.664615c -5.08  -3.74
iter:  21 15:08:09  -272.664611c -5.84  -4.20c
iter:  22 15:13:10  -272.664605c -6.01  -4.29c
iter:  23 15:19:33  -272.664604c -6.10  -4.44c
iter:  24 15:25:26  -272.664608c -6.14  -4.59c
Writing to output.gpw (mode='')

iter:  25 15:29:51  -272.664607c -6.55  -4.61c
iter:  26 15:34:26  -272.664603c -6.64  -4.62c
iter:  27 15:39:03  -272.664604c -6.88  -4.74c
iter:  28 15:44:12  -272.664603c -6.88  -4.91c
iter:  29 15:50:04  -272.664603c -7.03  -5.02c
Writing to output.gpw (mode='')

iter:  30 15:55:16  -272.664603c -7.29  -5.07c
iter:  31 16:00:44  -272.664604c -7.24  -5.09c
iter:  32 16:05:08  -272.664605c -7.36  -5.27c
iter:  33 16:12:32  -272.664604c -7.49c -5.34c

Converged after 33 iterations.

Dipole moment: (-1.151118, -1.961482, 0.392166) |e|*Ang

Energy contributions relative to reference atoms: (reference = -11471.411034)

Kinetic:       +122.404424
Potential:     -116.233638
External:        +0.000000
XC:            -279.010221
Entropy (-ST):   -0.157220
Local:           +0.253441
--------------------------
Free energy:   -272.743214
Extrapolated:  -272.664604

Dipole-layer corrected work functions: 3.372556, 2.618678 eV

Showing only first 2 kpts
 Kpt  Band  Eigenvalues  Occupancy
  0    26     -3.21042    1.97312
  0    27     -3.14236    1.89909
  0    28     -2.85614    0.11579
  0    29     -2.70446    0.00590

  1    26     -3.05534    1.53508
  1    27     -3.00276    1.07134
  1    28     -2.95627    0.62564
  1    29     -2.93530    0.46071


Fermi level: -2.99562

Gap: 0.013 eV
Transition (v -> c):
  (s=0, k=7, n=27, [0.38, 0.38, 0.00]) -> (s=0, k=4, n=28, [0.38, -0.38, 0.00])
Writing to output.gpw (mode='')


Forces in eV/Ang:
  0 Li    0.00526    0.00262   -0.27607
  1 Li   -0.00801   -0.00103   -0.27125
  2 Li   -0.00123    0.00184   -0.27284
  3 Li   -0.00730   -0.00225   -0.28320
  4 Li    0.00228   -0.00064   -0.26562
  5 Li    0.00069    0.00710   -0.27412
  6 Li   -0.00281    0.00243   -0.26174
  7 Li    0.00055    0.00389   -0.28446
  8 Li   -0.00317   -0.00822   -0.27845
  9 Li    0.00576    0.00453    0.30254
 10 Li    0.03587    0.02296    0.30332
 11 Li   -0.01077   -0.00472    0.31574
 12 Li    0.01063    0.02026    0.31250
 13 Li    0.02815    0.00732    0.29232
 14 Li   -0.00024    0.01318    0.24544
 15 Li   -0.00711   -0.03047    0.31063
 16 Li    0.02687   -0.04030    0.30168
 17 Li    0.00570   -0.02284    0.30384
 18 Li   -0.00572   -0.00201    0.01546
 19 Li    0.00491   -0.01035    0.01274
 20 Li    0.00316   -0.00232    0.00879
 21 Li   -0.00237    0.00242    0.00690
 22 Li    0.01017    0.00501    0.00034
 23 Li   -0.00307   -0.00401    0.00784
 24 Li    0.00348   -0.00487    0.00364
 25 Li   -0.00177   -0.00145    0.01684
 26 Li   -0.00719   -0.01528   -0.00343
 27 Li   -0.03216   -0.03057   -0.01541
 28 Li   -0.01936    0.02252   -0.02838
 29 Li    0.04068   -0.00111    0.01315
 30 Li    0.04932    0.01839   -0.06961
 31 Li    0.01615    0.01110    0.00610
 32 Li    0.08416   -0.07551    0.14425
 33 Li   -0.00915    0.01838   -0.00669
 34 Li   -0.00799   -0.03626   -0.03169
 35 Li    0.02019   -0.01328   -0.03442
 36 O    -0.54804   -0.00081    0.11467
 37 C     0.09370   -0.19626   -0.18921
 38 C     0.04552   -0.11961   -0.00947
 39 H     0.06001    0.28983   -0.08698
 40 H    -0.07871    0.17921    0.20388
 41 H    -0.13920    0.10100   -0.05273
 42 H     0.20429   -0.27494    0.02057
 43 H     0.02094    0.04925    0.06338
 44 H     0.12359    0.11989   -0.33895

System changes: positions 

Initializing position-dependent things.

Density initialized from wave functions
       .-----------------------.  
      /|                       |  
     / |                       |  
    /  |                       |  
   /   |                       |  
  /    |                       |  
 *     |                       |  
 |     |                       |  
 |     |                       |  
 |     |                 H     |  
 |     |             H C       |  
 |     |               H       |  
 |     |       Li      LC H    |  
 |     |           H O         |  
 |   Li|     Li      Li        |  
 |     |  Li      LLi     Li   |  
 | Li  |   Li                  |  
 |     |Li      Li      Li     |  
 Li    |                       |  
 |   LLi     LLi     LLi       |  
 |     |  Li      Li      Li   |  
 | Li  |   Li      Li          |  
 |     |Li      Li      Li     |  
 Li    | Li      Li            |  
 |    Li      Li      Li       |  
 |     |                       |  
 |     |                       |  
 |     |                       |  
 |     |                       |  
 |     |                       |  
 |     |                       |  
 |     .-----------------------.  
 |    /                       /   
 |   /                       /    
 |  /                       /     
 | /                       /      
 |/                       /       
 *-----------------------*        

Positions:
   0 Li     1.617037    1.617037   10.000000    ( 0.0000,  0.0000,  0.0000)
   1 Li     4.851111    1.617037   10.000000    ( 0.0000,  0.0000,  0.0000)
   2 Li     8.085185    1.617037   10.000000    ( 0.0000,  0.0000,  0.0000)
   3 Li     1.617037    4.851111   10.000000    ( 0.0000,  0.0000,  0.0000)
   4 Li     4.851111    4.851111   10.000000    ( 0.0000,  0.0000,  0.0000)
   5 Li     8.085185    4.851111   10.000000    ( 0.0000,  0.0000,  0.0000)
   6 Li     1.617037    8.085185   10.000000    ( 0.0000,  0.0000,  0.0000)
   7 Li     4.851111    8.085185   10.000000    ( 0.0000,  0.0000,  0.0000)
   8 Li     8.085185    8.085185   10.000000    ( 0.0000,  0.0000,  0.0000)
   9 Li     0.000000    0.000000   11.617037    ( 0.0000,  0.0000,  0.0000)
  10 Li     3.234074    0.000000   11.617037    ( 0.0000,  0.0000,  0.0000)
  11 Li     6.468148    0.000000   11.617037    ( 0.0000,  0.0000,  0.0000)
  12 Li     0.000000    3.234074   11.617037    ( 0.0000,  0.0000,  0.0000)
  13 Li     3.234074    3.234074   11.617037    ( 0.0000,  0.0000,  0.0000)
  14 Li     6.468148    3.234074   11.617037    ( 0.0000,  0.0000,  0.0000)
  15 Li     0.000000    6.468148   11.617037    ( 0.0000,  0.0000,  0.0000)
  16 Li     3.234074    6.468148   11.617037    ( 0.0000,  0.0000,  0.0000)
  17 Li     6.468148    6.468148   11.617037    ( 0.0000,  0.0000,  0.0000)
  18 Li     1.655859    1.621352   13.499608    ( 0.0000,  0.0000,  0.0000)
  19 Li     4.904710    1.665423   13.557678    ( 0.0000,  0.0000,  0.0000)
  20 Li     8.085775    1.633978   13.490504    ( 0.0000,  0.0000,  0.0000)
  21 Li     1.660774    4.858761   13.512429    ( 0.0000,  0.0000,  0.0000)
  22 Li     4.901143    4.796748   13.601508    ( 0.0000,  0.0000,  0.0000)
  23 Li     8.056799    4.807575   13.566703    ( 0.0000,  0.0000,  0.0000)
  24 Li     1.626673    8.084736   13.504328    ( 0.0000,  0.0000,  0.0000)
  25 Li     4.840549    8.051355   13.484970    ( 0.0000,  0.0000,  0.0000)
  26 Li     8.106525    8.073540   13.506865    ( 0.0000,  0.0000,  0.0000)
  27 Li     0.067355    0.006587   15.455600    ( 0.0000,  0.0000,  0.0000)
  28 Li     3.283601   -0.000101   15.499908    ( 0.0000,  0.0000,  0.0000)
  29 Li     6.430375   -0.106583   15.387916    ( 0.0000,  0.0000,  0.0000)
  30 Li     0.110811    3.246656   15.439593    ( 0.0000,  0.0000,  0.0000)
  31 Li     3.265471    3.207973   15.531269    ( 0.0000,  0.0000,  0.0000)
  32 Li     6.687687    3.094169   15.951076    ( 0.0000,  0.0000,  0.0000)
  33 Li     0.003829    6.443005   15.481962    ( 0.0000,  0.0000,  0.0000)
  34 Li     3.233535    6.513923   15.530393    ( 0.0000,  0.0000,  0.0000)
  35 Li     6.460139    6.461482   15.536110    ( 0.0000,  0.0000,  0.0000)
  36 O      7.585404    2.207251   17.919242    ( 0.0000,  0.0000,  0.0000)
  37 C      8.521117    2.610554   18.950206    ( 0.0000,  0.0000,  0.0000)
  38 C      8.064286    3.848558   19.715084    ( 0.0000,  0.0000,  0.0000)
  39 H      8.650127    1.750674   19.633212    ( 0.0000,  0.0000,  0.0000)
  40 H      9.462351    2.739952   18.401977    ( 0.0000,  0.0000,  0.0000)
  41 H      8.836531    4.085014   20.456632    ( 0.0000,  0.0000,  0.0000)
  42 H      7.877215    4.728966   19.087239    ( 0.0000,  0.0000,  0.0000)
  43 H      7.138361    3.620790   20.250107    ( 0.0000,  0.0000,  0.0000)
  44 H      6.850750    1.752644   18.373770    ( 0.0000,  0.0000,  0.0000)

Unit cell:
           periodic     x           y           z      points  spacing
  1. axis:    yes    9.702222    0.000000    0.000000    60     0.1617
  2. axis:    yes    0.000000    9.702222    0.000000    60     0.1617
  3. axis:    no     0.000000    0.000000   24.851111   156     0.1593

  Lengths:   9.702222   9.702222  24.851111
  Angles:   90.000000  90.000000  90.000000

Effective grid spacing dv^(1/3) = 0.1609

     iter     time        total  log10-change:
                         energy  eigst   dens
iter:   1 16:19:07  -272.676163  -0.87
iter:   2 16:24:11  -272.676281  -1.66  -2.11
iter:   3 16:27:18  -272.675904c -2.17  -2.16
iter:   4 16:30:40  -272.671063c -2.35  -2.22
Writing to output.gpw (mode='')

iter:   5 16:34:48  -272.670028c -2.34  -2.46
iter:   6 16:38:49  -272.669769c -2.50  -2.56
iter:   7 16:43:08  -272.670948c -2.05  -2.68
iter:   8 16:46:50  -272.669879c -3.04  -2.54
iter:   9 16:51:00  -272.669948c -3.22  -2.96
Writing to output.gpw (mode='')

iter:  10 16:55:34  -272.669931c -3.40  -2.99
iter:  11 16:57:59  -272.669844c -3.84  -2.91
iter:  12 17:00:46  -272.670057c -3.09  -3.04
iter:  13 17:04:23  -272.669887c -4.07  -3.03
iter:  14 17:08:09  -272.669750c -3.75  -3.25
Writing to output.gpw (mode='')

iter:  15 17:12:21  -272.669761c -4.34  -3.51
iter:  16 17:16:17  -272.669826c -4.74  -3.53
iter:  17 17:20:52  -272.669812c -4.89  -3.73
iter:  18 17:26:00  -272.669806c -5.51  -3.88
iter:  19 17:31:52  -272.669823c -5.31  -3.94
Writing to output.gpw (mode='')

iter:  20 17:36:57  -272.669816c -5.90  -4.05c
iter:  21 17:42:16  -272.669822c -5.61  -4.10c
iter:  22 17:47:15  -272.669820c -5.91  -4.10c
iter:  23 17:52:21  -272.669812c -5.74  -4.21c
iter:  24 17:57:42  -272.669809c -5.89  -4.30c
Writing to output.gpw (mode='')

iter:  25 18:01:29  -272.669809c -6.09  -4.50c
iter:  26 18:04:40  -272.669809c -6.36  -4.49c
iter:  27 18:07:24  -272.669813c -6.46  -4.60c
iter:  28 18:11:21  -272.669813c -6.59  -4.73c
iter:  29 18:14:56  -272.669813c -7.14  -4.91c
Writing to output.gpw (mode='')

iter:  30 18:18:13  -272.669812c -6.95  -4.95c
iter:  31 18:24:01  -272.669812c -7.16  -5.06c
iter:  32 18:29:10  -272.669812c -7.22  -5.25c
iter:  33 18:36:10  -272.669812c -7.52c -5.41c

Converged after 33 iterations.

Dipole moment: (-1.101273, -1.861543, 0.394011) |e|*Ang

Energy contributions relative to reference atoms: (reference = -11471.411034)

Kinetic:       +122.577126
Potential:     -116.370173
External:        +0.000000
XC:            -279.052241
Entropy (-ST):   -0.157446
Local:           +0.254199
--------------------------
Free energy:   -272.748535
Extrapolated:  -272.669812

Dipole-layer corrected work functions: 3.372191, 2.614768 eV

Showing only first 2 kpts
 Kpt  Band  Eigenvalues  Occupancy
  0    26     -3.20742    1.97266
  0    27     -3.13914    1.89700
  0    28     -2.85563    0.11939
  0    29     -2.70157    0.00581

  1    26     -3.05486    1.54680
  1    27     -3.00162    1.08122
  1    28     -2.95232    0.61020
  1    29     -2.93320    0.46097


Fermi level: -2.99348

Gap: 0.011 eV
Transition (v -> c):
  (s=0, k=4, n=27, [0.38, -0.38, 0.00]) -> (s=0, k=4, n=28, [0.38, -0.38, 0.00])
Writing to output.gpw (mode='')


Forces in eV/Ang:
  0 Li    0.00512    0.00292   -0.27618
  1 Li   -0.00783   -0.00080   -0.27122
  2 Li   -0.00152    0.00168   -0.27247
  3 Li   -0.00718   -0.00209   -0.28336
  4 Li    0.00199   -0.00106   -0.26557
  5 Li    0.00068    0.00724   -0.27339
  6 Li   -0.00355    0.00211   -0.26132
  7 Li    0.00087    0.00413   -0.28457
  8 Li   -0.00294   -0.00799   -0.27876
  9 Li    0.00651    0.00461    0.30269
 10 Li    0.03555    0.02397    0.30685
 11 Li   -0.00991   -0.00486    0.31555
 12 Li    0.01238    0.02109    0.30893
 13 Li    0.02929    0.00692    0.29372
 14 Li   -0.00083    0.01301    0.23872
 15 Li   -0.00682   -0.03269    0.30950
 16 Li    0.02800   -0.04113    0.30302
 17 Li    0.00560   -0.02402    0.30454
 18 Li   -0.00348   -0.00392    0.01490
 19 Li    0.00412   -0.00804    0.01894
 20 Li    0.00027   -0.00725    0.01815
 21 Li   -0.00148    0.00252    0.00988
 22 Li    0.00693    0.00413    0.00362
 23 Li   -0.00250    0.00219    0.01251
 24 Li    0.00500   -0.00375    0.00362
 25 Li   -0.00309   -0.00545    0.01609
 26 Li   -0.00917   -0.01709   -0.00057
 27 Li   -0.02678   -0.02257   -0.01777
 28 Li   -0.01620    0.01827   -0.02446
 29 Li    0.03395   -0.00422    0.00982
 30 Li    0.05007    0.01438   -0.06789
 31 Li    0.01684    0.00991   -0.00061
 32 Li    0.10135   -0.06548    0.14500
 33 Li   -0.00724    0.01559   -0.01245
 34 Li   -0.00793   -0.03021   -0.03231
 35 Li    0.01868   -0.01236   -0.03608
 36 O    -0.75819   -0.12045   -0.03813
 37 C     0.08802   -0.21231   -0.14869
 38 C     0.14635   -0.16951    0.10932
 39 H     0.07520    0.35634   -0.11232
 40 H    -0.03789    0.22966    0.25612
 41 H    -0.12769    0.14294   -0.03290
 42 H     0.20086   -0.26942   -0.06047
 43 H     0.00664    0.04787    0.04827
 44 H     0.15665    0.14859   -0.32934

System changes: positions 

Initializing position-dependent things.

Density initialized from wave functions
       .-----------------------.  
      /|                       |  
     / |                       |  
    /  |                       |  
   /   |                       |  
  /    |                       |  
 *     |                       |  
 |     |                       |  
 |     |                       |  
 |     |             H   H     |  
 |     |               C       |  
 |     |               H       |  
 |     |               LC H    |  
 |     |           H O         |  
 |   Li|     Li      Li        |  
 |     |  Li      LLi     Li   |  
 | Li  |   Li                  |  
 |     |Li      Li      Li     |  
 Li    | Li                    |  
 |   LLi     LLi     LLi       |  
 |     |  Li      Li      Li   |  
 | Li  |   Li      Li          |  
 |     |Li      Li      Li     |  
 Li    | Li      Li            |  
 |    Li      Li      Li       |  
 |     |                       |  
 |     |                       |  
 |     |                       |  
 |     |                       |  
 |     |                       |  
 |     |                       |  
 |     .-----------------------.  
 |    /                       /   
 |   /                       /    
 |  /                       /     
 | /                       /      
 |/                       /       
 *-----------------------*        

Positions:
   0 Li     1.617037    1.617037   10.000000    ( 0.0000,  0.0000,  0.0000)
   1 Li     4.851111    1.617037   10.000000    ( 0.0000,  0.0000,  0.0000)
   2 Li     8.085185    1.617037   10.000000    ( 0.0000,  0.0000,  0.0000)
   3 Li     1.617037    4.851111   10.000000    ( 0.0000,  0.0000,  0.0000)
   4 Li     4.851111    4.851111   10.000000    ( 0.0000,  0.0000,  0.0000)
   5 Li     8.085185    4.851111   10.000000    ( 0.0000,  0.0000,  0.0000)
   6 Li     1.617037    8.085185   10.000000    ( 0.0000,  0.0000,  0.0000)
   7 Li     4.851111    8.085185   10.000000    ( 0.0000,  0.0000,  0.0000)
   8 Li     8.085185    8.085185   10.000000    ( 0.0000,  0.0000,  0.0000)
   9 Li     0.000000    0.000000   11.617037    ( 0.0000,  0.0000,  0.0000)
  10 Li     3.234074    0.000000   11.617037    ( 0.0000,  0.0000,  0.0000)
  11 Li     6.468148    0.000000   11.617037    ( 0.0000,  0.0000,  0.0000)
  12 Li     0.000000    3.234074   11.617037    ( 0.0000,  0.0000,  0.0000)
  13 Li     3.234074    3.234074   11.617037    ( 0.0000,  0.0000,  0.0000)
  14 Li     6.468148    3.234074   11.617037    ( 0.0000,  0.0000,  0.0000)
  15 Li     0.000000    6.468148   11.617037    ( 0.0000,  0.0000,  0.0000)
  16 Li     3.234074    6.468148   11.617037    ( 0.0000,  0.0000,  0.0000)
  17 Li     6.468148    6.468148   11.617037    ( 0.0000,  0.0000,  0.0000)
  18 Li     1.653543    1.623131   13.500748    ( 0.0000,  0.0000,  0.0000)
  19 Li     4.907928    1.665094   13.558831    ( 0.0000,  0.0000,  0.0000)
  20 Li     8.086579    1.635769   13.488082    ( 0.0000,  0.0000,  0.0000)
  21 Li     1.658619    4.857815   13.512131    ( 0.0000,  0.0000,  0.0000)
  22 Li     4.903930    4.796126   13.600848    ( 0.0000,  0.0000,  0.0000)
  23 Li     8.057686    4.804607   13.564129    ( 0.0000,  0.0000,  0.0000)
  24 Li     1.625560    8.083984   13.505215    ( 0.0000,  0.0000,  0.0000)
  25 Li     4.841830    8.051766   13.486841    ( 0.0000,  0.0000,  0.0000)
  26 Li     8.106484    8.072286   13.505561    ( 0.0000,  0.0000,  0.0000)
  27 Li     0.063078    0.004189   15.453599    ( 0.0000,  0.0000,  0.0000)
  28 Li     3.281750    0.001900   15.499010    ( 0.0000,  0.0000,  0.0000)
  29 Li     6.434446   -0.107500   15.387805    ( 0.0000,  0.0000,  0.0000)
  30 Li     0.110248    3.248468   15.439030    ( 0.0000,  0.0000,  0.0000)
  31 Li     3.267655    3.208841   15.530976    ( 0.0000,  0.0000,  0.0000)
  32 Li     6.697040    3.088540   15.964696    ( 0.0000,  0.0000,  0.0000)
  33 Li     0.000829    6.443131   15.482810    ( 0.0000,  0.0000,  0.0000)
  34 Li     3.233231    6.510368   15.528072    ( 0.0000,  0.0000,  0.0000)
  35 Li     6.463157    6.458021   15.535593    ( 0.0000,  0.0000,  0.0000)
  36 O      7.583713    2.221299   17.918125    ( 0.0000,  0.0000,  0.0000)
  37 C      8.520677    2.612625   18.948310    ( 0.0000,  0.0000,  0.0000)
  38 C      8.064239    3.848674   19.714494    ( 0.0000,  0.0000,  0.0000)
  39 H      8.648941    1.753483   19.629303    ( 0.0000,  0.0000,  0.0000)
  40 H      9.461035    2.738188   18.399576    ( 0.0000,  0.0000,  0.0000)
  41 H      8.836613    4.082112   20.453303    ( 0.0000,  0.0000,  0.0000)
  42 H      7.881775    4.732368   19.090922    ( 0.0000,  0.0000,  0.0000)
  43 H      7.138891    3.620624   20.251184    ( 0.0000,  0.0000,  0.0000)
  44 H      6.850507    1.756319   18.363022    ( 0.0000,  0.0000,  0.0000)

Unit cell:
           periodic     x           y           z      points  spacing
  1. axis:    yes    9.702222    0.000000    0.000000    60     0.1617
  2. axis:    yes    0.000000    9.702222    0.000000    60     0.1617
  3. axis:    no     0.000000    0.000000   24.851111   156     0.1593

  Lengths:   9.702222   9.702222  24.851111
  Angles:   90.000000  90.000000  90.000000

Effective grid spacing dv^(1/3) = 0.1609

     iter     time        total  log10-change:
                         energy  eigst   dens
iter:   1 18:41:29  -272.679483  -1.74
iter:   2 18:46:45  -272.678582  -2.52  -2.33
iter:   3 18:52:52  -272.677229c -3.07  -2.41
iter:   4 18:57:22  -272.676502c -2.70  -2.63
Writing to output.gpw (mode='')

iter:   5 19:01:48  -272.676633c -3.44  -2.79
iter:   6 19:05:25  -272.676370c -3.18  -2.80
iter:   7 19:12:12  -272.676330c -3.20  -2.98
iter:   8 19:17:42  -272.676376c -4.03  -3.18
iter:   9 19:23:38  -272.676408c -3.98  -3.31
Writing to output.gpw (mode='')

iter:  10 19:28:55  -272.676376c -4.41  -3.41
iter:  11 19:35:24  -272.676348c -4.19  -3.49
iter:  12 19:42:26  -272.676358c -5.00  -3.64
iter:  13 19:47:32  -272.676364c -5.12  -3.64
