
  ___ ___ ___ _ _ _  
 |   |   |_  | | | | 
 | | | | | . | | | | 
 |__ |  _|___|_____|  22.8.0
 |___|_|             

User:   vazumah@r303.ib.bridges2.psc.edu
Date:   Fri Mar 10 10:03:24 2023
Arch:   x86_64
Pid:    56721
CWD:    /jet/home/vazumah/Calcs/LiMEAS/proton_donors/butanol_x/bridge/0.0_1.617/N2_y
Python: 3.11.0
gpaw:   /jet/home/vazumah/.conda/envs/GPAW_mpich/lib/python3.11/site-packages/gpaw
_gpaw:  /jet/home/vazumah/.conda/envs/GPAW_mpich/lib/python3.11/site-packages/
        _gpaw.cpython-311-x86_64-linux-gnu.so
ase:    /jet/home/vazumah/.conda/envs/GPAW_mpich/lib/python3.11/site-packages/ase (version 3.22.1)
numpy:  /jet/home/vazumah/.conda/envs/GPAW_mpich/lib/python3.11/site-packages/numpy (version 1.24.2)
scipy:  /jet/home/vazumah/.conda/envs/GPAW_mpich/lib/python3.11/site-packages/scipy (version 1.10.1)
libxc:  5.2.3
units:  Angstrom and eV
cores: 128
OpenMP: True
OMP_NUM_THREADS: 1

Input parameters:
  h: 0.16
  kpts: {size: [4, 4, 1]}
  occupations: {name: fermi-dirac,
                width: 0.05}
  poissonsolver: {dipolelayer: xy}
  xc: BEEF-vdW

System changes: positions, numbers, cell, pbc, initial_charges, initial_magmoms 

Initialize ...

species:
  Li:
    name: Lithium
    id: 830b4218f175192f93f959cfc0aad614
    Z: 3.0
    valence: 1
    core: 2
    charge: 0.0
    file: /jet/home/vazumah/datasets/gpaw-setups-0.9.20000/Li.PBE.gz
    compensation charges: {type: gauss,
                           rc: 0.33,
                           lmax: 2}
    cutoffs: {filter: 1.91,
              core: 2.55}
    valence states:
      #              energy  rcut
      - 2s(1.00)    -2.874   1.058
      - 2p(0.00)    -1.090   1.058
      -  s          24.337   1.058
  
    # Using partial waves for Li as LCAO basis

  O:
    name: Oxygen
    id: 32ecd46bf208036f09c70b0ec9a88b78
    Z: 8.0
    valence: 6
    core: 2
    charge: 0.0
    file: /jet/home/vazumah/datasets/gpaw-setups-0.9.20000/O.PBE.gz
    compensation charges: {type: gauss,
                           rc: 0.21,
                           lmax: 2}
    cutoffs: {filter: 1.17,
              core: 0.83}
    valence states:
      #              energy  rcut
      - 2s(2.00)   -23.961   0.688
      - 2p(4.00)    -9.029   0.598
      -  s           3.251   0.688
      -  p          18.182   0.598
      -  d           0.000   0.619
  
    # Using partial waves for O as LCAO basis

  C:
    name: Carbon
    id: 4aa54d4b901d75f77cc0ea3eec22967b
    Z: 6.0
    valence: 4
    core: 2
    charge: 0.0
    file: /jet/home/vazumah/datasets/gpaw-setups-0.9.20000/C.PBE.gz
    compensation charges: {type: gauss,
                           rc: 0.20,
                           lmax: 2}
    cutoffs: {filter: 1.14,
              core: 1.14}
    valence states:
      #              energy  rcut
      - 2s(2.00)   -13.751   0.635
      - 2p(2.00)    -5.284   0.635
      -  s          13.461   0.635
      -  p          21.927   0.635
      -  d           0.000   0.635
  
    # Using partial waves for C as LCAO basis

  H:
    name: Hydrogen
    id: d65de229564ff8ea4db303e23b6d1ecf
    Z: 1.0
    valence: 1
    core: 0
    charge: 0.0
    file: /jet/home/vazumah/datasets/gpaw-setups-0.9.20000/H.PBE.gz
    compensation charges: {type: gauss,
                           rc: 0.15,
                           lmax: 2}
    cutoffs: {filter: 0.85,
              core: 0.53}
    valence states:
      #              energy  rcut
      - 1s(1.00)    -6.494   0.476
      -  s          20.717   0.476
      -  p           0.000   0.476
  
    # Using partial waves for H as LCAO basis

  N:
    name: Nitrogen
    id: f7500608b86eaa90eef8b1d9a670dc53
    Z: 7.0
    valence: 5
    core: 2
    charge: 0.0
    file: /jet/home/vazumah/datasets/gpaw-setups-0.9.20000/N.PBE.gz
    compensation charges: {type: gauss,
                           rc: 0.18,
                           lmax: 2}
    cutoffs: {filter: 1.11,
              core: 0.96}
    valence states:
      #              energy  rcut
      - 2s(2.00)   -18.583   0.603
      - 2p(3.00)    -7.089   0.529
      -  s           8.629   0.603
      -  p          20.123   0.529
      -  d           0.000   0.577
  
    # Using partial waves for N as LCAO basis

Reference energy: -16540.070923  # eV

Spin-paired calculation

Convergence criteria:
 Maximum [total energy] change in last 3 cyles: 0.0005 eV / electron
 Maximum integral of absolute [dens]ity change: 0.0001 electrons / valence electron
 Maximum integral of absolute [eigenst]ate change: 4e-08 eV^2 / valence electron
 Maximum number of scf [iter]ations: 333
 (Square brackets indicate name in SCF output, whereas a 'c' in
 the SCF output indicates the quantity has converged.)

Symmetries present (total): 1

  ( 1  0  0)
  ( 0  1  0)
  ( 0  0  1)

16 k-points: 4 x 4 x 1 Monkhorst-Pack grid
8 k-points in the irreducible part of the Brillouin zone
       k-points in crystal coordinates                weights
   0:     0.12500000   -0.37500000    0.00000000          2/16
   1:     0.12500000   -0.12500000    0.00000000          2/16
   2:     0.12500000    0.12500000    0.00000000          2/16
   3:     0.12500000    0.37500000    0.00000000          2/16
   4:     0.37500000   -0.37500000    0.00000000          2/16
   5:     0.37500000   -0.12500000    0.00000000          2/16
   6:     0.37500000    0.12500000    0.00000000          2/16
   7:     0.37500000    0.37500000    0.00000000          2/16

Wave functions: Uniform real-space grid
  Kinetic energy operator: 6*3+1=19 point O(h^6) finite-difference Laplacian
  ScaLapack parameters: grid=1x1, blocksize=None
  Wavefunction extrapolation:
    Improved wavefunction reuse through dual PAW basis 

Occupation numbers: Fermi-Dirac:
  width: 0.0500  # eV
 

Eigensolver
   Davidson(niter=2) 

Densities:
  Coarse grid: 60*60*164 grid
  Fine grid: 120*120*328 grid
  Total Charge: 0.000000 

Density mixing:
  Method: separate
  Backend: pulay
  Linear mixing parameter: 0.05
  old densities: 5
  Damping of long wavelength oscillations: 50 

Hamiltonian:
  XC and Coulomb potentials evaluated on a 120*120*328 grid
  Using the BEEF-vdW Exchange-Correlation functional
  Interpolation: tri-quintic (5. degree polynomial)
  Poisson solver: FastPoissonSolver using
    Stencil: 6*3+1=19 point O(h^6) finite-difference Laplacian
    FFT axes: [0, 1]
    FST axes: [2]

Dipole correction along z-axis 

XC parameters: BEEF-vdW with 2 nearest neighbor stencil

Memory estimate:
  Process memory now: 124.90 MiB
  Calculator: 88.32 MiB
    Density: 22.73 MiB
      Arrays: 7.22 MiB
      Localized functions: 12.76 MiB
      Mixer: 2.75 MiB
    Hamiltonian: 5.73 MiB
      Arrays: 4.72 MiB
      XC: 0.00 MiB
      Poisson: 0.00 MiB
      vbar: 1.01 MiB
    Wavefunctions: 59.86 MiB
      Arrays psit_nG: 28.02 MiB
      Eigensolver: 31.16 MiB
      Projections: 0.02 MiB
      Projectors: 0.67 MiB

Total number of cores used: 128
Parallelization over k-points: 8
Domain decomposition: 2 x 2 x 4

Number of atoms: 53
Number of atomic orbitals: 182
Number of bands in calculation: 51
Number of valence electrons: 78
Bands to converge: occupied

... initialized

Initializing position-dependent things.

Density initialized from atomic densities
Creating initial wave functions:
  51 bands from LCAO basis set

       .-----------------------.  
      /|                       |  
     / |                       |  
    /  |                       |  
   /   |                       |  
  /    |                       |  
 *     |                       |  
 |     |                       |  
 |     |                       |  
 |     |                       |  
 |     |                       |  
 |     |                       |  
 |     |                       |  
 |     |          H     H      |  
 |     |    HH   C  H   C      |  
 |O  Li|     LC   H CLi H      |  
 |NN   |     H     H      H    |  
 | Li  |  LLi     LLi     Li   |  
 |     |                       |  
 Li    |LLi     LLi     Li     |  
 |   Li|     Li      Li        |  
 |    Li  Li  Li  Li  Li  Li   |  
 | Li  |   Li      Li          |  
 |     |Li      Li      Li     |  
 Li    | Li      Li            |  
 |    Li      Li      Li       |  
 |     |                       |  
 |     |                       |  
 |     |                       |  
 |     |                       |  
 |     |                       |  
 |     |                       |  
 |     .-----------------------.  
 |    /                       /   
 |   /                       /    
 |  /                       /     
 | /                       /      
 |/                       /       
 *-----------------------*        

Positions:
   0 Li     1.617037    1.617037   10.000000    ( 0.0000,  0.0000,  0.0000)
   1 Li     4.851111    1.617037   10.000000    ( 0.0000,  0.0000,  0.0000)
   2 Li     8.085185    1.617037   10.000000    ( 0.0000,  0.0000,  0.0000)
   3 Li     1.617037    4.851111   10.000000    ( 0.0000,  0.0000,  0.0000)
   4 Li     4.851111    4.851111   10.000000    ( 0.0000,  0.0000,  0.0000)
   5 Li     8.085185    4.851111   10.000000    ( 0.0000,  0.0000,  0.0000)
   6 Li     1.617037    8.085185   10.000000    ( 0.0000,  0.0000,  0.0000)
   7 Li     4.851111    8.085185   10.000000    ( 0.0000,  0.0000,  0.0000)
   8 Li     8.085185    8.085185   10.000000    ( 0.0000,  0.0000,  0.0000)
   9 Li     0.000000    0.000000   11.617037    ( 0.0000,  0.0000,  0.0000)
  10 Li     3.234074    0.000000   11.617037    ( 0.0000,  0.0000,  0.0000)
  11 Li     6.468148    0.000000   11.617037    ( 0.0000,  0.0000,  0.0000)
  12 Li     0.000000    3.234074   11.617037    ( 0.0000,  0.0000,  0.0000)
  13 Li     3.234074    3.234074   11.617037    ( 0.0000,  0.0000,  0.0000)
  14 Li     6.468148    3.234074   11.617037    ( 0.0000,  0.0000,  0.0000)
  15 Li     0.000000    6.468148   11.617037    ( 0.0000,  0.0000,  0.0000)
  16 Li     3.234074    6.468148   11.617037    ( 0.0000,  0.0000,  0.0000)
  17 Li     6.468148    6.468148   11.617037    ( 0.0000,  0.0000,  0.0000)
  18 Li     1.617038    1.617038   13.469728    ( 0.0000,  0.0000,  0.0000)
  19 Li     4.851111    1.617038   13.469729    ( 0.0000,  0.0000,  0.0000)
  20 Li     8.085184    1.617038   13.469728    ( 0.0000,  0.0000,  0.0000)
  21 Li     1.617038    4.851111   13.469729    ( 0.0000,  0.0000,  0.0000)
  22 Li     4.851111    4.851111   13.469730    ( 0.0000,  0.0000,  0.0000)
  23 Li     8.085184    4.851111   13.469729    ( 0.0000,  0.0000,  0.0000)
  24 Li     1.617038    8.085184   13.469728    ( 0.0000,  0.0000,  0.0000)
  25 Li     4.851111    8.085184   13.469729    ( 0.0000,  0.0000,  0.0000)
  26 Li     8.085184    8.085184   13.469728    ( 0.0000,  0.0000,  0.0000)
  27 Li    -0.000000   -0.000000   15.445939    ( 0.0000,  0.0000,  0.0000)
  28 Li     3.234074    0.000000   15.445939    ( 0.0000,  0.0000,  0.0000)
  29 Li     6.468148    0.000000   15.445939    ( 0.0000,  0.0000,  0.0000)
  30 Li     0.000000    3.234074   15.445939    ( 0.0000,  0.0000,  0.0000)
  31 Li     3.234076    3.234076   15.445938    ( 0.0000,  0.0000,  0.0000)
  32 Li     6.468146    3.234076   15.445938    ( 0.0000,  0.0000,  0.0000)
  33 Li     0.000000    6.468148   15.445939    ( 0.0000,  0.0000,  0.0000)
  34 Li     3.234076    6.468146   15.445938    ( 0.0000,  0.0000,  0.0000)
  35 Li     6.468146    6.468146   15.445938    ( 0.0000,  0.0000,  0.0000)
  36 O      0.000000    1.617037   18.445939    ( 0.0000,  0.0000,  0.0000)
  37 C     -2.467059    1.604696   18.481765    ( 0.0000,  0.0000,  0.0000)
  38 C     -3.736621    2.459748   18.468355    ( 0.0000,  0.0000,  0.0000)
  39 C     -1.184483    2.427516   18.446147    ( 0.0000,  0.0000,  0.0000)
  40 C     -5.009331    1.608762   18.452726    ( 0.0000,  0.0000,  0.0000)
  41 H     -2.452261    0.971527   19.375259    ( 0.0000,  0.0000,  0.0000)
  42 H     -2.480376    0.934508   17.610409    ( 0.0000,  0.0000,  0.0000)
  43 H     -3.723659    3.118823   17.592145    ( 0.0000,  0.0000,  0.0000)
  44 H     -3.741524    3.115912   19.346325    ( 0.0000,  0.0000,  0.0000)
  45 H     -1.191037    3.093082   17.572008    ( 0.0000,  0.0000,  0.0000)
  46 H     -1.099967    3.050830   19.340765    ( 0.0000,  0.0000,  0.0000)
  47 H     -5.036917    0.966282   17.568683    ( 0.0000,  0.0000,  0.0000)
  48 H     -5.054648    0.958749   19.330177    ( 0.0000,  0.0000,  0.0000)
  49 H     -5.912505    2.222488   18.446581    ( 0.0000,  0.0000,  0.0000)
  50 H     -0.049310    1.027937   17.683760    ( 0.0000,  0.0000,  0.0000)
  51 N      0.000000    1.617000   16.945939    ( 0.0000,  0.0000,  0.0000)
  52 N      0.000000    2.713622   16.945939    ( 0.0000,  0.0000,  0.0000)

Unit cell:
           periodic     x           y           z      points  spacing
  1. axis:    yes    9.702222    0.000000    0.000000    60     0.1617
  2. axis:    yes    0.000000    9.702222    0.000000    60     0.1617
  3. axis:    no     0.000000    0.000000   26.351111   164     0.1607

  Lengths:   9.702222   9.702222  26.351111
  Angles:   90.000000  90.000000  90.000000

Effective grid spacing dv^(1/3) = 0.1614

     iter     time        total  log10-change:
                         energy  eigst   dens
iter:   1 10:03:39  -654.114914
iter:   2 10:03:47   -96.705959  +2.74  +0.01
iter:   3 10:03:54  -140.752976  +3.14  -0.22
iter:   4 10:04:02  -255.163298  +3.02  -0.35
Writing to output.gpw (mode='')

iter:   5 10:04:09  -303.219983  +2.64  -0.43
iter:   6 10:04:17  -342.414977  +2.30  -0.66
iter:   7 10:04:24  -364.153224  +2.07  -0.66
iter:   8 10:04:31  -371.083504  +1.79  -0.61
iter:   9 10:04:39  -414.441953  +2.08  -0.60
Writing to output.gpw (mode='')

iter:  10 10:04:47  -406.239187  +1.54  -0.50
iter:  11 10:05:01  -399.764582  +1.35  -0.50
iter:  12 10:05:08  -388.766425  +1.39  -0.50
iter:  13 10:05:16  -378.156918  +1.46  -0.53
iter:  14 10:05:23  -635.151537  +2.61  -0.62
Writing to output.gpw (mode='')

iter:  15 10:05:31  -330.525102  +2.31  -0.11
iter:  16 10:05:38  -343.719330  +2.11  -0.74
iter:  17 10:05:46  -348.925501  +1.68  -0.84
iter:  18 10:05:53  -350.201581  +1.28  -0.85
iter:  19 10:06:01  -347.516667  +0.89  -0.85
Writing to output.gpw (mode='')

iter:  20 10:06:09  -347.729487  +0.68  -0.99
iter:  21 10:06:16  -347.405473  +0.40  -1.06
iter:  22 10:06:24  -347.315895  +0.23  -1.13
iter:  23 10:06:31  -347.879251  +0.42  -1.20
iter:  24 10:06:39  -347.037236  +0.02  -1.16
Writing to output.gpw (mode='')

iter:  25 10:06:46  -347.051591  -0.37  -1.43
iter:  26 10:06:54  -347.082617  -0.59  -1.46
iter:  27 10:07:01  -347.257542  -0.22  -1.49
iter:  28 10:07:09  -347.091578  -0.72  -1.48
iter:  29 10:07:16  -347.095015  -0.85  -1.79
Writing to output.gpw (mode='')

iter:  30 10:07:24  -347.117058c -0.55  -1.84
iter:  31 10:07:31  -347.121782c -1.22  -1.89
iter:  32 10:07:39  -347.130904c -1.05  -2.05
iter:  33 10:07:46  -347.135607c -1.38  -2.18
iter:  34 10:07:54  -347.142488c -1.52  -2.28
Writing to output.gpw (mode='')

iter:  35 10:08:01  -347.151258c -1.36  -2.42
iter:  36 10:08:09  -347.158117c -1.51  -2.45
iter:  37 10:08:16  -347.164831c -1.70  -2.53
iter:  38 10:08:24  -347.168470c -1.95  -2.64
iter:  39 10:08:31  -347.172714c -1.82  -2.69
Writing to output.gpw (mode='')

iter:  40 10:08:39  -347.175324c -2.11  -2.83
iter:  41 10:08:46  -347.177240c -2.23  -2.92
iter:  42 10:08:54  -347.179205c -2.01  -2.94
iter:  43 10:09:01  -347.181036c -2.11  -2.97
iter:  44 10:09:09  -347.182621c -2.29  -3.01
Writing to output.gpw (mode='')

iter:  45 10:09:16  -347.183843c -2.44  -3.09
iter:  46 10:09:24  -347.185025c -2.49  -3.20
iter:  47 10:09:31  -347.185756c -2.73  -3.36
iter:  48 10:09:39  -347.186509c -2.58  -3.40
iter:  49 10:09:56  -347.187331c -2.49  -3.48
Writing to output.gpw (mode='')

iter:  50 10:10:09  -347.187800c -2.78  -3.58
iter:  51 10:10:18  -347.188346c -2.59  -3.57
iter:  52 10:10:25  -347.188645c -3.02  -3.42
iter:  53 10:10:33  -347.188925c -2.96  -3.65
iter:  54 10:10:40  -347.189218c -2.82  -3.72
Writing to output.gpw (mode='')

iter:  55 10:10:48  -347.189435c -3.10  -3.69
iter:  56 10:10:55  -347.189614c -3.26  -3.70
iter:  57 10:11:03  -347.189760c -3.35  -3.71
iter:  58 10:11:10  -347.189920c -3.21  -3.65
iter:  59 10:11:17  -347.190031c -3.54  -3.59
Writing to output.gpw (mode='')

iter:  60 10:11:25  -347.190118c -3.41  -3.55
iter:  61 10:11:32  -347.190183c -3.51  -3.59
iter:  62 10:11:40  -347.190244c -3.77  -3.68
iter:  63 10:11:47  -347.190270c -3.81  -3.64
iter:  64 10:11:55  -347.190297c -3.74  -3.78
Writing to output.gpw (mode='')

iter:  65 10:12:02  -347.190340c -3.70  -3.83
iter:  66 10:12:10  -347.190351c -3.96  -3.90
iter:  67 10:12:17  -347.190393c -4.02  -3.98
iter:  68 10:12:25  -347.190400c -4.17  -4.04c
iter:  69 10:12:32  -347.190425c -3.90  -4.13c
Writing to output.gpw (mode='')

iter:  70 10:12:40  -347.190443c -4.07  -4.27c
iter:  71 10:12:47  -347.190452c -4.15  -4.40c
iter:  72 10:12:55  -347.190465c -4.29  -4.54c
iter:  73 10:13:02  -347.190475c -4.28  -4.56c
iter:  74 10:13:10  -347.190479c -4.52  -4.59c
Writing to output.gpw (mode='')

iter:  75 10:13:17  -347.190485c -4.55  -4.72c
iter:  76 10:13:25  -347.190491c -4.53  -4.80c
iter:  77 10:13:32  -347.190494c -4.61  -4.87c
iter:  78 10:13:39  -347.190499c -4.88  -4.92c
iter:  79 10:13:47  -347.190500c -4.92  -4.97c
Writing to output.gpw (mode='')

iter:  80 10:13:55  -347.190502c -5.06  -5.21c
iter:  81 10:14:02  -347.190503c -5.03  -5.24c
iter:  82 10:14:09  -347.190505c -5.08  -5.28c
iter:  83 10:14:17  -347.190506c -5.11  -5.43c
iter:  84 10:14:24  -347.190507c -5.22  -5.43c
Writing to output.gpw (mode='')

iter:  85 10:14:32  -347.190508c -5.28  -5.32c
iter:  86 10:14:39  -347.190509c -5.41  -5.35c
iter:  87 10:14:48  -347.190509c -5.46  -5.18c
iter:  88 10:15:01  -347.190510c -5.40  -5.21c
iter:  89 10:15:08  -347.190510c -5.49  -5.15c
Writing to output.gpw (mode='')

iter:  90 10:15:16  -347.190510c -5.55  -5.12c
iter:  91 10:15:23  -347.190511c -5.68  -5.10c
iter:  92 10:15:31  -347.190511c -5.77  -5.03c
iter:  93 10:15:38  -347.190511c -5.66  -4.99c
iter:  94 10:15:46  -347.190511c -5.91  -4.97c
Writing to output.gpw (mode='')

iter:  95 10:15:53  -347.190511c -5.89  -5.07c
iter:  96 10:16:01  -347.190511c -6.01  -5.15c
iter:  97 10:16:08  -347.190510c -6.04  -5.08c
iter:  98 10:16:16  -347.190510c -6.15  -5.32c
iter:  99 10:16:23  -347.190510c -6.16  -5.35c
Writing to output.gpw (mode='')

iter: 100 10:16:31  -347.190510c -6.07  -5.39c
iter: 101 10:16:38  -347.190510c -6.24  -5.47c
iter: 102 10:16:46  -347.190510c -6.27  -5.53c
iter: 103 10:16:53  -347.190510c -6.38  -5.61c
iter: 104 10:17:01  -347.190510c -6.38  -5.69c
Writing to output.gpw (mode='')

iter: 105 10:17:08  -347.190510c -6.58  -5.89c
iter: 106 10:17:18  -347.190510c -6.48  -5.93c
iter: 107 10:17:26  -347.190510c -6.59  -5.97c
iter: 108 10:17:34  -347.190510c -6.57  -5.95c
iter: 109 10:17:41  -347.190510c -6.65  -5.91c
Writing to output.gpw (mode='')

iter: 110 10:17:48  -347.190510c -6.82  -5.74c
iter: 111 10:17:56  -347.190510c -6.78  -5.69c
iter: 112 10:18:04  -347.190510c -6.90  -5.63c
iter: 113 10:18:11  -347.190510c -6.93  -5.68c
iter: 114 10:18:18  -347.190510c -7.02  -5.70c
Writing to output.gpw (mode='')

iter: 115 10:18:26  -347.190510c -6.77  -5.63c
iter: 116 10:18:34  -347.190510c -7.06  -5.63c
iter: 117 10:18:41  -347.190510c -7.15  -5.68c
iter: 118 10:18:49  -347.190510c -7.25  -5.64c
iter: 119 10:18:56  -347.190510c -7.27  -5.65c
Writing to output.gpw (mode='')

iter: 120 10:19:04  -347.190510c -7.22  -5.73c
iter: 121 10:19:11  -347.190510c -7.25  -5.83c
iter: 122 10:19:19  -347.190510c -7.27  -5.93c
iter: 123 10:19:26  -347.190510c -7.52c -6.10c

Converged after 123 iterations.

Dipole moment: (-12.429242, -4.657403, 0.232870) |e|*Ang

Energy contributions relative to reference atoms: (reference = -16540.070923)

Kinetic:       +250.899588
Potential:     -222.549912
External:        +0.000000
XC:            -376.304039
Entropy (-ST):   -0.160005
Local:           +0.843855
--------------------------
Free energy:   -347.270512
Extrapolated:  -347.190510

Dipole-layer corrected work functions: 3.411048, 2.963391 eV

Showing only first 2 kpts
 Kpt  Band  Eigenvalues  Occupancy
  0    37     -3.43163    1.98504
  0    38     -3.31919    1.86672
  0    39     -3.09638    0.27964
  0    40     -2.94739    0.01638

  1    37     -3.22968    1.40076
  1    38     -3.17466    0.87504
  1    39     -3.10928    0.34762
  1    40     -3.08127    0.21453


Fermi level: -3.18722

No gap
Writing to output.gpw (mode='')


Forces in eV/Ang:
  0 Li    0.01673   -0.00144   -0.27912
  1 Li   -0.00021    0.00199   -0.26857
  2 Li   -0.01660   -0.00208   -0.27592
  3 Li    0.00057    0.01372   -0.27606
  4 Li    0.00059   -0.00482   -0.26703
  5 Li   -0.00302    0.01238   -0.27718
  6 Li   -0.00168   -0.00976   -0.27166
  7 Li    0.00059    0.00228   -0.27795
  8 Li    0.00541   -0.01267   -0.26595
  9 Li    0.00194    0.00114    0.28747
 10 Li    0.00370    0.00077    0.26078
 11 Li   -0.01189   -0.00710    0.25444
 12 Li   -0.00056   -0.00494    0.31754
 13 Li    0.01803   -0.00134    0.24997
 14 Li   -0.01031    0.00012    0.25852
 15 Li    0.00108    0.00270    0.25132
 16 Li   -0.00528   -0.00158    0.25418
 17 Li    0.00226    0.01348    0.24740
 18 Li    0.03872    0.00028   -0.09967
 19 Li    0.00317    0.00331    0.06210
 20 Li   -0.04301   -0.01251   -0.07516
 21 Li    0.00661   -0.01767    0.00483
 22 Li   -0.00404   -0.00052    0.05628
 23 Li   -0.00710   -0.01281    0.02986
 24 Li   -0.01383    0.01756    0.06898
 25 Li    0.00016   -0.00694    0.03235
 26 Li    0.01393    0.03151    0.07407
 27 Li    0.03503   -0.02173   -0.00025
 28 Li    0.04377   -0.10663   -0.11506
 29 Li   -0.04406   -0.13180   -0.19580
 30 Li    0.11355    2.08225   -4.54993
 31 Li    0.01523    0.08252   -0.09337
 32 Li   -0.07007    0.11152   -0.27033
 33 Li   -0.01009    0.04384   -0.02286
 34 Li    0.00445    0.01713   -0.01303
 35 Li    0.00972    0.00185   -0.01913
 36 O    -0.99905   -0.43371   19.23864
 37 C    -0.00391   -0.17747    0.21517
 38 C     0.01762   -0.17265    0.25639
 39 C    -3.19270   -0.24499    5.45113
 40 C     0.07860    0.00610    0.17292
 41 H    -0.07491   -0.11471   -0.07652
 42 H     0.01810   -0.08533    0.05180
 43 H    -0.07495    0.15846   -0.00794
 44 H    -0.01065    0.06739   -0.07931
 45 H    -1.13158    0.62296    1.31488
 46 H    -0.04238    0.05197   -0.04767
 47 H     0.01046   -0.01119   -0.04276
 48 H     0.00295   -0.00231    0.04026
 49 H    -0.02271    0.06174    0.00161
 50 H    -1.23535  -10.33829    3.66993
 51 N     2.83494   -2.59110  -17.39318
 52 N     3.74715   11.08144   -7.54505

System changes: positions 

Initializing position-dependent things.

Density initialized from wave functions
       .-----------------------.  
      /|                       |  
     / |                       |  
    /  |                       |  
   /   |                       |  
  /    |                       |  
 *     |                       |  
 |     |                       |  
 |     |                       |  
 |     |                       |  
 |     |                       |  
 |     |                       |  
 |     |                       |  
 |     Li      Li H    LH      |  
 |     |    HH   C  H   C      |  
 |     |     LC   H CLi H O  Li|  
 |NN   |     H     H     H     |  
 | Li  |  LLi     LLi     Li   |  
 |     |                       |  
 |     |Li      Li      Li     |  
 |   Li|     Li      Li        |  
 |    Li  Li  Li  Li  Li  Li   |  
 | Li  |   Li      Li          |  
 |     |Li      Li      Li     |  
 Li    | Li      Li            |  
 |    Li      Li      Li       |  
 |     |                       |  
 |     |                       |  
 |     |                       |  
 |     |                       |  
 |     |                       |  
 |     |                       |  
 |     .-----------------------.  
 |    /                       /   
 |   /                       /    
 |  /                       /     
 | /                       /      
 |/                       /       
 *-----------------------*        

Positions:
   0 Li     1.617037    1.617037   10.000000    ( 0.0000,  0.0000,  0.0000)
   1 Li     4.851111    1.617037   10.000000    ( 0.0000,  0.0000,  0.0000)
   2 Li     8.085185    1.617037   10.000000    ( 0.0000,  0.0000,  0.0000)
   3 Li     1.617037    4.851111   10.000000    ( 0.0000,  0.0000,  0.0000)
   4 Li     4.851111    4.851111   10.000000    ( 0.0000,  0.0000,  0.0000)
   5 Li     8.085185    4.851111   10.000000    ( 0.0000,  0.0000,  0.0000)
   6 Li     1.617037    8.085185   10.000000    ( 0.0000,  0.0000,  0.0000)
   7 Li     4.851111    8.085185   10.000000    ( 0.0000,  0.0000,  0.0000)
   8 Li     8.085185    8.085185   10.000000    ( 0.0000,  0.0000,  0.0000)
   9 Li     0.000000    0.000000   11.617037    ( 0.0000,  0.0000,  0.0000)
  10 Li     3.234074    0.000000   11.617037    ( 0.0000,  0.0000,  0.0000)
  11 Li     6.468148    0.000000   11.617037    ( 0.0000,  0.0000,  0.0000)
  12 Li     0.000000    3.234074   11.617037    ( 0.0000,  0.0000,  0.0000)
  13 Li     3.234074    3.234074   11.617037    ( 0.0000,  0.0000,  0.0000)
  14 Li     6.468148    3.234074   11.617037    ( 0.0000,  0.0000,  0.0000)
  15 Li     0.000000    6.468148   11.617037    ( 0.0000,  0.0000,  0.0000)
  16 Li     3.234074    6.468148   11.617037    ( 0.0000,  0.0000,  0.0000)
  17 Li     6.468148    6.468148   11.617037    ( 0.0000,  0.0000,  0.0000)
  18 Li     1.617118    1.617039   13.469521    ( 0.0000,  0.0000,  0.0000)
  19 Li     4.851118    1.617045   13.469858    ( 0.0000,  0.0000,  0.0000)
  20 Li     8.085095    1.617012   13.469572    ( 0.0000,  0.0000,  0.0000)
  21 Li     1.617052    4.851074   13.469739    ( 0.0000,  0.0000,  0.0000)
  22 Li     4.851103    4.851110   13.469847    ( 0.0000,  0.0000,  0.0000)
  23 Li     8.085169    4.851084   13.469791    ( 0.0000,  0.0000,  0.0000)
  24 Li     1.617009    8.085220   13.469871    ( 0.0000,  0.0000,  0.0000)
  25 Li     4.851111    8.085169   13.469797    ( 0.0000,  0.0000,  0.0000)
  26 Li     8.085213    8.085249   13.469882    ( 0.0000,  0.0000,  0.0000)
  27 Li     0.000073   -0.000045   15.445939    ( 0.0000,  0.0000,  0.0000)
  28 Li     3.234165   -0.000221   15.445700    ( 0.0000,  0.0000,  0.0000)
  29 Li     6.468057   -0.000274   15.445532    ( 0.0000,  0.0000,  0.0000)
  30 Li     0.000236    3.238396   15.436494    ( 0.0000,  0.0000,  0.0000)
  31 Li     3.234108    3.234248   15.445744    ( 0.0000,  0.0000,  0.0000)
  32 Li     6.468000    3.234308   15.445377    ( 0.0000,  0.0000,  0.0000)
  33 Li    -0.000021    6.468239   15.445891    ( 0.0000,  0.0000,  0.0000)
  34 Li     3.234086    6.468181   15.445911    ( 0.0000,  0.0000,  0.0000)
  35 Li     6.468166    6.468149   15.445898    ( 0.0000,  0.0000,  0.0000)
  36 O     -0.002074    1.616137   18.485875    ( 0.0000,  0.0000,  0.0000)
  37 C     -2.467067    1.604328   18.482212    ( 0.0000,  0.0000,  0.0000)
  38 C     -3.736584    2.459390   18.468887    ( 0.0000,  0.0000,  0.0000)
  39 C     -1.191111    2.427008   18.457462    ( 0.0000,  0.0000,  0.0000)
  40 C     -5.009168    1.608775   18.453085    ( 0.0000,  0.0000,  0.0000)
  41 H     -2.452416    0.971289   19.375100    ( 0.0000,  0.0000,  0.0000)
  42 H     -2.480338    0.934331   17.610516    ( 0.0000,  0.0000,  0.0000)
  43 H     -3.723815    3.119152   17.592128    ( 0.0000,  0.0000,  0.0000)
  44 H     -3.741546    3.116052   19.346160    ( 0.0000,  0.0000,  0.0000)
  45 H     -1.193386    3.094376   17.574737    ( 0.0000,  0.0000,  0.0000)
  46 H     -1.100055    3.050938   19.340666    ( 0.0000,  0.0000,  0.0000)
  47 H     -5.036896    0.966259   17.568594    ( 0.0000,  0.0000,  0.0000)
  48 H     -5.054642    0.958744   19.330261    ( 0.0000,  0.0000,  0.0000)
  49 H     -5.912552    2.222616   18.446584    ( 0.0000,  0.0000,  0.0000)
  50 H     -0.051875    1.006477   17.691378    ( 0.0000,  0.0000,  0.0000)
  51 N      0.005885    1.611621   16.909834    ( 0.0000,  0.0000,  0.0000)
  52 N      0.007778    2.736625   16.930277    ( 0.0000,  0.0000,  0.0000)

Unit cell:
           periodic     x           y           z      points  spacing
  1. axis:    yes    9.702222    0.000000    0.000000    60     0.1617
  2. axis:    yes    0.000000    9.702222    0.000000    60     0.1617
  3. axis:    no     0.000000    0.000000   26.351111   164     0.1607

  Lengths:   9.702222   9.702222  26.351111
  Angles:   90.000000  90.000000  90.000000

Effective grid spacing dv^(1/3) = 0.1614

     iter     time        total  log10-change:
                         energy  eigst   dens
iter:   1 10:19:36  -349.978983  -0.35
iter:   2 10:19:43  -349.480077  -0.60  -1.43
iter:   3 10:19:57  -349.324508  -1.04  -1.41
iter:   4 10:20:05  -349.230418  -1.00  -1.69
Writing to output.gpw (mode='')

iter:   5 10:20:13  -349.250682  -1.47  -1.91
iter:   6 10:20:20  -349.181545  -1.44  -1.84
iter:   7 10:20:28  -349.163214  -1.42  -2.03
iter:   8 10:20:35  -349.166130c -1.79  -2.38
iter:   9 10:20:43  -349.180206c -1.43  -2.34
Writing to output.gpw (mode='')

iter:  10 10:20:50  -349.179530c -2.04  -2.21
iter:  11 10:20:58  -349.160587c -1.66  -2.20
iter:  12 10:21:05  -349.159597c -2.55  -2.52
iter:  13 10:21:13  -349.160064c -2.86  -2.74
iter:  14 10:21:20  -349.159653c -3.04  -2.74
Writing to output.gpw (mode='')

iter:  15 10:21:28  -349.159606c -3.21  -2.88
iter:  16 10:21:35  -349.159706c -3.05  -2.94
iter:  17 10:21:43  -349.159641c -3.61  -3.07
iter:  18 10:21:50  -349.159633c -3.54  -3.13
iter:  19 10:21:58  -349.159610c -4.00  -3.26
Writing to output.gpw (mode='')

iter:  20 10:22:06  -349.159679c -3.87  -3.27
iter:  21 10:22:13  -349.159606c -3.84  -3.42
iter:  22 10:22:21  -349.159622c -3.90  -3.56
iter:  23 10:22:28  -349.159629c -4.70  -3.54
iter:  24 10:22:36  -349.159653c -4.40  -3.74
Writing to output.gpw (mode='')

iter:  25 10:22:43  -349.159639c -4.38  -3.83
iter:  26 10:22:51  -349.159644c -4.99  -3.90
iter:  27 10:22:58  -349.159648c -4.88  -3.91
iter:  28 10:23:06  -349.159648c -5.44  -3.92
iter:  29 10:23:14  -349.159648c -5.31  -3.94
Writing to output.gpw (mode='')

iter:  30 10:23:21  -349.159659c -5.14  -3.96
iter:  31 10:23:29  -349.159639c -5.30  -3.94
iter:  32 10:23:36  -349.159648c -5.60  -3.85
iter:  33 10:23:44  -349.159648c -5.91  -3.91
iter:  34 10:23:51  -349.159653c -5.37  -3.91
Writing to output.gpw (mode='')

iter:  35 10:23:59  -349.159655c -5.86  -3.84
iter:  36 10:24:06  -349.159658c -5.75  -3.83
iter:  37 10:24:14  -349.159665c -5.93  -3.78
iter:  38 10:24:21  -349.159648c -5.75  -3.90
iter:  39 10:24:29  -349.159645c -5.20  -4.02c
Writing to output.gpw (mode='')

iter:  40 10:24:36  -349.159647c -6.15  -4.16c
iter:  41 10:24:44  -349.159664c -5.61  -4.36c
iter:  42 10:24:59  -349.159655c -6.55  -4.17c
iter:  43 10:25:07  -349.159653c -6.32  -4.36c
iter:  44 10:25:14  -349.159655c -6.51  -4.52c
Writing to output.gpw (mode='')

iter:  45 10:25:22  -349.159651c -6.39  -4.40c
iter:  46 10:25:29  -349.159652c -6.42  -4.69c
iter:  47 10:25:37  -349.159652c -7.01  -4.80c
iter:  48 10:25:44  -349.159654c -7.06  -4.92c
iter:  49 10:25:52  -349.159651c -7.30  -5.07c
Writing to output.gpw (mode='')

iter:  50 10:25:59  -349.159652c -7.65c -5.19c

Converged after 50 iterations.

Dipole moment: (-13.558178, -4.521438, 0.172705) |e|*Ang

Energy contributions relative to reference atoms: (reference = -16540.070923)

Kinetic:       +239.417737
Potential:     -214.958311
External:        +0.000000
XC:            -374.388432
Entropy (-ST):   -0.160406
Local:           +0.849556
--------------------------
Free energy:   -349.239855
Extrapolated:  -349.159652

Dipole-layer corrected work functions: 3.414206, 3.082208 eV

Showing only first 2 kpts
 Kpt  Band  Eigenvalues  Occupancy
  0    37     -3.49219    1.98491
  0    38     -3.37783    1.86075
  0    39     -3.17319    0.36474
  0    40     -3.00275    0.01465

  1    37     -3.29482    1.43504
  1    38     -3.23102    0.82980
  1    39     -3.16162    0.30071
  1    40     -3.13327    0.18247


Fermi level: -3.24821

No gap

Forces in eV/Ang:
  0 Li    0.01662   -0.00159   -0.28015
  1 Li   -0.00006    0.00186   -0.26879
  2 Li   -0.01646   -0.00232   -0.27701
  3 Li    0.00034    0.01511   -0.27701
  4 Li    0.00073   -0.00442   -0.26663
  5 Li   -0.00302    0.01340   -0.27848
  6 Li   -0.00183   -0.01052   -0.27233
  7 Li    0.00063    0.00214   -0.27843
  8 Li    0.00567   -0.01344   -0.26586
  9 Li    0.00247   -0.00001    0.28755
 10 Li    0.00238    0.00130    0.26361
 11 Li   -0.01215   -0.00624    0.25560
 12 Li   -0.00072   -0.00417    0.32166
 13 Li    0.01708   -0.00201    0.25222
 14 Li   -0.00866   -0.00057    0.26099
 15 Li    0.00102    0.00285    0.25076
 16 Li   -0.00417   -0.00227    0.25258
 17 Li    0.00141    0.01421    0.24635
 18 Li    0.03737   -0.00030   -0.10902
 19 Li    0.00191    0.00390    0.06126
 20 Li   -0.04131   -0.01592   -0.08060
 21 Li    0.00977   -0.01423   -0.00318
 22 Li   -0.00570   -0.00284    0.05706
 23 Li   -0.00941   -0.00935    0.02351
 24 Li   -0.01389    0.01443    0.06658
 25 Li    0.00129   -0.00616    0.03290
 26 Li    0.01412    0.03010    0.07198
 27 Li    0.03976    0.01266    0.03208
 28 Li    0.04550   -0.10776   -0.10614
 29 Li   -0.03932   -0.12951   -0.18346
 30 Li    0.08757    2.06627   -4.75009
 31 Li    0.01364    0.08357   -0.08289
 32 Li   -0.06511    0.11033   -0.24930
 33 Li   -0.01044    0.04189   -0.02293
 34 Li    0.00586    0.01805   -0.01498
 35 Li    0.00839    0.00210   -0.02038
 36 O    -1.46857   -0.80194   15.25202
 37 C    -0.14021   -0.13169    0.24140
 38 C    -0.01100   -0.19409    0.22470
 39 C    -2.33070   -0.57156    4.75163
 40 C     0.05602    0.02428    0.15545
 41 H    -0.08401   -0.12883   -0.06473
 42 H     0.04256   -0.06982    0.05324
 43 H    -0.07442    0.14803    0.00327
 44 H    -0.00985    0.06592   -0.07323
 45 H    -0.94258    0.48265    1.33409
 46 H    -0.12557    0.24630    0.17398
 47 H     0.01291   -0.01121   -0.03702
 48 H     0.00087   -0.00307    0.04122
 49 H    -0.02593    0.05173    0.00651
 50 H    -0.84388   -6.86894    3.33783
 51 N     2.47196   -0.71941  -14.52811
 52 N     3.37577    6.41055   -5.51260

System changes: positions 

Initializing position-dependent things.

Density initialized from wave functions
       .-----------------------.  
      /|                       |  
     / |                       |  
    /  |                       |  
   /   |                       |  
  /    |                       |  
 *     |                       |  
 |     |                       |  
 |     |                       |  
 |     |                       |  
 |     |                       |  
 |     |                       |  
 |     |                       |  
 |     |       Li H    LH      |  
 |     |    HH   C  H   C      |  
 |     |     LC   H CLi H O  Li|  
 | N   |     H     H     H     |  
 |NLi  |  LLi     LLi     Li   |  
 |     |                       |  
 Li    |Li      Li      Li     |  
 |   Li|     Li      Li        |  
 |    Li  Li  Li  Li  Li  Li   |  
 | Li  |   Li      Li          |  
 |     |Li      Li      Li     |  
 Li    | Li      Li            |  
 |    Li      Li      Li       |  
 |     |                       |  
 |     |                       |  
 |     |                       |  
 |     |                       |  
 |     |                       |  
 |     |                       |  
 |     .-----------------------.  
 |    /                       /   
 |   /                       /    
 |  /                       /     
 | /                       /      
 |/                       /       
 *-----------------------*        

Positions:
   0 Li     1.617037    1.617037   10.000000    ( 0.0000,  0.0000,  0.0000)
   1 Li     4.851111    1.617037   10.000000    ( 0.0000,  0.0000,  0.0000)
   2 Li     8.085185    1.617037   10.000000    ( 0.0000,  0.0000,  0.0000)
   3 Li     1.617037    4.851111   10.000000    ( 0.0000,  0.0000,  0.0000)
   4 Li     4.851111    4.851111   10.000000    ( 0.0000,  0.0000,  0.0000)
   5 Li     8.085185    4.851111   10.000000    ( 0.0000,  0.0000,  0.0000)
   6 Li     1.617037    8.085185   10.000000    ( 0.0000,  0.0000,  0.0000)
   7 Li     4.851111    8.085185   10.000000    ( 0.0000,  0.0000,  0.0000)
   8 Li     8.085185    8.085185   10.000000    ( 0.0000,  0.0000,  0.0000)
   9 Li     0.000000    0.000000   11.617037    ( 0.0000,  0.0000,  0.0000)
  10 Li     3.234074    0.000000   11.617037    ( 0.0000,  0.0000,  0.0000)
  11 Li     6.468148    0.000000   11.617037    ( 0.0000,  0.0000,  0.0000)
  12 Li     0.000000    3.234074   11.617037    ( 0.0000,  0.0000,  0.0000)
  13 Li     3.234074    3.234074   11.617037    ( 0.0000,  0.0000,  0.0000)
  14 Li     6.468148    3.234074   11.617037    ( 0.0000,  0.0000,  0.0000)
  15 Li     0.000000    6.468148   11.617037    ( 0.0000,  0.0000,  0.0000)
  16 Li     3.234074    6.468148   11.617037    ( 0.0000,  0.0000,  0.0000)
  17 Li     6.468148    6.468148   11.617037    ( 0.0000,  0.0000,  0.0000)
  18 Li     1.617253    1.617034   13.469050    ( 0.0000,  0.0000,  0.0000)
  19 Li     4.851117    1.617064   13.470087    ( 0.0000,  0.0000,  0.0000)
  20 Li     8.084947    1.616931   13.469232    ( 0.0000,  0.0000,  0.0000)
  21 Li     1.617108    4.851040   13.469680    ( 0.0000,  0.0000,  0.0000)
  22 Li     4.851071    4.851085   13.470069    ( 0.0000,  0.0000,  0.0000)
  23 Li     8.085119    4.851069   13.469843    ( 0.0000,  0.0000,  0.0000)
  24 Li     1.616956    8.085257   13.470111    ( 0.0000,  0.0000,  0.0000)
  25 Li     4.851123    8.085150   13.469925    ( 0.0000,  0.0000,  0.0000)
  26 Li     8.085268    8.085356   13.470144    ( 0.0000,  0.0000,  0.0000)
  27 Li     0.000252    0.000207   15.446253    ( 0.0000,  0.0000,  0.0000)
  28 Li     3.234348   -0.000639   15.445348    ( 0.0000,  0.0000,  0.0000)
  29 Li     6.467935   -0.000754   15.444906    ( 0.0000,  0.0000,  0.0000)
  30 Li     0.000416    3.246185   15.417184    ( 0.0000,  0.0000,  0.0000)
  31 Li     3.234151    3.234573   15.445490    ( 0.0000,  0.0000,  0.0000)
  32 Li     6.467781    3.234722   15.444551    ( 0.0000,  0.0000,  0.0000)
  33 Li    -0.000063    6.468387   15.445803    ( 0.0000,  0.0000,  0.0000)
  34 Li     3.234116    6.468255   15.445842    ( 0.0000,  0.0000,  0.0000)
  35 Li     6.468190    6.468159   15.445813    ( 0.0000,  0.0000,  0.0000)
  36 O     -0.010462    1.610893   18.520419    ( 0.0000,  0.0000,  0.0000)
  37 C     -2.468411    1.604097   18.483288    ( 0.0000,  0.0000,  0.0000)
  38 C     -3.736796    2.458522   18.469556    ( 0.0000,  0.0000,  0.0000)
  39 C     -1.194890    2.422890   18.471442    ( 0.0000,  0.0000,  0.0000)
  40 C     -5.009088    1.608975   18.453574    ( 0.0000,  0.0000,  0.0000)
  41 H     -2.452791    0.970713   19.374923    ( 0.0000,  0.0000,  0.0000)
  42 H     -2.480031    0.934157   17.610728    ( 0.0000,  0.0000,  0.0000)
  43 H     -3.724096    3.119655   17.592207    ( 0.0000,  0.0000,  0.0000)
  44 H     -3.741579    3.116294   19.345917    ( 0.0000,  0.0000,  0.0000)
  45 H     -1.195861    3.095385   17.579941    ( 0.0000,  0.0000,  0.0000)
  46 H     -1.101028    3.053031   19.342644    ( 0.0000,  0.0000,  0.0000)
  47 H     -5.036832    0.966216   17.568487    ( 0.0000,  0.0000,  0.0000)
  48 H     -5.054651    0.958728   19.330424    ( 0.0000,  0.0000,  0.0000)
  49 H     -5.912671    2.222754   18.446638    ( 0.0000,  0.0000,  0.0000)
  50 H     -0.052772    1.000848   17.702143    ( 0.0000,  0.0000,  0.0000)
  51 N      0.013163    1.619978   16.871400    ( 0.0000,  0.0000,  0.0000)
  52 N      0.018455    2.733378   16.921301    ( 0.0000,  0.0000,  0.0000)

Unit cell:
           periodic     x           y           z      points  spacing
  1. axis:    yes    9.702222    0.000000    0.000000    60     0.1617
  2. axis:    yes    0.000000    9.702222    0.000000    60     0.1617
  3. axis:    no     0.000000    0.000000   26.351111   164     0.1607

  Lengths:   9.702222   9.702222  26.351111
  Angles:   90.000000  90.000000  90.000000

Effective grid spacing dv^(1/3) = 0.1614

     iter     time        total  log10-change:
                         energy  eigst   dens
iter:   1 10:26:09  -350.554260  -0.60
iter:   2 10:26:16  -350.548283  -1.04  -2.01
iter:   3 10:26:24  -350.541630c -1.42  -2.04
iter:   4 10:26:31  -350.516695c -1.47  -2.10
Writing to output.gpw (mode='')

iter:   5 10:26:39  -350.514230c -1.83  -2.26
iter:   6 10:26:47  -350.509305c -1.95  -2.35
iter:   7 10:26:54  -350.505520c -2.33  -2.39
iter:   8 10:27:01  -350.503989c -2.08  -2.53
iter:   9 10:27:09  -350.504101c -2.60  -2.55
Writing to output.gpw (mode='')

iter:  10 10:27:17  -350.503247c -2.98  -2.63
iter:  11 10:27:24  -350.503358c -2.85  -2.75
iter:  12 10:27:31  -350.503189c -3.20  -2.97
iter:  13 10:27:39  -350.503261c -3.13  -3.21
iter:  14 10:27:47  -350.503412c -3.26  -3.26
Writing to output.gpw (mode='')

iter:  15 10:27:54  -350.503306c -3.73  -3.29
iter:  16 10:28:01  -350.503340c -3.77  -3.55
iter:  17 10:28:09  -350.503329c -3.67  -3.56
iter:  18 10:28:17  -350.503354c -4.04  -3.78
iter:  19 10:28:24  -350.503368c -4.05  -3.79
Writing to output.gpw (mode='')

iter:  20 10:28:31  -350.503374c -4.20  -3.75
iter:  21 10:28:39  -350.503371c -4.54  -3.73
iter:  22 10:28:46  -350.503377c -4.25  -3.79
iter:  23 10:28:54  -350.503392c -4.33  -3.80
iter:  24 10:29:01  -350.503403c -4.57  -3.66
Writing to output.gpw (mode='')

iter:  25 10:29:09  -350.503412c -4.74  -3.65
iter:  26 10:29:17  -350.503413c -4.77  -3.63
iter:  27 10:29:24  -350.503443c -4.87  -3.64
iter:  28 10:29:31  -350.503457c -4.96  -3.63
iter:  29 10:29:39  -350.503440c -5.12  -3.66
Writing to output.gpw (mode='')

iter:  30 10:29:47  -350.503438c -5.05  -3.68
iter:  31 10:30:01  -350.503433c -5.27  -3.64
iter:  32 10:30:08  -350.503440c -5.21  -3.77
iter:  33 10:30:16  -350.503481c -4.95  -3.82
iter:  34 10:30:23  -350.503465c -5.32  -3.88
Writing to output.gpw (mode='')

iter:  35 10:30:31  -350.503460c -5.61  -3.90
iter:  36 10:30:38  -350.503438c -5.52  -3.97
iter:  37 10:30:46  -350.503444c -5.63  -4.25c
iter:  38 10:30:53  -350.503451c -5.71  -4.31c
iter:  39 10:31:01  -350.503445c -6.02  -4.36c
Writing to output.gpw (mode='')

iter:  40 10:31:08  -350.503441c -5.90  -4.47c
iter:  41 10:31:16  -350.503442c -6.02  -4.63c
iter:  42 10:31:24  -350.503441c -6.31  -4.91c
iter:  43 10:31:31  -350.503441c -6.26  -5.00c
iter:  44 10:31:39  -350.503441c -6.66  -5.12c
Writing to output.gpw (mode='')

iter:  45 10:31:46  -350.503441c -6.60  -5.20c
iter:  46 10:31:54  -350.503441c -6.83  -5.30c
iter:  47 10:32:01  -350.503441c -6.82  -5.36c
iter:  48 10:32:09  -350.503442c -7.08  -5.38c
iter:  49 10:32:17  -350.503442c -7.23  -5.44c
Writing to output.gpw (mode='')

iter:  50 10:32:24  -350.503442c -7.23  -5.70c
iter:  51 10:32:31  -350.503442c -7.27  -5.73c
iter:  52 10:32:39  -350.503442c -7.13  -5.90c
iter:  53 10:32:47  -350.503442c -7.54c -5.91c

Converged after 53 iterations.

Dipole moment: (-14.496098, -4.456542, 0.144746) |e|*Ang

Energy contributions relative to reference atoms: (reference = -16540.070923)

Kinetic:       +234.883640
Potential:     -212.550190
External:        +0.000000
XC:            -373.608242
Entropy (-ST):   -0.158913
Local:           +0.850808
--------------------------
Free energy:   -350.582899
Extrapolated:  -350.503442

Dipole-layer corrected work functions: 3.415394, 3.137143 eV

Showing only first 2 kpts
 Kpt  Band  Eigenvalues  Occupancy
  0    37     -3.52216    1.98548
  0    38     -3.41199    1.87575
  0    39     -3.19843    0.34825
  0    40     -3.02920    0.01419

  1    37     -3.32040    1.41471
  1    38     -3.25878    0.82689
  1    39     -3.18791    0.29179
  1    40     -3.16325    0.18891


Fermi level: -3.27627

No gap
Writing to output.gpw (mode='')


Forces in eV/Ang:
  0 Li    0.01678   -0.00196   -0.28047
  1 Li   -0.00015    0.00171   -0.26865
  2 Li   -0.01641   -0.00236   -0.27695
  3 Li   -0.00033    0.01607   -0.27728
  4 Li    0.00084   -0.00440   -0.26655
  5 Li   -0.00279    0.01370   -0.27906
  6 Li   -0.00195   -0.01059   -0.27250
  7 Li    0.00042    0.00262   -0.27938
  8 Li    0.00594   -0.01376   -0.26499
  9 Li    0.00234   -0.00083    0.28582
 10 Li    0.00284    0.00088    0.26374
 11 Li   -0.01352   -0.00536    0.25464
 12 Li   -0.00042   -0.00415    0.32567
 13 Li    0.01691   -0.00205    0.25256
 14 Li   -0.00823   -0.00056    0.26118
 15 Li    0.00083    0.00382    0.24963
 16 Li   -0.00362   -0.00277    0.25111
 17 Li    0.00149    0.01402    0.24665
 18 Li    0.03857   -0.00312   -0.11249
 19 Li    0.00066    0.00419    0.05983
 20 Li   -0.04133   -0.02025   -0.07914
 21 Li    0.01346   -0.01046   -0.00765
 22 Li   -0.00801   -0.00314    0.05658
 23 Li   -0.01063   -0.00694    0.02276
 24 Li   -0.01405    0.01356    0.06624
 25 Li    0.00312   -0.00678    0.03194
 26 Li    0.01349    0.03082    0.07068
 27 Li    0.04186   -0.00133    0.01106
 28 Li    0.04636   -0.10740   -0.10350
 29 Li   -0.03519   -0.12692   -0.17985
 30 Li    0.04983    1.91396   -4.41230
 31 Li    0.02712    0.08390   -0.08867
 32 Li   -0.06766    0.11000   -0.24052
 33 Li   -0.01190    0.04123   -0.02324
 34 Li    0.00433    0.01786   -0.01542
 35 Li    0.01107   -0.00009   -0.01862
 36 O    -1.79441   -1.19165   12.76819
 37 C    -0.22091   -0.10506    0.26478
 38 C    -0.04369   -0.16274    0.18785
 39 C    -1.78490   -0.64558    4.02272
 40 C     0.03482    0.01594    0.13579
 41 H    -0.09761   -0.15037   -0.05049
 42 H     0.06355   -0.05216    0.05763
 43 H    -0.07229    0.12415    0.02584
 44 H    -0.01007    0.06094   -0.06715
 45 H    -0.86369    0.33096    1.47767
 46 H    -0.17387    0.36940    0.33879
 47 H     0.01321   -0.00361   -0.02383
 48 H    -0.00247   -0.00412    0.04327
 49 H    -0.02622    0.04661    0.00953
 50 H    -0.52282   -4.52389    3.07902
 51 N     2.28298   -2.66275  -12.74553
 52 N     3.16800    6.62061   -4.43806

System changes: positions 

Initializing position-dependent things.

Density initialized from wave functions
       .-----------------------.  
      /|                       |  
     / |                       |  
    /  |                       |  
   /   |                       |  
  /    |                       |  
 *     |                       |  
 |     |                       |  
 |     |                       |  
 |     |                       |  
 |     |                       |  
 |     |                       |  
 |     |                       |  
 |     |       Li H    LH      |  
 |     |    HH   C  H   C O    |  
 |     |     LC   H CLi H    Li|  
 | N   |     H     H     H     |  
 |NLi  |  LLi     LLi     Li   |  
 |     |                       |  
 Li    |Li      Li      Li     |  
 |   Li|     Li      Li        |  
 |    Li  Li  Li  Li  Li  Li   |  
 | Li  |   Li      Li          |  
 |     |Li      Li      Li     |  
 Li    | Li      Li            |  
 |    Li      Li      Li       |  
 |     |                       |  
 |     |                       |  
 |     |                       |  
 |     |                       |  
 |     |                       |  
 |     |                       |  
 |     .-----------------------.  
 |    /                       /   
 |   /                       /    
 |  /                       /     
 | /                       /      
 |/                       /       
 *-----------------------*        

Positions:
   0 Li     1.617037    1.617037   10.000000    ( 0.0000,  0.0000,  0.0000)
   1 Li     4.851111    1.617037   10.000000    ( 0.0000,  0.0000,  0.0000)
   2 Li     8.085185    1.617037   10.000000    ( 0.0000,  0.0000,  0.0000)
   3 Li     1.617037    4.851111   10.000000    ( 0.0000,  0.0000,  0.0000)
   4 Li     4.851111    4.851111   10.000000    ( 0.0000,  0.0000,  0.0000)
   5 Li     8.085185    4.851111   10.000000    ( 0.0000,  0.0000,  0.0000)
   6 Li     1.617037    8.085185   10.000000    ( 0.0000,  0.0000,  0.0000)
   7 Li     4.851111    8.085185   10.000000    ( 0.0000,  0.0000,  0.0000)
   8 Li     8.085185    8.085185   10.000000    ( 0.0000,  0.0000,  0.0000)
   9 Li     0.000000    0.000000   11.617037    ( 0.0000,  0.0000,  0.0000)
  10 Li     3.234074    0.000000   11.617037    ( 0.0000,  0.0000,  0.0000)
  11 Li     6.468148    0.000000   11.617037    ( 0.0000,  0.0000,  0.0000)
  12 Li     0.000000    3.234074   11.617037    ( 0.0000,  0.0000,  0.0000)
  13 Li     3.234074    3.234074   11.617037    ( 0.0000,  0.0000,  0.0000)
  14 Li     6.468148    3.234074   11.617037    ( 0.0000,  0.0000,  0.0000)
  15 Li     0.000000    6.468148   11.617037    ( 0.0000,  0.0000,  0.0000)
  16 Li     3.234074    6.468148   11.617037    ( 0.0000,  0.0000,  0.0000)
  17 Li     6.468148    6.468148   11.617037    ( 0.0000,  0.0000,  0.0000)
  18 Li     1.617438    1.617004   13.468435    ( 0.0000,  0.0000,  0.0000)
  19 Li     4.851108    1.617089   13.470367    ( 0.0000,  0.0000,  0.0000)
  20 Li     8.084756    1.616795   13.468823    ( 0.0000,  0.0000,  0.0000)
  21 Li     1.617208    4.851026   13.469577    ( 0.0000,  0.0000,  0.0000)
  22 Li     4.851013    4.851056   13.470346    ( 0.0000,  0.0000,  0.0000)
  23 Li     8.085049    4.851066   13.469914    ( 0.0000,  0.0000,  0.0000)
  24 Li     1.616887    8.085301   13.470417    ( 0.0000,  0.0000,  0.0000)
  25 Li     4.851153    8.085119   13.470080    ( 0.0000,  0.0000,  0.0000)
  26 Li     8.085332    8.085500   13.470469    ( 0.0000,  0.0000,  0.0000)
  27 Li     0.000492    0.000338   15.446402    ( 0.0000,  0.0000,  0.0000)
  28 Li     3.234587   -0.001166   15.444908    ( 0.0000,  0.0000,  0.0000)
  29 Li     6.467809   -0.001346   15.444119    ( 0.0000,  0.0000,  0.0000)
  30 Li     0.000346    3.254728   15.396066    ( 0.0000,  0.0000,  0.0000)
  31 Li     3.234331    3.234988   15.445095    ( 0.0000,  0.0000,  0.0000)
  32 Li     6.467470    3.235248   15.443542    ( 0.0000,  0.0000,  0.0000)
  33 Li    -0.000129    6.468574   15.445689    ( 0.0000,  0.0000,  0.0000)
  34 Li     3.234139    6.468347   15.445754    ( 0.0000,  0.0000,  0.0000)
  35 Li     6.468247    6.468150   15.445723    ( 0.0000,  0.0000,  0.0000)
  36 O     -0.023275    1.601314   18.548778    ( 0.0000,  0.0000,  0.0000)
  37 C     -2.470614    1.603965   18.484825    ( 0.0000,  0.0000,  0.0000)
  38 C     -3.737313    2.457743   18.470127    ( 0.0000,  0.0000,  0.0000)
  39 C     -1.196247    2.417559   18.483810    ( 0.0000,  0.0000,  0.0000)
  40 C     -5.009140    1.609122   18.454048    ( 0.0000,  0.0000,  0.0000)
  41 H     -2.453375    0.969810   19.374807    ( 0.0000,  0.0000,  0.0000)
  42 H     -2.479491    0.934069   17.611035    ( 0.0000,  0.0000,  0.0000)
  43 H     -3.724434    3.120095   17.592495    ( 0.0000,  0.0000,  0.0000)
  44 H     -3.741624    3.116560   19.345652    ( 0.0000,  0.0000,  0.0000)
  45 H     -1.198627    3.095532   17.587842    ( 0.0000,  0.0000,  0.0000)
  46 H     -1.102558    3.056471   19.346273    ( 0.0000,  0.0000,  0.0000)
  47 H     -5.036752    0.966231   17.568461    ( 0.0000,  0.0000,  0.0000)
  48 H     -5.054689    0.958699   19.330648    ( 0.0000,  0.0000,  0.0000)
  49 H     -5.912818    2.222900   18.446726    ( 0.0000,  0.0000,  0.0000)
  50 H     -0.051677    1.008936   17.714065    ( 0.0000,  0.0000,  0.0000)
  51 N      0.021344    1.609469   16.833682    ( 0.0000,  0.0000,  0.0000)
  52 N      0.030802    2.739539   16.916073    ( 0.0000,  0.0000,  0.0000)

Unit cell:
           periodic     x           y           z      points  spacing
  1. axis:    yes    9.702222    0.000000    0.000000    60     0.1617
  2. axis:    yes    0.000000    9.702222    0.000000    60     0.1617
  3. axis:    no     0.000000    0.000000   26.351111   164     0.1607

  Lengths:   9.702222   9.702222  26.351111
  Angles:   90.000000  90.000000  90.000000

Effective grid spacing dv^(1/3) = 0.1614

     iter     time        total  log10-change:
                         energy  eigst   dens
iter:   1 10:32:56  -351.860473  -0.67
iter:   2 10:33:04  -351.776180  -0.93  -1.62
iter:   3 10:33:13  -351.674546  -1.35  -1.58
iter:   4 10:33:21  -351.649293  -1.71  -1.95
Writing to output.gpw (mode='')

iter:   5 10:33:29  -351.644374c -1.88  -2.30
iter:   6 10:33:36  -351.642956c -1.82  -2.32
iter:   7 10:33:44  -351.643495c -2.27  -2.49
iter:   8 10:33:51  -351.643026c -2.48  -2.62
iter:   9 10:33:59  -351.642670c -2.89  -2.64
Writing to output.gpw (mode='')

iter:  10 10:34:07  -351.642577c -2.90  -2.82
iter:  11 10:34:14  -351.642478c -3.09  -3.08
iter:  12 10:34:22  -351.642605c -3.28  -3.11
iter:  13 10:34:29  -351.642693c -3.45  -3.16
iter:  14 10:34:37  -351.642760c -3.69  -3.15
Writing to output.gpw (mode='')

iter:  15 10:34:44  -351.642732c -3.75  -3.14
iter:  16 10:34:59  -351.642782c -3.59  -3.11
iter:  17 10:35:07  -351.642894c -3.64  -3.00
iter:  18 10:35:14  -351.642911c -4.23  -3.04
iter:  19 10:35:22  -351.642996c -4.06  -3.04
Writing to output.gpw (mode='')

iter:  20 10:35:29  -351.642961c -4.27  -3.07
iter:  21 10:35:37  -351.642957c -4.44  -3.15
iter:  22 10:35:44  -351.643171c -4.02  -3.16
iter:  23 10:35:52  -351.643002c -3.93  -2.97
iter:  24 10:35:59  -351.642978c -4.19  -3.13
Writing to output.gpw (mode='')

iter:  25 10:36:07  -351.642927c -3.80  -3.21
iter:  26 10:36:14  -351.642892c -4.15  -3.50
iter:  27 10:36:22  -351.642924c -4.82  -3.52
iter:  28 10:36:30  -351.642898c -4.47  -3.57
iter:  29 10:36:37  -351.642917c -4.89  -3.56
Writing to output.gpw (mode='')

iter:  30 10:36:45  -351.642913c -4.99  -3.73
iter:  31 10:36:52  -351.642905c -4.94  -3.87
iter:  32 10:37:00  -351.642910c -4.96  -3.97
iter:  33 10:37:07  -351.642914c -5.08  -4.04c
iter:  34 10:37:15  -351.642916c -5.58  -4.15c
Writing to output.gpw (mode='')

iter:  35 10:37:22  -351.642910c -5.58  -4.27c
iter:  36 10:37:30  -351.642916c -5.72  -4.38c
iter:  37 10:37:38  -351.642917c -5.64  -4.50c
iter:  38 10:37:45  -351.642916c -5.64  -4.59c
iter:  39 10:37:53  -351.642916c -5.75  -4.69c
Writing to output.gpw (mode='')

iter:  40 10:38:00  -351.642916c -5.98  -4.72c
iter:  41 10:38:08  -351.642916c -5.99  -4.89c
iter:  42 10:38:15  -351.642917c -6.01  -4.98c
iter:  43 10:38:23  -351.642916c -6.38  -5.02c
iter:  44 10:38:31  -351.642916c -6.24  -5.02c
Writing to output.gpw (mode='')

iter:  45 10:38:38  -351.642916c -6.55  -5.00c
iter:  46 10:38:46  -351.642917c -6.65  -4.99c
iter:  47 10:38:53  -351.642917c -6.57  -5.15c
iter:  48 10:39:01  -351.642917c -6.84  -5.15c
iter:  49 10:39:09  -351.642917c -6.57  -5.12c
Writing to output.gpw (mode='')

iter:  50 10:39:16  -351.642917c -6.87  -5.13c
iter:  51 10:39:24  -351.642917c -7.00  -5.11c
iter:  52 10:39:31  -351.642918c -7.07  -5.05c
iter:  53 10:39:39  -351.642917c -7.02  -5.11c
iter:  54 10:39:56  -351.642918c -7.05  -4.95c
Writing to output.gpw (mode='')

iter:  55 10:40:07  -351.642917c -7.09  -5.07c
iter:  56 10:40:17  -351.642917c -7.42c -5.11c

Converged after 56 iterations.

Dipole moment: (-15.227049, -4.326118, 0.106843) |e|*Ang

Energy contributions relative to reference atoms: (reference = -16540.070923)

Kinetic:       +228.343681
Potential:     -208.150705
External:        +0.000000
XC:            -372.605773
Entropy (-ST):   -0.158469
Local:           +0.849115
--------------------------
Free energy:   -351.722151
Extrapolated:  -351.642917

Dipole-layer corrected work functions: 3.417315, 3.211926 eV

Showing only first 2 kpts
 Kpt  Band  Eigenvalues  Occupancy
  0    37     -3.56039    1.98544
  0    38     -3.45425    1.88454
  0    39     -3.24490    0.39741
  0    40     -3.06387    0.01319

  1    37     -3.35657    1.39647
  1    38     -3.29459    0.80234
  1    39     -3.22255    0.27378
  1    40     -3.19301    0.16151


Fermi level: -3.31462

No gap
Writing to output.gpw (mode='')


Forces in eV/Ang:
  0 Li    0.01597   -0.00221   -0.28143
  1 Li    0.00000    0.00151   -0.26845
  2 Li   -0.01565   -0.00254   -0.27765
  3 Li   -0.00083    0.01729   -0.27844
  4 Li    0.00089   -0.00374   -0.26652
  5 Li   -0.00250    0.01426   -0.28067
  6 Li   -0.00205   -0.01113   -0.27322
  7 Li    0.00011    0.00280   -0.28031
  8 Li    0.00612   -0.01424   -0.26461
  9 Li    0.00280   -0.00216    0.28527
 10 Li    0.00232    0.00107    0.26591
 11 Li   -0.01447   -0.00441    0.25485
 12 Li   -0.00068   -0.00318    0.33002
 13 Li    0.01537   -0.00271    0.25467
 14 Li   -0.00607   -0.00136    0.26452
 15 Li    0.00082    0.00476    0.24873
 16 Li   -0.00210   -0.00379    0.24965
 17 Li    0.00039    0.01459    0.24608
 18 Li    0.03786   -0.00490   -0.11929
 19 Li   -0.00049    0.00457    0.05857
 20 Li   -0.03946   -0.02601   -0.08066
 21 Li    0.01833   -0.00386   -0.01818
 22 Li   -0.01039   -0.00530    0.05693
 23 Li   -0.01380    0.00029    0.01430
 24 Li   -0.01350    0.01001    0.06302
 25 Li    0.00502   -0.00578    0.03229
 26 Li    0.01285    0.02887    0.06655
 27 Li    0.04305    0.01430    0.03527
 28 Li    0.04840   -0.10729   -0.09694
 29 Li   -0.03135   -0.12346   -0.17111
 30 Li    0.00848    1.69671   -4.02113
 31 Li    0.03240    0.08402   -0.08393
 32 Li   -0.06383    0.10792   -0.22246
 33 Li   -0.01268    0.03893   -0.02375
 34 Li    0.00490    0.01850   -0.01708
 35 Li    0.01102   -0.00089   -0.01875
 36 O    -1.92234   -1.07462   11.06031
 37 C    -0.25440   -0.09204    0.25366
 38 C    -0.06585   -0.13645    0.16705
 39 C    -1.37014   -0.68595    3.50072
 40 C     0.00940    0.01502    0.11993
 41 H    -0.11826   -0.17092   -0.03162
 42 H     0.07780   -0.03100    0.07319
 43 H    -0.07102    0.10762    0.03790
 44 H    -0.01495    0.05755   -0.06213
 45 H    -0.69627    0.21794    1.41302
 46 H    -0.19750    0.41751    0.39987
 47 H     0.01353   -0.00054   -0.01497
 48 H    -0.00564   -0.00403    0.04295
 49 H    -0.03052    0.04081    0.01283
 50 H    -0.30325   -3.43840    2.84448
 51 N     2.04231   -1.13458  -11.49760
 52 N     2.88616    4.18518   -3.65944

System changes: positions 

Initializing position-dependent things.

Density initialized from wave functions
       .-----------------------.  
      /|                       |  
     / |                       |  
    /  |                       |  
   /   |                       |  
  /    |                       |  
 *     |                       |  
 |     |                       |  
 |     |                       |  
 |     |                       |  
 |     |                       |  
 |     |                       |  
 |     |                       |  
 |     |       Li H    LH      |  
 |     |    HH   C  H   C O    |  
 |     |     LC   H CLi H    Li|  
 | N   |     H     H      H    |  
 |N    |  LLi     LLi     LLi  |  
 |     |                       |  
 Li    |Li      Li      Li     |  
 |   Li|     Li      Li        |  
 |    Li  Li  Li  Li  Li  Li   |  
 | Li  |   Li      Li          |  
 |     |Li      Li      Li     |  
 Li    | Li      Li            |  
 |    Li      Li      Li       |  
 |     |                       |  
 |     |                       |  
 |     |                       |  
 |     |                       |  
 |     |                       |  
 |     |                       |  
 |     .-----------------------.  
 |    /                       /   
 |   /                       /    
 |  /                       /     
 | /                       /      
 |/                       /       
 *-----------------------*        

Positions:
   0 Li     1.617037    1.617037   10.000000    ( 0.0000,  0.0000,  0.0000)
   1 Li     4.851111    1.617037   10.000000    ( 0.0000,  0.0000,  0.0000)
   2 Li     8.085185    1.617037   10.000000    ( 0.0000,  0.0000,  0.0000)
   3 Li     1.617037    4.851111   10.000000    ( 0.0000,  0.0000,  0.0000)
   4 Li     4.851111    4.851111   10.000000    ( 0.0000,  0.0000,  0.0000)
   5 Li     8.085185    4.851111   10.000000    ( 0.0000,  0.0000,  0.0000)
   6 Li     1.617037    8.085185   10.000000    ( 0.0000,  0.0000,  0.0000)
   7 Li     4.851111    8.085185   10.000000    ( 0.0000,  0.0000,  0.0000)
   8 Li     8.085185    8.085185   10.000000    ( 0.0000,  0.0000,  0.0000)
   9 Li     0.000000    0.000000   11.617037    ( 0.0000,  0.0000,  0.0000)
  10 Li     3.234074    0.000000   11.617037    ( 0.0000,  0.0000,  0.0000)
  11 Li     6.468148    0.000000   11.617037    ( 0.0000,  0.0000,  0.0000)
  12 Li     0.000000    3.234074   11.617037    ( 0.0000,  0.0000,  0.0000)
  13 Li     3.234074    3.234074   11.617037    ( 0.0000,  0.0000,  0.0000)
  14 Li     6.468148    3.234074   11.617037    ( 0.0000,  0.0000,  0.0000)
  15 Li     0.000000    6.468148   11.617037    ( 0.0000,  0.0000,  0.0000)
  16 Li     3.234074    6.468148   11.617037    ( 0.0000,  0.0000,  0.0000)
  17 Li     6.468148    6.468148   11.617037    ( 0.0000,  0.0000,  0.0000)
  18 Li     1.617649    1.616950   13.467673    ( 0.0000,  0.0000,  0.0000)
  19 Li     4.851088    1.617120   13.470681    ( 0.0000,  0.0000,  0.0000)
  20 Li     8.084549    1.616583   13.468347    ( 0.0000,  0.0000,  0.0000)
  21 Li     1.617367    4.851070   13.469368    ( 0.0000,  0.0000,  0.0000)
  22 Li     4.850924    4.851004   13.470671    ( 0.0000,  0.0000,  0.0000)
  23 Li     8.084940    4.851130   13.469924    ( 0.0000,  0.0000,  0.0000)
  24 Li     1.616812    8.085323   13.470746    ( 0.0000,  0.0000,  0.0000)
  25 Li     4.851204    8.085091   13.470261    ( 0.0000,  0.0000,  0.0000)
  26 Li     8.085398    8.085652   13.470810    ( 0.0000,  0.0000,  0.0000)
  27 Li     0.000769    0.000552   15.446737    ( 0.0000,  0.0000,  0.0000)
  28 Li     3.234882   -0.001774   15.444440    ( 0.0000,  0.0000,  0.0000)
  29 Li     6.467690   -0.002004   15.443260    ( 0.0000,  0.0000,  0.0000)
  30 Li    -0.000110    3.262339   15.376413    ( 0.0000,  0.0000,  0.0000)
  31 Li     3.234606    3.235469   15.444653    ( 0.0000,  0.0000,  0.0000)
  32 Li     6.467134    3.235841   15.442499    ( 0.0000,  0.0000,  0.0000)
  33 Li    -0.000214    6.468771   15.445550    ( 0.0000,  0.0000,  0.0000)
  34 Li     3.234167    6.468457   15.445640    ( 0.0000,  0.0000,  0.0000)
  35 Li     6.468319    6.468131   15.445621    ( 0.0000,  0.0000,  0.0000)
  36 O     -0.038156    1.592554   18.575459    ( 0.0000,  0.0000,  0.0000)
  37 C     -2.473126    1.603811   18.486414    ( 0.0000,  0.0000,  0.0000)
  38 C     -3.738071    2.457195   18.470661    ( 0.0000,  0.0000,  0.0000)
  39 C     -1.195954    2.411929   18.494638    ( 0.0000,  0.0000,  0.0000)
  40 C     -5.009410    1.609223   18.454480    ( 0.0000,  0.0000,  0.0000)
  41 H     -2.454255    0.968574   19.374842    ( 0.0000,  0.0000,  0.0000)
  42 H     -2.478782    0.934151   17.611559    ( 0.0000,  0.0000,  0.0000)
  43 H     -3.724817    3.120457   17.592928    ( 0.0000,  0.0000,  0.0000)
  44 H     -3.741733    3.116837   19.345380    ( 0.0000,  0.0000,  0.0000)
  45 H     -1.200606    3.094893   17.596295    ( 0.0000,  0.0000,  0.0000)
  46 H     -1.104342    3.060406   19.350487    ( 0.0000,  0.0000,  0.0000)
  47 H     -5.036664    0.966283   17.568511    ( 0.0000,  0.0000,  0.0000)
  48 H     -5.054763    0.958669   19.330903    ( 0.0000,  0.0000,  0.0000)
  49 H     -5.913026    2.223039   18.446848    ( 0.0000,  0.0000,  0.0000)
  50 H     -0.049200    1.019529   17.726411    ( 0.0000,  0.0000,  0.0000)
  51 N      0.029368    1.607810   16.794531    ( 0.0000,  0.0000,  0.0000)
  52 N      0.043256    2.734861   16.912197    ( 0.0000,  0.0000,  0.0000)

Unit cell:
           periodic     x           y           z      points  spacing
  1. axis:    yes    9.702222    0.000000    0.000000    60     0.1617
  2. axis:    yes    0.000000    9.702222    0.000000    60     0.1617
  3. axis:    no     0.000000    0.000000   26.351111   164     0.1607

  Lengths:   9.702222   9.702222  26.351111
  Angles:   90.000000  90.000000  90.000000

Effective grid spacing dv^(1/3) = 0.1614

     iter     time        total  log10-change:
                         energy  eigst   dens
iter:   1 10:40:26  -352.577181  -0.83
iter:   2 10:40:34  -352.582633  -1.46  -2.31
iter:   3 10:40:41  -352.583491c -1.80  -2.39
iter:   4 10:40:49  -352.578464c -1.71  -2.39
Writing to output.gpw (mode='')

iter:   5 10:40:56  -352.578318c -2.38  -2.46
iter:   6 10:41:04  -352.578215c -2.21  -2.62
iter:   7 10:41:11  -352.580815c -2.22  -2.58
iter:   8 10:41:19  -352.578572c -2.79  -2.65
iter:   9 10:41:26  -352.578533c -2.58  -2.86
Writing to output.gpw (mode='')

iter:  10 10:41:34  -352.579168c -2.94  -2.95
iter:  11 10:41:41  -352.578753c -3.29  -2.90
iter:  12 10:41:49  -352.578560c -3.08  -2.94
iter:  13 10:41:56  -352.578629c -3.41  -3.09
iter:  14 10:42:04  -352.578538c -3.47  -3.21
Writing to output.gpw (mode='')

iter:  15 10:42:11  -352.578569c -3.75  -3.38
iter:  16 10:42:19  -352.578565c -3.75  -3.56
iter:  17 10:42:26  -352.578582c -4.10  -3.63
iter:  18 10:42:34  -352.578606c -4.08  -3.66
iter:  19 10:42:41  -352.578612c -4.14  -3.73
Writing to output.gpw (mode='')

iter:  20 10:42:49  -352.578653c -4.26  -3.81
iter:  21 10:42:56  -352.578659c -4.43  -3.83
iter:  22 10:43:04  -352.578665c -4.57  -3.89
iter:  23 10:43:11  -352.578659c -4.47  -4.02c
iter:  24 10:43:19  -352.578662c -4.77  -4.11c
Writing to output.gpw (mode='')

iter:  25 10:43:26  -352.578661c -4.70  -4.06c
iter:  26 10:43:34  -352.578665c -5.02  -4.20c
iter:  27 10:43:41  -352.578668c -5.29  -4.21c
iter:  28 10:43:49  -352.578670c -5.11  -4.18c
iter:  29 10:43:56  -352.578677c -5.51  -4.17c
Writing to output.gpw (mode='')

iter:  30 10:44:04  -352.578675c -5.50  -4.18c
iter:  31 10:44:11  -352.578677c -5.53  -4.24c
iter:  32 10:44:19  -352.578680c -5.51  -4.26c
iter:  33 10:44:26  -352.578682c -5.58  -4.33c
iter:  34 10:44:34  -352.578682c -5.47  -4.44c
Writing to output.gpw (mode='')

iter:  35 10:44:41  -352.578682c -6.08  -4.58c
iter:  36 10:44:53  -352.578683c -6.10  -4.61c
iter:  37 10:45:02  -352.578680c -6.25  -4.85c
iter:  38 10:45:09  -352.578680c -6.11  -5.00c
iter:  39 10:45:17  -352.578681c -6.34  -5.02c
Writing to output.gpw (mode='')

iter:  40 10:45:24  -352.578681c -6.33  -5.16c
iter:  41 10:45:32  -352.578681c -6.38  -5.19c
iter:  42 10:45:39  -352.578681c -6.64  -5.29c
iter:  43 10:45:47  -352.578681c -6.62  -5.47c
iter:  44 10:45:54  -352.578681c -6.69  -5.53c
Writing to output.gpw (mode='')

iter:  45 10:46:02  -352.578681c -7.04  -5.69c
iter:  46 10:46:09  -352.578682c -6.88  -5.69c
iter:  47 10:46:17  -352.578682c -6.90  -5.79c
iter:  48 10:46:24  -352.578682c -7.11  -5.84c
iter:  49 10:46:32  -352.578682c -7.24  -5.87c
Writing to output.gpw (mode='')

iter:  50 10:46:39  -352.578682c -7.12  -5.92c
iter:  51 10:46:47  -352.578682c -7.37  -6.02c
iter:  52 10:46:54  -352.578682c -7.25  -6.14c
iter:  53 10:47:02  -352.578682c -7.27  -6.17c
iter:  54 10:47:09  -352.578682c -7.67c -6.16c

Converged after 54 iterations.

Dipole moment: (-15.636570, -4.240112, 0.082457) |e|*Ang

Energy contributions relative to reference atoms: (reference = -16540.070923)

Kinetic:       +224.764758
Potential:     -206.006800
External:        +0.000000
XC:            -372.107734
Entropy (-ST):   -0.157316
Local:           +0.849752
--------------------------
Free energy:   -352.657340
Extrapolated:  -352.578682

Dipole-layer corrected work functions: 3.418469, 3.259958 eV

Showing only first 2 kpts
 Kpt  Band  Eigenvalues  Occupancy
  0    37     -3.58534    1.98554
  0    38     -3.48737    1.90176
  0    39     -3.26850    0.39110
  0    40     -3.08697    0.01280

  1    37     -3.37566    1.34911
  1    38     -3.31894    0.80002
  1    39     -3.25127    0.29388
  1    40     -3.21185    0.14521


Fermi level: -3.33921

No gap
Writing to output.gpw (mode='')


Forces in eV/Ang:
  0 Li    0.01537   -0.00264   -0.28175
  1 Li    0.00012    0.00129   -0.26830
  2 Li   -0.01515   -0.00266   -0.27757
  3 Li   -0.00140    0.01832   -0.27917
  4 Li    0.00084   -0.00331   -0.26687
  5 Li   -0.00213    0.01468   -0.28166
  6 Li   -0.00224   -0.01150   -0.27373
  7 Li   -0.00036    0.00333   -0.28145
  8 Li    0.00626   -0.01443   -0.26415
  9 Li    0.00297   -0.00341    0.28416
 10 Li    0.00275    0.00087    0.26675
 11 Li   -0.01578   -0.00355    0.25430
 12 Li   -0.00065   -0.00246    0.33350
 13 Li    0.01427   -0.00300    0.25596
 14 Li   -0.00500   -0.00181    0.26667
 15 Li    0.00087    0.00606    0.24745
 16 Li   -0.00080   -0.00448    0.24861
 17 Li   -0.00039    0.01427    0.24612
 18 Li    0.03741   -0.00734   -0.12190
 19 Li   -0.00154    0.00480    0.05712
 20 Li   -0.03764   -0.03112   -0.07868
 21 Li    0.02242    0.00161   -0.02515
 22 Li   -0.01256   -0.00633    0.05672
 23 Li   -0.01573    0.00589    0.00887
 24 Li   -0.01303    0.00801    0.06108
 25 Li    0.00700   -0.00539    0.03199
 26 Li    0.01196    0.02759    0.06335
 27 Li    0.04240    0.00532    0.02974
 28 Li    0.05019   -0.10686   -0.09389
 29 Li   -0.02958   -0.12021   -0.16657
 30 Li   -0.03055    1.49914   -3.63337
 31 Li    0.04371    0.08409   -0.08662
 32 Li   -0.06355    0.10580   -0.21034
 33 Li   -0.01352    0.03722   -0.02394
 34 Li    0.00403    0.01863   -0.01801
 35 Li    0.01247   -0.00175   -0.01793
 36 O    -1.83754   -1.09637    9.49759
 37 C    -0.26214   -0.06692    0.25011
 38 C    -0.08229   -0.11665    0.15022
 39 C    -1.19039   -0.59879    3.11546
 40 C    -0.00793    0.01288    0.10923
 41 H    -0.13430   -0.18487   -0.02021
 42 H     0.08527   -0.02053    0.07819
 43 H    -0.07008    0.09529    0.04459
 44 H    -0.01975    0.05619   -0.05452
 45 H    -0.61213    0.13962    1.37772
 46 H    -0.22562    0.42204    0.40465
 47 H     0.01234    0.00196   -0.00846
 48 H    -0.00923   -0.00398    0.04291
 49 H    -0.03649    0.03706    0.01496
 50 H    -0.14163   -2.54309    2.63074
 51 N     1.80382   -1.46440  -10.37679
 52 N     2.75599    3.77035   -3.00482

System changes: positions 

Initializing position-dependent things.

Density initialized from wave functions
       .-----------------------.  
      /|                       |  
     / |                       |  
    /  |                       |  
   /   |                       |  
  /    |                       |  
 *     |                       |  
 |     |                       |  
 |     |                       |  
 |     |                       |  
 |     |                       |  
 |     |                       |  
 |     |                       |  
 |     |       Li H    LH      |  
 |     |    HH   C  H   C O    |  
 |     |     LC   H CLi H    Li|  
 | N   |     H     H      H    |  
 |N    |  LLi     LLi     LLi  |  
 |     |                       |  
 Li    |Li      Li      Li     |  
 |   Li|     Li      Li        |  
 |    Li  Li  Li  Li  Li  Li   |  
 | Li  |   Li      Li          |  
 |     |Li      Li      Li     |  
 Li    | Li      Li            |  
 |    Li      Li      Li       |  
 |     |                       |  
 |     |                       |  
 |     |                       |  
 |     |                       |  
 |     |                       |  
 |     |                       |  
 |     .-----------------------.  
 |    /                       /   
 |   /                       /    
 |  /                       /     
 | /                       /      
 |/                       /       
 *-----------------------*        

Positions:
   0 Li     1.617037    1.617037   10.000000    ( 0.0000,  0.0000,  0.0000)
   1 Li     4.851111    1.617037   10.000000    ( 0.0000,  0.0000,  0.0000)
   2 Li     8.085185    1.617037   10.000000    ( 0.0000,  0.0000,  0.0000)
   3 Li     1.617037    4.851111   10.000000    ( 0.0000,  0.0000,  0.0000)
   4 Li     4.851111    4.851111   10.000000    ( 0.0000,  0.0000,  0.0000)
   5 Li     8.085185    4.851111   10.000000    ( 0.0000,  0.0000,  0.0000)
   6 Li     1.617037    8.085185   10.000000    ( 0.0000,  0.0000,  0.0000)
   7 Li     4.851111    8.085185   10.000000    ( 0.0000,  0.0000,  0.0000)
   8 Li     8.085185    8.085185   10.000000    ( 0.0000,  0.0000,  0.0000)
   9 Li     0.000000    0.000000   11.617037    ( 0.0000,  0.0000,  0.0000)
  10 Li     3.234074    0.000000   11.617037    ( 0.0000,  0.0000,  0.0000)
  11 Li     6.468148    0.000000   11.617037    ( 0.0000,  0.0000,  0.0000)
  12 Li     0.000000    3.234074   11.617037    ( 0.0000,  0.0000,  0.0000)
  13 Li     3.234074    3.234074   11.617037    ( 0.0000,  0.0000,  0.0000)
  14 Li     6.468148    3.234074   11.617037    ( 0.0000,  0.0000,  0.0000)
  15 Li     0.000000    6.468148   11.617037    ( 0.0000,  0.0000,  0.0000)
  16 Li     3.234074    6.468148   11.617037    ( 0.0000,  0.0000,  0.0000)
  17 Li     6.468148    6.468148   11.617037    ( 0.0000,  0.0000,  0.0000)
  18 Li     1.617887    1.616864   13.466783    ( 0.0000,  0.0000,  0.0000)
  19 Li     4.851057    1.617158   13.471030    ( 0.0000,  0.0000,  0.0000)
  20 Li     8.084330    1.616289   13.467827    ( 0.0000,  0.0000,  0.0000)
  21 Li     1.617589    4.851176   13.469061    ( 0.0000,  0.0000,  0.0000)
  22 Li     4.850801    4.850937   13.471043    ( 0.0000,  0.0000,  0.0000)
  23 Li     8.084796    4.851264   13.469879    ( 0.0000,  0.0000,  0.0000)
  24 Li     1.616732    8.085331   13.471108    ( 0.0000,  0.0000,  0.0000)
  25 Li     4.851283    8.085064   13.470468    ( 0.0000,  0.0000,  0.0000)
  26 Li     8.085465    8.085812   13.471170    ( 0.0000,  0.0000,  0.0000)
  27 Li     0.001069    0.000657   15.447039    ( 0.0000,  0.0000,  0.0000)
  28 Li     3.235242   -0.002472   15.443916    ( 0.0000,  0.0000,  0.0000)
  29 Li     6.467557   -0.002735   15.442295    ( 0.0000,  0.0000,  0.0000)
  30 Li    -0.001001    3.269088   15.357907    ( 0.0000,  0.0000,  0.0000)
  31 Li     3.235040    3.236024   15.444103    ( 0.0000,  0.0000,  0.0000)
  32 Li     6.466746    3.236503   15.441392    ( 0.0000,  0.0000,  0.0000)
  33 Li    -0.000318    6.468983   15.445388    ( 0.0000,  0.0000,  0.0000)
  34 Li     3.234189    6.468585   15.445500    ( 0.0000,  0.0000,  0.0000)
  35 Li     6.468415    6.468103   15.445511    ( 0.0000,  0.0000,  0.0000)
  36 O     -0.052744    1.583379   18.597503    ( 0.0000,  0.0000,  0.0000)
  37 C     -2.475749    1.603845   18.488128    ( 0.0000,  0.0000,  0.0000)
  38 C     -3.739035    2.456747   18.471199    ( 0.0000,  0.0000,  0.0000)
  39 C     -1.195933    2.407193   18.505079    ( 0.0000,  0.0000,  0.0000)
  40 C     -5.009852    1.609314   18.454919    ( 0.0000,  0.0000,  0.0000)
  41 H     -2.455425    0.967046   19.374970    ( 0.0000,  0.0000,  0.0000)
  42 H     -2.477954    0.934304   17.612204    ( 0.0000,  0.0000,  0.0000)
  43 H     -3.725253    3.120797   17.593439    ( 0.0000,  0.0000,  0.0000)
  44 H     -3.741919    3.117157   19.345141    ( 0.0000,  0.0000,  0.0000)
  45 H     -1.202337    3.093744   17.605283    ( 0.0000,  0.0000,  0.0000)
  46 H     -1.106551    3.064445   19.354704    ( 0.0000,  0.0000,  0.0000)
  47 H     -5.036582    0.966355   17.568608    ( 0.0000,  0.0000,  0.0000)
  48 H     -5.054882    0.958637   19.331192    ( 0.0000,  0.0000,  0.0000)
  49 H     -5.913339    2.223178   18.447003    ( 0.0000,  0.0000,  0.0000)
  50 H     -0.045606    1.033108   17.739051    ( 0.0000,  0.0000,  0.0000)
  51 N      0.036538    1.602548   16.755532    ( 0.0000,  0.0000,  0.0000)
  52 N      0.057126    2.731057   16.910854    ( 0.0000,  0.0000,  0.0000)

Unit cell:
           periodic     x           y           z      points  spacing
  1. axis:    yes    9.702222    0.000000    0.000000    60     0.1617
  2. axis:    yes    0.000000    9.702222    0.000000    60     0.1617
  3. axis:    no     0.000000    0.000000   26.351111   164     0.1607

  Lengths:   9.702222   9.702222  26.351111
  Angles:   90.000000  90.000000  90.000000

Effective grid spacing dv^(1/3) = 0.1614

     iter     time        total  log10-change:
                         energy  eigst   dens
iter:   1 10:47:19  -353.381373  -0.90
iter:   2 10:47:27  -353.383726  -1.38  -2.06
iter:   3 10:47:34  -353.373433c -1.86  -2.01
iter:   4 10:47:42  -353.371301c -2.15  -2.31
Writing to output.gpw (mode='')

iter:   5 10:47:49  -353.369621c -2.03  -2.50
iter:   6 10:47:57  -353.368638c -2.31  -2.46
iter:   7 10:48:04  -353.368363c -2.54  -2.62
iter:   8 10:48:12  -353.368475c -2.98  -2.79
iter:   9 10:48:19  -353.368510c -3.09  -2.85
Writing to output.gpw (mode='')

iter:  10 10:48:27  -353.368629c -3.24  -3.12
iter:  11 10:48:35  -353.368569c -3.71  -3.22
iter:  12 10:48:42  -353.368578c -3.62  -3.25
iter:  13 10:48:50  -353.368534c -3.80  -3.36
iter:  14 10:48:57  -353.368585c -3.85  -3.55
Writing to output.gpw (mode='')

iter:  15 10:49:05  -353.368590c -4.28  -3.52
iter:  16 10:49:15  -353.368597c -4.29  -3.51
iter:  17 10:49:22  -353.368610c -4.36  -3.53
iter:  18 10:49:30  -353.368607c -4.54  -3.66
iter:  19 10:49:37  -353.368613c -4.78  -3.75
Writing to output.gpw (mode='')

iter:  20 10:49:45  -353.368630c -4.81  -3.79
iter:  21 10:49:59  -353.368628c -4.66  -3.95
iter:  22 10:50:07  -353.368632c -5.05  -3.77
iter:  23 10:50:14  -353.368637c -5.24  -4.03c
iter:  24 10:50:22  -353.368630c -5.29  -4.12c
Writing to output.gpw (mode='')

iter:  25 10:50:29  -353.368636c -5.50  -4.25c
iter:  26 10:50:37  -353.368634c -5.38  -4.41c
iter:  27 10:50:44  -353.368634c -5.70  -4.50c
iter:  28 10:50:52  -353.368634c -5.74  -4.61c
iter:  29 10:50:59  -353.368634c -5.76  -4.72c
Writing to output.gpw (mode='')

iter:  30 10:51:07  -353.368634c -6.29  -4.84c
iter:  31 10:51:15  -353.368635c -6.06  -4.90c
iter:  32 10:51:22  -353.368635c -6.34  -4.96c
iter:  33 10:51:30  -353.368635c -6.30  -4.97c
iter:  34 10:51:37  -353.368635c -6.39  -4.99c
Writing to output.gpw (mode='')

iter:  35 10:51:45  -353.368636c -6.57  -4.88c
iter:  36 10:51:53  -353.368635c -6.72  -4.92c
iter:  37 10:52:00  -353.368635c -6.78  -5.03c
iter:  38 10:52:08  -353.368635c -6.89  -5.08c
iter:  39 10:52:15  -353.368636c -6.77  -5.09c
Writing to output.gpw (mode='')

iter:  40 10:52:23  -353.368637c -7.07  -4.96c
iter:  41 10:52:30  -353.368637c -7.22  -5.03c
iter:  42 10:52:38  -353.368637c -7.26  -5.05c
iter:  43 10:52:46  -353.368635c -7.32  -5.12c
iter:  44 10:52:54  -353.368636c -7.25  -5.14c
Writing to output.gpw (mode='')

iter:  45 10:53:01  -353.368635c -7.44c -5.21c

Converged after 45 iterations.

Dipole moment: (-15.987895, -4.149133, 0.058631) |e|*Ang

Energy contributions relative to reference atoms: (reference = -16540.070923)

Kinetic:       +221.247068
Potential:     -203.749661
External:        +0.000000
XC:            -371.637729
Entropy (-ST):   -0.156674
Local:           +0.850023
--------------------------
Free energy:   -353.446973
Extrapolated:  -353.368635

Dipole-layer corrected work functions: 3.419750, 3.307042 eV

Showing only first 2 kpts
 Kpt  Band  Eigenvalues  Occupancy
  0    37     -3.60850    1.98525
  0    38     -3.51965    1.91583
  0    39     -3.29291    0.39253
  0    40     -3.10971    0.01244

  1    37     -3.39430    1.29960
  1    38     -3.34334    0.80211
  1    39     -3.28260    0.33152
  1    40     -3.22781    0.12457


Fermi level: -3.36340

No gap

Forces in eV/Ang:
  0 Li    0.01462   -0.00308   -0.28197
  1 Li    0.00043    0.00096   -0.26836
  2 Li   -0.01473   -0.00278   -0.27756
  3 Li   -0.00186    0.01934   -0.28017
  4 Li    0.00072   -0.00279   -0.26741
  5 Li   -0.00176    0.01526   -0.28277
  6 Li   -0.00250   -0.01207   -0.27426
  7 Li   -0.00080    0.00377   -0.28262
  8 Li    0.00617   -0.01452   -0.26416
  9 Li    0.00321   -0.00474    0.28356
 10 Li    0.00326    0.00072    0.26770
 11 Li   -0.01684   -0.00274    0.25396
 12 Li   -0.00061   -0.00157    0.33657
 13 Li    0.01275   -0.00338    0.25783
 14 Li   -0.00405   -0.00240    0.26906
[...]
  0    40     -3.28213    0.03360

  1    37     -3.72873    1.98466
  1    38     -3.64258    1.91701
  1    39     -3.42891    0.48698
  1    40     -3.23257    0.01261


Fermi level: -3.48559

No gap
Writing to output.gpw (mode='')


Forces in eV/Ang:
  0 Li   -0.00058    0.00040   -0.25528
  1 Li   -0.00674    0.01096   -0.29420
  2 Li    0.01115   -0.01230   -0.29611
  3 Li    0.01138   -0.00793   -0.29476
  4 Li    0.00901    0.00955   -0.29478
  5 Li   -0.01478    0.01538   -0.28485
  6 Li   -0.00989    0.00331   -0.29494
  7 Li    0.01546   -0.01959   -0.28284
  8 Li   -0.00806   -0.01187   -0.29325
  9 Li    0.03738    0.03306    0.33666
 10 Li   -0.05151    0.04251    0.27390
 11 Li   -0.01522    0.01324    0.30088
 12 Li    0.03837   -0.02598    0.26464
 13 Li   -0.04587   -0.02273    0.32903
 14 Li    0.00396   -0.00313    0.30652
 15 Li    0.01915    0.00832    0.25314
 16 Li   -0.01919    0.01394    0.25706
 17 Li   -0.00542    0.01151    0.27195
 18 Li    0.01110   -0.01854    0.02430
 19 Li   -0.00010    0.00312   -0.01570
 20 Li   -0.00397   -0.01008    0.00234
 21 Li    0.01002   -0.00113    0.00941
 22 Li    0.00405    0.01075   -0.00212
 23 Li   -0.00137   -0.01345    0.00543
 24 Li   -0.00444    0.01597    0.00188
 25 Li    0.00303   -0.00724    0.00053
 26 Li   -0.00561   -0.00338   -0.01408
 27 Li    0.00996   -0.00122    0.00254
 28 Li   -0.00173   -0.00198   -0.00981
 29 Li    0.00463    0.01003   -0.00658
 30 Li   -0.00287   -0.00917    0.00630
 31 Li   -0.00966   -0.01188   -0.00243
 32 Li    0.00665   -0.01236   -0.00273
 33 Li    0.00226   -0.00400   -0.00586
 34 Li   -0.00299   -0.00647   -0.01302
 35 Li    0.00254    0.00354   -0.00916
 36 O     0.01488   -0.03013   -0.05872
 37 C     0.00337   -0.00003    0.01419
 38 C     0.00272   -0.01013    0.01277
 39 C    -0.00315    0.00163   -0.01224
 40 C    -0.01450   -0.02092    0.03776
 41 H     0.00274   -0.00238    0.01374
 42 H    -0.02054    0.01827   -0.00057
 43 H    -0.00522   -0.01665    0.00903
 44 H    -0.00149   -0.01517    0.00355
 45 H    -0.00602    0.03284    0.01316
 46 H     0.01554    0.00288   -0.02605
 47 H    -0.02110   -0.01133   -0.00117
 48 H     0.02696   -0.01855    0.03142
 49 H    -0.01436    0.02911   -0.00779
 50 H     0.03307    0.00600    0.04287
 51 N     0.02096    0.01894   -0.04523
 52 N     0.02836   -0.00832   -0.01122

System changes: positions 

Initializing position-dependent things.

Density initialized from wave functions
       .-----------------------.  
      /|                       |  
     / |                       |  
    /  |                       |  
   /   |                       |  
  /    |                       |  
 *     |                       |  
 |     |                       |  
 |     |                       |  
 |     |                       |  
 |     |                       |  
 |     |                       |  
 |     |         H     H       |  
 |     |           H   Ci      Li 
 |     |   HHC   C C    H O    |  
 |     |     Li      Li   H  Li|  
 |     |     H     H           |  
 | Li  |  LLi     LLi     Li   |  
 |   N N                       |  
 |     |Li      Li      Li     |  
 |   LLi     Li      Li        |  
 |     |  Li  Li  Li  Li  Li   |  
 | Li  |   Li      Li          |  
 |     |Li      Li      Li     |  
 Li    | Li      Li            |  
 |    Li      Li      Li       |  
 |     |                       |  
 |     |                       |  
 |     |                       |  
 |     |                       |  
 |     |                       |  
 |     |                       |  
 |     .-----------------------.  
 |    /                       /   
 |   /                       /    
 |  /                       /     
 | /                       /      
 |/                       /       
 *-----------------------*        

Positions:
   0 Li     1.617037    1.617037   10.000000    ( 0.0000,  0.0000,  0.0000)
   1 Li     4.851111    1.617037   10.000000    ( 0.0000,  0.0000,  0.0000)
   2 Li     8.085185    1.617037   10.000000    ( 0.0000,  0.0000,  0.0000)
   3 Li     1.617037    4.851111   10.000000    ( 0.0000,  0.0000,  0.0000)
   4 Li     4.851111    4.851111   10.000000    ( 0.0000,  0.0000,  0.0000)
   5 Li     8.085185    4.851111   10.000000    ( 0.0000,  0.0000,  0.0000)
   6 Li     1.617037    8.085185   10.000000    ( 0.0000,  0.0000,  0.0000)
   7 Li     4.851111    8.085185   10.000000    ( 0.0000,  0.0000,  0.0000)
   8 Li     8.085185    8.085185   10.000000    ( 0.0000,  0.0000,  0.0000)
   9 Li     0.000000    0.000000   11.617037    ( 0.0000,  0.0000,  0.0000)
  10 Li     3.234074    0.000000   11.617037    ( 0.0000,  0.0000,  0.0000)
  11 Li     6.468148    0.000000   11.617037    ( 0.0000,  0.0000,  0.0000)
  12 Li     0.000000    3.234074   11.617037    ( 0.0000,  0.0000,  0.0000)
  13 Li     3.234074    3.234074   11.617037    ( 0.0000,  0.0000,  0.0000)
  14 Li     6.468148    3.234074   11.617037    ( 0.0000,  0.0000,  0.0000)
  15 Li     0.000000    6.468148   11.617037    ( 0.0000,  0.0000,  0.0000)
  16 Li     3.234074    6.468148   11.617037    ( 0.0000,  0.0000,  0.0000)
  17 Li     6.468148    6.468148   11.617037    ( 0.0000,  0.0000,  0.0000)
  18 Li     1.598788    1.634430   13.591535    ( 0.0000,  0.0000,  0.0000)
  19 Li     4.820249    1.657846   13.504780    ( 0.0000,  0.0000,  0.0000)
  20 Li     8.096083    1.593890   13.486101    ( 0.0000,  0.0000,  0.0000)
  21 Li     1.646143    4.871191   13.494924    ( 0.0000,  0.0000,  0.0000)
  22 Li     4.870922    4.905868   13.476749    ( 0.0000,  0.0000,  0.0000)
  23 Li     8.166845    4.826797   13.478083    ( 0.0000,  0.0000,  0.0000)
  24 Li     1.583519    8.080171   13.496467    ( 0.0000,  0.0000,  0.0000)
  25 Li     4.766124    8.149182   13.489588    ( 0.0000,  0.0000,  0.0000)
  26 Li     8.053946    8.042119   13.482404    ( 0.0000,  0.0000,  0.0000)
  27 Li    -0.117139   -0.104096   15.429767    ( 0.0000,  0.0000,  0.0000)
  28 Li     2.953830    0.273521   15.605514    ( 0.0000,  0.0000,  0.0000)
  29 Li     6.339886   -0.089543   15.379469    ( 0.0000,  0.0000,  0.0000)
  30 Li     0.245857    3.046038   15.559713    ( 0.0000,  0.0000,  0.0000)
  31 Li     3.329511    3.406996   15.467336    ( 0.0000,  0.0000,  0.0000)
  32 Li     6.610159    3.331036   15.347328    ( 0.0000,  0.0000,  0.0000)
  33 Li    -0.063145    6.361027   15.465445    ( 0.0000,  0.0000,  0.0000)
  34 Li     3.288685    6.644075   15.469361    ( 0.0000,  0.0000,  0.0000)
  35 Li     6.458097    6.465023   15.441802    ( 0.0000,  0.0000,  0.0000)
  36 O     -0.178993    1.612084   19.109066    ( 0.0000,  0.0000,  0.0000)
  37 C     -2.649059    1.560402   18.930948    ( 0.0000,  0.0000,  0.0000)
  38 C     -3.920599    2.412720   18.856842    ( 0.0000,  0.0000,  0.0000)
  39 C     -1.380236    2.394058   19.098547    ( 0.0000,  0.0000,  0.0000)
  40 C     -5.191385    1.572545   18.719116    ( 0.0000,  0.0000,  0.0000)
  41 H     -2.722172    0.843645   19.755199    ( 0.0000,  0.0000,  0.0000)
  42 H     -2.555413    0.964520   18.011210    ( 0.0000,  0.0000,  0.0000)
  43 H     -3.847875    3.104006   18.004773    ( 0.0000,  0.0000,  0.0000)
  44 H     -3.993403    3.048743   19.746349    ( 0.0000,  0.0000,  0.0000)
  45 H     -1.330560    3.156754   18.305908    ( 0.0000,  0.0000,  0.0000)
  46 H     -1.395851    2.918385   20.057817    ( 0.0000,  0.0000,  0.0000)
  47 H     -5.119701    0.914088   17.845890    ( 0.0000,  0.0000,  0.0000)
  48 H     -5.344322    0.939165   19.595316    ( 0.0000,  0.0000,  0.0000)
  49 H     -6.082577    2.192589   18.597670    ( 0.0000,  0.0000,  0.0000)
  50 H     -0.066424    1.227644   18.227620    ( 0.0000,  0.0000,  0.0000)
  51 N      1.151860    1.212563   15.638918    ( 0.0000,  0.0000,  0.0000)
  52 N      2.045351    2.100938   15.613195    ( 0.0000,  0.0000,  0.0000)

Unit cell:
           periodic     x           y           z      points  spacing
  1. axis:    yes    9.702222    0.000000    0.000000    60     0.1617
  2. axis:    yes    0.000000    9.702222    0.000000    60     0.1617
  3. axis:    no     0.000000    0.000000   26.351111   164     0.1607

  Lengths:   9.702222   9.702222  26.351111
  Angles:   90.000000  90.000000  90.000000

Effective grid spacing dv^(1/3) = 0.1614

     iter     time        total  log10-change:
                         energy  eigst   dens
iter:   1 18:48:56  -360.896632  -2.03
iter:   2 18:49:04  -360.896494  -2.83  -2.56
iter:   3 18:49:11  -360.896058c -3.47  -2.71
iter:   4 18:49:19  -360.896374c -3.56  -2.89
Writing to output.gpw (mode='')

iter:   5 18:49:26  -360.895322c -3.29  -2.81
iter:   6 18:49:34  -360.895239c -3.36  -3.17
iter:   7 18:49:41  -360.895238c -3.64  -3.35
iter:   8 18:49:54  -360.895246c -4.47  -3.42
iter:   9 18:50:03  -360.895288c -4.47  -3.50
Writing to output.gpw (mode='')

iter:  10 18:50:11  -360.895283c -4.64  -3.57
iter:  11 18:50:18  -360.895274c -5.22  -3.74
iter:  12 18:50:26  -360.895239c -4.74  -3.81
iter:  13 18:50:34  -360.895251c -5.57  -3.95
iter:  14 18:50:41  -360.895251c -5.92  -4.12c
Writing to output.gpw (mode='')

iter:  15 18:50:49  -360.895251c -6.03  -4.20c
iter:  16 18:50:56  -360.895254c -6.21  -4.26c
iter:  17 18:51:04  -360.895259c -6.35  -4.33c
iter:  18 18:51:11  -360.895261c -6.44  -4.39c
iter:  19 18:51:19  -360.895255c -6.70  -4.40c
Writing to output.gpw (mode='')

iter:  20 18:51:27  -360.895255c -6.52  -4.76c
iter:  21 18:51:35  -360.895255c -7.14  -4.93c
iter:  22 18:51:42  -360.895255c -7.45c -4.98c

Converged after 22 iterations.

Dipole moment: (9.654162, -3.580794, -0.074625) |e|*Ang

Energy contributions relative to reference atoms: (reference = -16540.070923)

Kinetic:       +182.323659
Potential:     -176.874073
External:        +0.000000
XC:            -367.129740
Entropy (-ST):   -0.162189
Local:           +0.865994
--------------------------
Free energy:   -360.976350
Extrapolated:  -360.895255

Dipole-layer corrected work functions: 3.412916, 3.556371 eV

Showing only first 2 kpts
 Kpt  Band  Eigenvalues  Occupancy
  0    37     -3.72191    1.98276
  0    38     -3.52018    1.34110
  0    39     -3.44393    0.61396
  0    40     -3.28147    0.03380

  1    37     -3.72760    1.98461
  1    38     -3.64214    1.91781
  1    39     -3.42799    0.48717
  1    40     -3.23168    0.01262


Fermi level: -3.48464

No gap
Writing to output.gpw (mode='')


Forces in eV/Ang:
  0 Li   -0.00060    0.00045   -0.25514
  1 Li   -0.00684    0.01109   -0.29423
  2 Li    0.01115   -0.01218   -0.29617
  3 Li    0.01152   -0.00774   -0.29467
  4 Li    0.00885    0.00967   -0.29481
  5 Li   -0.01475    0.01549   -0.28467
  6 Li   -0.00987    0.00355   -0.29500
  7 Li    0.01545   -0.01945   -0.28290
  8 Li   -0.00817   -0.01183   -0.29324
  9 Li    0.03682    0.03227    0.33761
 10 Li   -0.05040    0.04153    0.27364
 11 Li   -0.01514    0.01307    0.30147
 12 Li    0.03882   -0.02606    0.26536
 13 Li   -0.04576   -0.02366    0.32896
 14 Li    0.00337   -0.00252    0.30630
 15 Li    0.01942    0.00715    0.25301
 16 Li   -0.01836    0.01303    0.25674
 17 Li   -0.00661    0.00970    0.27164
 18 Li    0.01258   -0.01594    0.01600
 19 Li   -0.00101    0.00342   -0.01497
 20 Li   -0.00394   -0.01151    0.00261
 21 Li    0.00841   -0.00157    0.00985
 22 Li    0.00627    0.01162   -0.00348
 23 Li   -0.00069   -0.01418    0.00537
 24 Li   -0.00506    0.01566    0.00246
 25 Li    0.00244   -0.00713    0.00007
 26 Li   -0.00461   -0.00182   -0.01321
 27 Li    0.01053   -0.00091    0.00293
 28 Li    0.00478   -0.00574   -0.01005
 29 Li    0.00457    0.01057   -0.00647
 30 Li    0.00415   -0.01353    0.00601
 31 Li   -0.01105   -0.01626   -0.00294
 32 Li    0.00705   -0.01278   -0.00223
 33 Li    0.00246   -0.00418   -0.00649
 34 Li   -0.00337   -0.00493   -0.01300
 35 Li    0.00264    0.00338   -0.00965
 36 O     0.01521   -0.03027   -0.03487
 37 C    -0.00725   -0.00764    0.01378
 38 C    -0.00687   -0.00895    0.00683
 39 C    -0.00553   -0.00127   -0.01855
 40 C    -0.00965   -0.01232    0.02103
 41 H     0.00583   -0.00715    0.01611
 42 H    -0.01681    0.01089   -0.00941
 43 H    -0.00712   -0.01112    0.00809
 44 H    -0.00011   -0.00908    0.00628
 45 H    -0.00700    0.03224    0.00949
 46 H     0.01912    0.00200   -0.02162
 47 H    -0.02219   -0.00759   -0.00053
 48 H     0.01580   -0.01372    0.02872
 49 H    -0.00238    0.01959    0.00465
 50 H     0.02861    0.00622    0.02707
 51 N     0.00863    0.00235   -0.02881
 52 N     0.02639    0.01878    0.00314

Timing:                                      incl.     excl.
-------------------------------------------------------------------
Density initialized from wave functions:     5.448     5.444   0.0% |
 Symmetrize density:                         0.003     0.003   0.0% |
Forces:                                     57.872    57.872   0.2% |
Hamiltonian:                               697.993     0.016   0.0% |
 Atomic:                                     0.029     0.028   0.0% |
  XC Correction:                             0.000     0.000   0.0% |
 Calculate atomic Hamiltonians:              0.050     0.050   0.0% |
 Communicate:                               10.706    10.706   0.0% |
 Hartree integrate/restrict:                 2.422     2.422   0.0% |
 Initialize Hamiltonian:                     0.000     0.000   0.0% |
 Poisson:                                   34.359    12.513   0.0% |
  Communicate from 1D:                       3.375     3.375   0.0% |
  Communicate from 2D:                       3.872     3.872   0.0% |
  Communicate to 1D:                         2.079     2.079   0.0% |
  Communicate to 2D:                         3.826     3.826   0.0% |
  FFT 1D:                                    4.397     4.397   0.0% |
  FFT 2D:                                    4.297     4.297   0.0% |
 XC 3D grid:                               649.841   100.457   0.3% |
  VdW-DF integral:                         549.385     4.651   0.0% |
   Convolution:                             51.785    51.785   0.2% |
   FFT:                                     21.718    21.718   0.1% |
   gather:                                 192.058   192.058   0.6% |
   hmm1:                                    17.548    17.548   0.1% |
   hmm2:                                    23.667    23.667   0.1% |
   iFFT:                                    22.779    22.779   0.1% |
   potential:                              211.621     5.978   0.0% |
    collect:                                33.081    33.081   0.1% |
    p1:                                     98.049    98.049   0.3% |
    p2:                                     37.304    37.304   0.1% |
    sum:                                    37.209    37.209   0.1% |
   splines:                                  3.558     3.558   0.0% |
 vbar:                                       0.570     0.570   0.0% |
LCAO initialization:                         1.330     0.182   0.0% |
 LCAO eigensolver:                           0.287     0.001   0.0% |
  Calculate projections:                     0.000     0.000   0.0% |
  DenseAtomicCorrection:                     0.000     0.000   0.0% |
  Distribute overlap matrix:                 0.268     0.268   0.0% |
  Orbital Layouts:                           0.015     0.015   0.0% |
  Potential matrix:                          0.001     0.001   0.0% |
  Sum over cells:                            0.002     0.002   0.0% |
 LCAO to grid:                               0.689     0.689   0.0% |
 Set positions (LCAO WFS):                   0.173     0.124   0.0% |
  Basic WFS set positions:                   0.001     0.001   0.0% |
  Basis functions set positions:             0.000     0.000   0.0% |
  P tci:                                     0.000     0.000   0.0% |
  ST tci:                                    0.014     0.014   0.0% |
  mktci:                                     0.034     0.034   0.0% |
Redistribute:                                0.077     0.077   0.0% |
SCF-cycle:                               30764.642   369.028   1.2% |
 Davidson:                                8873.914  2652.562   8.4% |--|
  Apply hamiltonian:                       546.032   546.032   1.7% ||
  Subspace diag:                          1643.442     0.480   0.0% |
   calc_h_matrix:                          816.554   259.484   0.8% |
    Apply hamiltonian:                     557.070   557.070   1.8% ||
   diagonalize:                             90.654    90.654   0.3% |
   rotate_psi:                             735.754   735.754   2.3% ||
  calc. matrices:                         2862.768  1508.055   4.8% |-|
   Apply hamiltonian:                     1354.712  1354.712   4.3% |-|
  diagonalize:                              28.005    28.005   0.1% |
  rotate_psi:                             1141.104  1141.104   3.6% ||
 Density:                                  153.867     0.098   0.0% |
  Atomic density matrices:                  18.789    18.789   0.1% |
  Mix:                                      62.840    62.840   0.2% |
  Multipole moments:                         7.782     7.782   0.0% |
  Pseudo density:                           64.358    64.279   0.2% |
   Symmetrize density:                       0.080     0.080   0.0% |
 Hamiltonian:                            21341.671     0.496   0.0% |
  Atomic:                                    0.943     0.933   0.0% |
   XC Correction:                            0.010     0.010   0.0% |
  Calculate atomic Hamiltonians:             1.533     1.533   0.0% |
  Communicate:                             298.720   298.720   0.9% |
  Hartree integrate/restrict:               71.397    71.397   0.2% |
  Poisson:                                1031.857   380.826   1.2% |
   Communicate from 1D:                    102.717   102.717   0.3% |
   Communicate from 2D:                    103.329   103.329   0.3% |
   Communicate to 1D:                       57.310    57.310   0.2% |
   Communicate to 2D:                      120.374   120.374   0.4% |
   FFT 1D:                                 134.179   134.179   0.4% |
   FFT 2D:                                 133.122   133.122   0.4% |
  XC 3D grid:                            19918.957  3057.364   9.6% |---|
   VdW-DF integral:                      16861.594   141.622   0.4% |
    Convolution:                          1573.203  1573.203   5.0% |-|
    FFT:                                   663.863   663.863   2.1% ||
    gather:                               5924.427  5924.427  18.7% |------|
    hmm1:                                  538.209   538.209   1.7% ||
    hmm2:                                  722.099   722.099   2.3% ||
    iFFT:                                  693.842   693.842   2.2% ||
    potential:                            6604.294   183.730   0.6% |
     collect:                             1047.796  1047.796   3.3% ||
     p1:                                  2978.256  2978.256   9.4% |---|
     p2:                                  1121.818  1121.818   3.5% ||
     sum:                                 1272.694  1272.694   4.0% |-|
    splines:                                 0.034     0.034   0.0% |
  vbar:                                     17.767    17.767   0.1% |
 Orthonormalize:                            26.162     0.018   0.0% |
  calc_s_matrix:                             3.787     3.787   0.0% |
  inverse-cholesky:                          8.105     8.105   0.0% |
  projections:                               0.003     0.003   0.0% |
  rotate_psi_s:                             14.250    14.250   0.0% |
Set symmetry:                                0.015     0.015   0.0% |
Other:                                     171.590   171.590   0.5% |
-------------------------------------------------------------------
Total:                                             31698.968 100.0%

Memory usage: 1.13 GiB
Date: Fri Mar 10 18:51:43 2023
