
  ___ ___ ___ _ _ _  
 |   |   |_  | | | | 
 | | | | | . | | | | 
 |__ |  _|___|_____|  22.8.0
 |___|_|             

User:   vazumah@r476.ib.bridges2.psc.edu
Date:   Fri Mar 10 10:03:24 2023
Arch:   x86_64
Pid:    81266
CWD:    /jet/home/vazumah/Calcs/LiMEAS/proton_donors/butanol_x/bridge/8.085_1.617/N2_y
Python: 3.11.0
gpaw:   /jet/home/vazumah/.conda/envs/GPAW_mpich/lib/python3.11/site-packages/gpaw
_gpaw:  /jet/home/vazumah/.conda/envs/GPAW_mpich/lib/python3.11/site-packages/
        _gpaw.cpython-311-x86_64-linux-gnu.so
ase:    /jet/home/vazumah/.conda/envs/GPAW_mpich/lib/python3.11/site-packages/ase (version 3.22.1)
numpy:  /jet/home/vazumah/.conda/envs/GPAW_mpich/lib/python3.11/site-packages/numpy (version 1.24.2)
scipy:  /jet/home/vazumah/.conda/envs/GPAW_mpich/lib/python3.11/site-packages/scipy (version 1.10.1)
libxc:  5.2.3
units:  Angstrom and eV
cores: 128
OpenMP: True
OMP_NUM_THREADS: 1

Input parameters:
  h: 0.16
  kpts: {size: [4, 4, 1]}
  occupations: {name: fermi-dirac,
                width: 0.05}
  poissonsolver: {dipolelayer: xy}
  xc: BEEF-vdW

System changes: positions, numbers, cell, pbc, initial_charges, initial_magmoms 

Initialize ...

species:
  Li:
    name: Lithium
    id: 830b4218f175192f93f959cfc0aad614
    Z: 3.0
    valence: 1
    core: 2
    charge: 0.0
    file: /jet/home/vazumah/datasets/gpaw-setups-0.9.20000/Li.PBE.gz
    compensation charges: {type: gauss,
                           rc: 0.33,
                           lmax: 2}
    cutoffs: {filter: 1.91,
              core: 2.55}
    valence states:
      #              energy  rcut
      - 2s(1.00)    -2.874   1.058
      - 2p(0.00)    -1.090   1.058
      -  s          24.337   1.058
  
    # Using partial waves for Li as LCAO basis

  O:
    name: Oxygen
    id: 32ecd46bf208036f09c70b0ec9a88b78
    Z: 8.0
    valence: 6
    core: 2
    charge: 0.0
    file: /jet/home/vazumah/datasets/gpaw-setups-0.9.20000/O.PBE.gz
    compensation charges: {type: gauss,
                           rc: 0.21,
                           lmax: 2}
    cutoffs: {filter: 1.17,
              core: 0.83}
    valence states:
      #              energy  rcut
      - 2s(2.00)   -23.961   0.688
      - 2p(4.00)    -9.029   0.598
      -  s           3.251   0.688
      -  p          18.182   0.598
      -  d           0.000   0.619
  
    # Using partial waves for O as LCAO basis

  C:
    name: Carbon
    id: 4aa54d4b901d75f77cc0ea3eec22967b
    Z: 6.0
    valence: 4
    core: 2
    charge: 0.0
    file: /jet/home/vazumah/datasets/gpaw-setups-0.9.20000/C.PBE.gz
    compensation charges: {type: gauss,
                           rc: 0.20,
                           lmax: 2}
    cutoffs: {filter: 1.14,
              core: 1.14}
    valence states:
      #              energy  rcut
      - 2s(2.00)   -13.751   0.635
      - 2p(2.00)    -5.284   0.635
      -  s          13.461   0.635
      -  p          21.927   0.635
      -  d           0.000   0.635
  
    # Using partial waves for C as LCAO basis

  H:
    name: Hydrogen
    id: d65de229564ff8ea4db303e23b6d1ecf
    Z: 1.0
    valence: 1
    core: 0
    charge: 0.0
    file: /jet/home/vazumah/datasets/gpaw-setups-0.9.20000/H.PBE.gz
    compensation charges: {type: gauss,
                           rc: 0.15,
                           lmax: 2}
    cutoffs: {filter: 0.85,
              core: 0.53}
    valence states:
      #              energy  rcut
      - 1s(1.00)    -6.494   0.476
      -  s          20.717   0.476
      -  p           0.000   0.476
  
    # Using partial waves for H as LCAO basis

  N:
    name: Nitrogen
    id: f7500608b86eaa90eef8b1d9a670dc53
    Z: 7.0
    valence: 5
    core: 2
    charge: 0.0
    file: /jet/home/vazumah/datasets/gpaw-setups-0.9.20000/N.PBE.gz
    compensation charges: {type: gauss,
                           rc: 0.18,
                           lmax: 2}
    cutoffs: {filter: 1.11,
              core: 0.96}
    valence states:
      #              energy  rcut
      - 2s(2.00)   -18.583   0.603
      - 2p(3.00)    -7.089   0.529
      -  s           8.629   0.603
      -  p          20.123   0.529
      -  d           0.000   0.577
  
    # Using partial waves for N as LCAO basis

Reference energy: -16540.070923  # eV

Spin-paired calculation

Convergence criteria:
 Maximum [total energy] change in last 3 cyles: 0.0005 eV / electron
 Maximum integral of absolute [dens]ity change: 0.0001 electrons / valence electron
 Maximum integral of absolute [eigenst]ate change: 4e-08 eV^2 / valence electron
 Maximum number of scf [iter]ations: 333
 (Square brackets indicate name in SCF output, whereas a 'c' in
 the SCF output indicates the quantity has converged.)

Symmetries present (total): 1

  ( 1  0  0)
  ( 0  1  0)
  ( 0  0  1)

16 k-points: 4 x 4 x 1 Monkhorst-Pack grid
8 k-points in the irreducible part of the Brillouin zone
       k-points in crystal coordinates                weights
   0:     0.12500000   -0.37500000    0.00000000          2/16
   1:     0.12500000   -0.12500000    0.00000000          2/16
   2:     0.12500000    0.12500000    0.00000000          2/16
   3:     0.12500000    0.37500000    0.00000000          2/16
   4:     0.37500000   -0.37500000    0.00000000          2/16
   5:     0.37500000   -0.12500000    0.00000000          2/16
   6:     0.37500000    0.12500000    0.00000000          2/16
   7:     0.37500000    0.37500000    0.00000000          2/16

Wave functions: Uniform real-space grid
  Kinetic energy operator: 6*3+1=19 point O(h^6) finite-difference Laplacian
  ScaLapack parameters: grid=1x1, blocksize=None
  Wavefunction extrapolation:
    Improved wavefunction reuse through dual PAW basis 

Occupation numbers: Fermi-Dirac:
  width: 0.0500  # eV
 

Eigensolver
   Davidson(niter=2) 

Densities:
  Coarse grid: 60*60*164 grid
  Fine grid: 120*120*328 grid
  Total Charge: 0.000000 

Density mixing:
  Method: separate
  Backend: pulay
  Linear mixing parameter: 0.05
  old densities: 5
  Damping of long wavelength oscillations: 50 

Hamiltonian:
  XC and Coulomb potentials evaluated on a 120*120*328 grid
  Using the BEEF-vdW Exchange-Correlation functional
  Interpolation: tri-quintic (5. degree polynomial)
  Poisson solver: FastPoissonSolver using
    Stencil: 6*3+1=19 point O(h^6) finite-difference Laplacian
    FFT axes: [0, 1]
    FST axes: [2]

Dipole correction along z-axis 

XC parameters: BEEF-vdW with 2 nearest neighbor stencil

Memory estimate:
  Process memory now: 133.48 MiB
  Calculator: 88.32 MiB
    Density: 22.73 MiB
      Arrays: 7.22 MiB
      Localized functions: 12.76 MiB
      Mixer: 2.75 MiB
    Hamiltonian: 5.73 MiB
      Arrays: 4.72 MiB
      XC: 0.00 MiB
      Poisson: 0.00 MiB
      vbar: 1.01 MiB
    Wavefunctions: 59.86 MiB
      Arrays psit_nG: 28.02 MiB
      Eigensolver: 31.16 MiB
      Projections: 0.02 MiB
      Projectors: 0.67 MiB

Total number of cores used: 128
Parallelization over k-points: 8
Domain decomposition: 2 x 2 x 4

Number of atoms: 53
Number of atomic orbitals: 182
Number of bands in calculation: 51
Number of valence electrons: 78
Bands to converge: occupied

... initialized

Initializing position-dependent things.

Density initialized from atomic densities
Creating initial wave functions:
  51 bands from LCAO basis set

       .-----------------------.  
      /|                       |  
     / |                       |  
    /  |                       |  
   /   |                       |  
  /    |                       |  
 *     |                       |  
 |     |                       |  
 |     |                       |  
 |     |                       |  
 |     |                       |  
 |     |                       |  
 |     |                       |  
 |     |      H     H          |  
 |     |HH   C  H   C          |  
 |   Li|  C  LH C   HLO        |  
 |     | H     H      HN       |  
 | Li  |  LLi     LLi     Li   |  
 |     |                       |  
 Li    |LLi     LLi     Li     |  
 |   Li|     Li      Li        |  
 |    Li  Li  Li  Li  Li  Li   |  
 | Li  |   Li      Li          |  
 |     |Li      Li      Li     |  
 Li    | Li      Li            |  
 |    Li      Li      Li       |  
 |     |                       |  
 |     |                       |  
 |     |                       |  
 |     |                       |  
 |     |                       |  
 |     |                       |  
 |     .-----------------------.  
 |    /                       /   
 |   /                       /    
 |  /                       /     
 | /                       /      
 |/                       /       
 *-----------------------*        

Positions:
   0 Li     1.617037    1.617037   10.000000    ( 0.0000,  0.0000,  0.0000)
   1 Li     4.851111    1.617037   10.000000    ( 0.0000,  0.0000,  0.0000)
   2 Li     8.085185    1.617037   10.000000    ( 0.0000,  0.0000,  0.0000)
   3 Li     1.617037    4.851111   10.000000    ( 0.0000,  0.0000,  0.0000)
   4 Li     4.851111    4.851111   10.000000    ( 0.0000,  0.0000,  0.0000)
   5 Li     8.085185    4.851111   10.000000    ( 0.0000,  0.0000,  0.0000)
   6 Li     1.617037    8.085185   10.000000    ( 0.0000,  0.0000,  0.0000)
   7 Li     4.851111    8.085185   10.000000    ( 0.0000,  0.0000,  0.0000)
   8 Li     8.085185    8.085185   10.000000    ( 0.0000,  0.0000,  0.0000)
   9 Li     0.000000    0.000000   11.617037    ( 0.0000,  0.0000,  0.0000)
  10 Li     3.234074    0.000000   11.617037    ( 0.0000,  0.0000,  0.0000)
  11 Li     6.468148    0.000000   11.617037    ( 0.0000,  0.0000,  0.0000)
  12 Li     0.000000    3.234074   11.617037    ( 0.0000,  0.0000,  0.0000)
  13 Li     3.234074    3.234074   11.617037    ( 0.0000,  0.0000,  0.0000)
  14 Li     6.468148    3.234074   11.617037    ( 0.0000,  0.0000,  0.0000)
  15 Li     0.000000    6.468148   11.617037    ( 0.0000,  0.0000,  0.0000)
  16 Li     3.234074    6.468148   11.617037    ( 0.0000,  0.0000,  0.0000)
  17 Li     6.468148    6.468148   11.617037    ( 0.0000,  0.0000,  0.0000)
  18 Li     1.617038    1.617038   13.469728    ( 0.0000,  0.0000,  0.0000)
  19 Li     4.851111    1.617038   13.469729    ( 0.0000,  0.0000,  0.0000)
  20 Li     8.085184    1.617038   13.469728    ( 0.0000,  0.0000,  0.0000)
  21 Li     1.617038    4.851111   13.469729    ( 0.0000,  0.0000,  0.0000)
  22 Li     4.851111    4.851111   13.469730    ( 0.0000,  0.0000,  0.0000)
  23 Li     8.085184    4.851111   13.469729    ( 0.0000,  0.0000,  0.0000)
  24 Li     1.617038    8.085184   13.469728    ( 0.0000,  0.0000,  0.0000)
  25 Li     4.851111    8.085184   13.469729    ( 0.0000,  0.0000,  0.0000)
  26 Li     8.085184    8.085184   13.469728    ( 0.0000,  0.0000,  0.0000)
  27 Li    -0.000000   -0.000000   15.445939    ( 0.0000,  0.0000,  0.0000)
  28 Li     3.234074    0.000000   15.445939    ( 0.0000,  0.0000,  0.0000)
  29 Li     6.468148    0.000000   15.445939    ( 0.0000,  0.0000,  0.0000)
  30 Li     0.000000    3.234074   15.445939    ( 0.0000,  0.0000,  0.0000)
  31 Li     3.234076    3.234076   15.445938    ( 0.0000,  0.0000,  0.0000)
  32 Li     6.468146    3.234076   15.445938    ( 0.0000,  0.0000,  0.0000)
  33 Li     0.000000    6.468148   15.445939    ( 0.0000,  0.0000,  0.0000)
  34 Li     3.234076    6.468146   15.445938    ( 0.0000,  0.0000,  0.0000)
  35 Li     6.468146    6.468146   15.445938    ( 0.0000,  0.0000,  0.0000)
  36 O      8.085185    1.617037   18.445939    ( 0.0000,  0.0000,  0.0000)
  37 C      5.618126    1.604696   18.481765    ( 0.0000,  0.0000,  0.0000)
  38 C      4.348565    2.459748   18.468355    ( 0.0000,  0.0000,  0.0000)
  39 C      6.900702    2.427516   18.446147    ( 0.0000,  0.0000,  0.0000)
  40 C      3.075854    1.608762   18.452726    ( 0.0000,  0.0000,  0.0000)
  41 H      5.632924    0.971527   19.375259    ( 0.0000,  0.0000,  0.0000)
  42 H      5.604809    0.934508   17.610409    ( 0.0000,  0.0000,  0.0000)
  43 H      4.361526    3.118823   17.592145    ( 0.0000,  0.0000,  0.0000)
  44 H      4.343661    3.115912   19.346325    ( 0.0000,  0.0000,  0.0000)
  45 H      6.894148    3.093082   17.572008    ( 0.0000,  0.0000,  0.0000)
  46 H      6.985218    3.050830   19.340765    ( 0.0000,  0.0000,  0.0000)
  47 H      3.048268    0.966282   17.568683    ( 0.0000,  0.0000,  0.0000)
  48 H      3.030537    0.958749   19.330177    ( 0.0000,  0.0000,  0.0000)
  49 H      2.172680    2.222488   18.446581    ( 0.0000,  0.0000,  0.0000)
  50 H      8.035875    1.027937   17.683760    ( 0.0000,  0.0000,  0.0000)
  51 N      8.085000    1.617000   16.945939    ( 0.0000,  0.0000,  0.0000)
  52 N      8.085000    2.713622   16.945939    ( 0.0000,  0.0000,  0.0000)

Unit cell:
           periodic     x           y           z      points  spacing
  1. axis:    yes    9.702222    0.000000    0.000000    60     0.1617
  2. axis:    yes    0.000000    9.702222    0.000000    60     0.1617
  3. axis:    no     0.000000    0.000000   26.351111   164     0.1607

  Lengths:   9.702222   9.702222  26.351111
  Angles:   90.000000  90.000000  90.000000

Effective grid spacing dv^(1/3) = 0.1614

     iter     time        total  log10-change:
                         energy  eigst   dens
iter:   1 10:03:39  -659.543053
iter:   2 10:03:47   -80.986828  +2.77  +0.02
iter:   3 10:03:54  -123.084498  +3.16  -0.22
iter:   4 10:04:01  -254.680304  +3.04  -0.34
Writing to output.gpw (mode='')

iter:   5 10:04:09  -300.532425  +2.70  -0.39
iter:   6 10:04:16  -350.157251  +2.41  -0.65
iter:   7 10:04:24  -375.817907  +2.14  -0.62
iter:   8 10:04:31  -389.655529  +1.85  -0.56
iter:   9 10:04:39  -409.135650  +1.94  -0.53
Writing to output.gpw (mode='')

iter:  10 10:04:46  -458.078738  +2.23  -0.52
iter:  11 10:04:54  -609.835738  +2.74  -0.42
iter:  12 10:05:01  -618.652130  +2.29  -0.19
iter:  13 10:05:08  -351.730430  +1.71  -0.15
iter:  14 10:05:16  -347.084174  +1.45  -0.64
Writing to output.gpw (mode='')

iter:  15 10:05:23  -346.029856  +1.52  -0.68
iter:  16 10:05:31  -349.182876  +1.67  -0.74
iter:  17 10:05:38  -350.878628  +1.32  -0.86
iter:  18 10:05:46  -351.099081  +0.81  -0.88
iter:  19 10:05:53  -350.844541  +0.64  -0.91
Writing to output.gpw (mode='')

iter:  20 10:06:01  -348.896453  +0.47  -0.92
iter:  21 10:06:08  -349.326170  +0.71  -1.09
iter:  22 10:06:21  -348.353405  +0.05  -1.00
iter:  23 10:06:30  -348.371216  -0.27  -1.14
iter:  24 10:06:37  -347.824168  -0.16  -1.17
Writing to output.gpw (mode='')

iter:  25 10:06:45  -347.759630  -0.58  -1.41
iter:  26 10:06:52  -347.725655  -0.78  -1.47
iter:  27 10:07:00  -347.710782  -0.58  -1.54
iter:  28 10:07:07  -347.679221  -1.02  -1.65
iter:  29 10:07:15  -347.685598c -0.94  -1.76
Writing to output.gpw (mode='')

iter:  30 10:07:22  -347.686442c -1.28  -1.93
iter:  31 10:07:30  -347.690619c -1.47  -2.02
iter:  32 10:07:37  -347.702496c -1.51  -2.04
iter:  33 10:07:45  -347.696500c -1.73  -2.11
iter:  34 10:07:52  -347.696176c -1.80  -2.21
Writing to output.gpw (mode='')

iter:  35 10:08:00  -347.699877c -2.01  -2.45
iter:  36 10:08:07  -347.699844c -2.20  -2.49
iter:  37 10:08:15  -347.700764c -2.08  -2.58
iter:  38 10:08:22  -347.702108c -2.40  -2.72
iter:  39 10:08:30  -347.702862c -2.38  -2.81
Writing to output.gpw (mode='')

iter:  40 10:08:37  -347.703130c -2.69  -2.92
iter:  41 10:08:45  -347.703968c -2.49  -2.97
iter:  42 10:08:52  -347.704243c -2.72  -3.09
iter:  43 10:09:00  -347.704825c -2.76  -3.13
iter:  44 10:09:07  -347.704864c -3.09  -3.19
Writing to output.gpw (mode='')

iter:  45 10:09:15  -347.705139c -3.04  -3.28
iter:  46 10:09:22  -347.705364c -3.10  -3.43
iter:  47 10:09:30  -347.705412c -3.20  -3.56
iter:  48 10:09:37  -347.705540c -3.31  -3.67
iter:  49 10:09:45  -347.705611c -3.47  -3.70
Writing to output.gpw (mode='')

iter:  50 10:09:52  -347.705680c -3.50  -3.69
iter:  51 10:10:00  -347.705743c -3.69  -3.72
iter:  52 10:10:07  -347.705796c -3.71  -3.78
iter:  53 10:10:15  -347.705818c -3.57  -3.88
iter:  54 10:10:22  -347.705850c -3.98  -4.01c
Writing to output.gpw (mode='')

iter:  55 10:10:30  -347.705885c -3.76  -4.01c
iter:  56 10:10:37  -347.705895c -4.06  -4.00c
iter:  57 10:10:45  -347.705913c -3.99  -4.06c
iter:  58 10:10:52  -347.705926c -4.11  -4.03c
iter:  59 10:11:00  -347.705949c -4.03  -4.02c
Writing to output.gpw (mode='')

iter:  60 10:11:07  -347.705953c -4.40  -3.97
iter:  61 10:11:17  -347.705959c -4.55  -3.99
iter:  62 10:11:29  -347.705966c -4.49  -3.98
iter:  63 10:11:37  -347.705965c -4.59  -3.98
iter:  64 10:11:44  -347.705967c -4.56  -4.04c
Writing to output.gpw (mode='')

iter:  65 10:11:52  -347.705963c -4.52  -4.07c
iter:  66 10:12:00  -347.705957c -4.83  -4.28c
iter:  67 10:12:07  -347.705963c -4.89  -4.62c
iter:  68 10:12:15  -347.705967c -5.00  -4.70c
iter:  69 10:12:22  -347.705967c -4.93  -4.74c
Writing to output.gpw (mode='')

iter:  70 10:12:30  -347.705968c -4.87  -4.82c
iter:  71 10:12:37  -347.705968c -5.11  -4.87c
iter:  72 10:12:45  -347.705968c -5.25  -4.85c
iter:  73 10:12:52  -347.705967c -5.11  -4.86c
iter:  74 10:13:00  -347.705968c -5.03  -4.90c
Writing to output.gpw (mode='')

iter:  75 10:13:07  -347.705968c -5.11  -4.93c
iter:  76 10:13:15  -347.705968c -5.59  -4.91c
iter:  77 10:13:22  -347.705970c -5.53  -4.88c
iter:  78 10:13:30  -347.705969c -5.69  -4.85c
iter:  79 10:13:37  -347.705969c -5.75  -4.84c
Writing to output.gpw (mode='')

iter:  80 10:13:45  -347.705969c -5.77  -4.81c
iter:  81 10:13:52  -347.705970c -5.60  -4.81c
iter:  82 10:14:00  -347.705969c -5.83  -4.77c
iter:  83 10:14:07  -347.705969c -6.04  -4.77c
iter:  84 10:14:15  -347.705969c -5.88  -4.76c
Writing to output.gpw (mode='')

iter:  85 10:14:22  -347.705968c -6.20  -4.71c
iter:  86 10:14:30  -347.705962c -6.21  -4.75c
iter:  87 10:14:37  -347.705965c -6.40  -4.77c
iter:  88 10:14:45  -347.705965c -6.30  -4.77c
iter:  89 10:14:52  -347.705963c -6.31  -4.81c
Writing to output.gpw (mode='')

iter:  90 10:15:00  -347.705965c -6.05  -4.83c
iter:  91 10:15:07  -347.705964c -6.25  -4.99c
iter:  92 10:15:15  -347.705962c -6.42  -4.98c
iter:  93 10:15:22  -347.705965c -6.37  -5.07c
iter:  94 10:15:30  -347.705965c -6.68  -5.37c
Writing to output.gpw (mode='')

iter:  95 10:15:37  -347.705964c -6.55  -5.41c
iter:  96 10:15:45  -347.705964c -6.65  -5.54c
iter:  97 10:15:52  -347.705964c -6.74  -5.64c
iter:  98 10:16:00  -347.705964c -6.61  -5.64c
iter:  99 10:16:07  -347.705965c -6.93  -5.66c
Writing to output.gpw (mode='')

iter: 100 10:16:16  -347.705964c -6.80  -5.69c
iter: 101 10:16:28  -347.705964c -6.81  -5.86c
iter: 102 10:16:35  -347.705964c -6.96  -5.92c
iter: 103 10:16:43  -347.705964c -7.09  -5.93c
iter: 104 10:16:50  -347.705964c -7.28  -5.95c
Writing to output.gpw (mode='')

iter: 105 10:16:58  -347.705964c -7.32  -5.94c
iter: 106 10:17:05  -347.705964c -7.30  -5.90c
iter: 107 10:17:13  -347.705964c -7.24  -5.80c
iter: 108 10:17:20  -347.705964c -7.34  -5.83c
iter: 109 10:17:31  -347.705964c -7.05  -5.88c
Writing to output.gpw (mode='')

iter: 110 10:17:38  -347.705964c -7.48c -5.90c

Converged after 110 iterations.

Dipole moment: (-2.562618, -4.676789, 0.242625) |e|*Ang

Energy contributions relative to reference atoms: (reference = -16540.070923)

Kinetic:       +242.880324
Potential:     -216.734803
External:        +0.000000
XC:            -374.593154
Entropy (-ST):   -0.177456
Local:           +0.830396
--------------------------
Free energy:   -347.794692
Extrapolated:  -347.705964

Dipole-layer corrected work functions: 3.405283, 2.938875 eV

Showing only first 2 kpts
 Kpt  Band  Eigenvalues  Occupancy
  0    37     -3.40697    1.98193
  0    38     -3.31938    1.90014
  0    39     -3.08848    0.31630
  0    40     -2.93239    0.01643

  1    37     -3.21036    1.36511
  1    38     -3.16372    0.91662
  1    39     -3.11406    0.47721
  1    40     -3.05275    0.16840


Fermi level: -3.17208

No gap

Forces in eV/Ang:
  0 Li    0.01553    0.00510   -0.27297
  1 Li   -0.01414    0.00270   -0.27086
  2 Li   -0.00181   -0.00660   -0.28403
  3 Li    0.01102   -0.00178   -0.27987
  4 Li   -0.00849   -0.00117   -0.27557
  5 Li    0.00010    0.01330   -0.28170
  6 Li    0.00025   -0.00186   -0.27384
  7 Li   -0.00038   -0.00158   -0.27430
  8 Li   -0.00220   -0.00866   -0.26764
  9 Li   -0.00404   -0.00421    0.28463
 10 Li    0.00242    0.01524    0.24495
 11 Li    0.00568   -0.01047    0.28542
 12 Li   -0.01379   -0.00461    0.31632
 13 Li    0.00074   -0.00704    0.22736
 14 Li    0.01060    0.00063    0.30547
 15 Li    0.00224    0.00892    0.25249
 16 Li   -0.00164   -0.00837    0.27219
 17 Li    0.00012    0.01334    0.24423
 18 Li    0.00012    0.00858    0.02786
 19 Li    0.01191    0.00952    0.04468
 20 Li   -0.01185   -0.02534   -0.19792
 21 Li   -0.02681   -0.03485    0.06246
 22 Li    0.03156   -0.03368    0.07813
 23 Li   -0.00647    0.05692   -0.08491
 24 Li   -0.00347    0.02638    0.05765
 25 Li   -0.00165    0.01961    0.04728
 26 Li    0.00409   -0.00371    0.05985
 27 Li    0.01887   -0.08274   -0.06828
 28 Li   -0.01078   -0.06481   -0.16999
 29 Li   -0.04347   -0.14552   -0.15963
 30 Li   -0.17352    0.09946    0.12207
 31 Li   -0.03146    0.04950   -0.16342
 32 Li    0.19137    0.01826   -0.28129
 33 Li    0.02959    0.05716   -0.01975
 34 Li    0.00506   -0.00673   -0.00789
 35 Li   -0.03612    0.05403   -0.03719
 36 O    -0.98247   -0.07061   19.08959
 37 C     0.01283   -0.18528    0.21674
 38 C    -0.02315   -0.10490    0.21761
 39 C    -3.35652   -0.24949    5.61310
 40 C     0.10057    0.04557    0.24921
 41 H    -0.06461   -0.10808   -0.05110
 42 H    -0.08524   -0.07646    0.05557
 43 H     0.06060    0.10923   -0.05017
 44 H    -0.01955    0.04609   -0.05053
 45 H    -1.03146    0.67675    1.39903
 46 H    -0.04884    0.08010   -0.08577
 47 H    -0.04244   -0.01766    0.00019
 48 H     0.00044   -0.04113    0.00954
 49 H    -0.00438    0.02962   -0.03510
 50 H    -1.19648  -10.43119    3.39145
 51 N     2.78797   -3.37524  -17.89871
 52 N     3.95873   13.62976  -11.31711

System changes: positions 

Initializing position-dependent things.

Density initialized from wave functions
       .-----------------------.  
      /|                       |  
     / |                       |  
    /  |                       |  
   /   |                       |  
  /    |                       |  
 *     |                       |  
 |     |                       |  
 |     |                       |  
 |     |                       |  
 |     |                       |  
 |     |                       |  
 |     |                       |  
 |     Li     HLi   H  Li      |  
 |     |HH   C  H   C          |  
 |   Li|  C  LH C   HLO        |  
 |     | H     H     HNN       |  
 |     |  LLi     LLi     LLi  |  
 |     |                       |  
 |     |Li      Li      Li     |  
 |   Li|     Li      Li        |  
 |    Li  Li  Li  Li  Li  Li   |  
 | Li  |   Li      Li          |  
 |     |Li      Li      Li     |  
 Li    | Li      Li            |  
 |    Li      Li      Li       |  
 |     |                       |  
 |     |                       |  
 |     |                       |  
 |     |                       |  
 |     |                       |  
 |     |                       |  
 |     .-----------------------.  
 |    /                       /   
 |   /                       /    
 |  /                       /     
 | /                       /      
 |/                       /       
 *-----------------------*        

Positions:
   0 Li     1.617037    1.617037   10.000000    ( 0.0000,  0.0000,  0.0000)
   1 Li     4.851111    1.617037   10.000000    ( 0.0000,  0.0000,  0.0000)
   2 Li     8.085185    1.617037   10.000000    ( 0.0000,  0.0000,  0.0000)
   3 Li     1.617037    4.851111   10.000000    ( 0.0000,  0.0000,  0.0000)
   4 Li     4.851111    4.851111   10.000000    ( 0.0000,  0.0000,  0.0000)
   5 Li     8.085185    4.851111   10.000000    ( 0.0000,  0.0000,  0.0000)
   6 Li     1.617037    8.085185   10.000000    ( 0.0000,  0.0000,  0.0000)
   7 Li     4.851111    8.085185   10.000000    ( 0.0000,  0.0000,  0.0000)
   8 Li     8.085185    8.085185   10.000000    ( 0.0000,  0.0000,  0.0000)
   9 Li     0.000000    0.000000   11.617037    ( 0.0000,  0.0000,  0.0000)
  10 Li     3.234074    0.000000   11.617037    ( 0.0000,  0.0000,  0.0000)
  11 Li     6.468148    0.000000   11.617037    ( 0.0000,  0.0000,  0.0000)
  12 Li     0.000000    3.234074   11.617037    ( 0.0000,  0.0000,  0.0000)
  13 Li     3.234074    3.234074   11.617037    ( 0.0000,  0.0000,  0.0000)
  14 Li     6.468148    3.234074   11.617037    ( 0.0000,  0.0000,  0.0000)
  15 Li     0.000000    6.468148   11.617037    ( 0.0000,  0.0000,  0.0000)
  16 Li     3.234074    6.468148   11.617037    ( 0.0000,  0.0000,  0.0000)
  17 Li     6.468148    6.468148   11.617037    ( 0.0000,  0.0000,  0.0000)
  18 Li     1.617038    1.617056   13.469786    ( 0.0000,  0.0000,  0.0000)
  19 Li     4.851136    1.617058   13.469823    ( 0.0000,  0.0000,  0.0000)
  20 Li     8.085159    1.616985   13.469314    ( 0.0000,  0.0000,  0.0000)
  21 Li     1.616982    4.851038   13.469860    ( 0.0000,  0.0000,  0.0000)
  22 Li     4.851177    4.851041   13.469894    ( 0.0000,  0.0000,  0.0000)
  23 Li     8.085170    4.851230   13.469552    ( 0.0000,  0.0000,  0.0000)
  24 Li     1.617031    8.085239   13.469848    ( 0.0000,  0.0000,  0.0000)
  25 Li     4.851108    8.085225   13.469828    ( 0.0000,  0.0000,  0.0000)
  26 Li     8.085192    8.085176   13.469853    ( 0.0000,  0.0000,  0.0000)
  27 Li     0.000039   -0.000173   15.445796    ( 0.0000,  0.0000,  0.0000)
  28 Li     3.234051   -0.000136   15.445583    ( 0.0000,  0.0000,  0.0000)
  29 Li     6.468057   -0.000305   15.445605    ( 0.0000,  0.0000,  0.0000)
  30 Li    -0.000363    3.234282   15.446194    ( 0.0000,  0.0000,  0.0000)
  31 Li     3.234011    3.234180   15.445596    ( 0.0000,  0.0000,  0.0000)
  32 Li     6.468546    3.234115   15.445349    ( 0.0000,  0.0000,  0.0000)
  33 Li     0.000062    6.468268   15.445897    ( 0.0000,  0.0000,  0.0000)
  34 Li     3.234087    6.468131   15.445922    ( 0.0000,  0.0000,  0.0000)
  35 Li     6.468070    6.468259   15.445860    ( 0.0000,  0.0000,  0.0000)
  36 O      8.083129    1.616889   18.485886    ( 0.0000,  0.0000,  0.0000)
  37 C      5.618153    1.604308   18.482219    ( 0.0000,  0.0000,  0.0000)
  38 C      4.348516    2.459529   18.468810    ( 0.0000,  0.0000,  0.0000)
  39 C      6.893678    2.426994   18.457893    ( 0.0000,  0.0000,  0.0000)
  40 C      3.076065    1.608858   18.453247    ( 0.0000,  0.0000,  0.0000)
  41 H      5.632789    0.971301   19.375152    ( 0.0000,  0.0000,  0.0000)
  42 H      5.604631    0.934348   17.610525    ( 0.0000,  0.0000,  0.0000)
  43 H      4.361653    3.119052   17.592040    ( 0.0000,  0.0000,  0.0000)
  44 H      4.343621    3.116008   19.346219    ( 0.0000,  0.0000,  0.0000)
  45 H      6.891990    3.094499   17.574935    ( 0.0000,  0.0000,  0.0000)
  46 H      6.985116    3.050998   19.340585    ( 0.0000,  0.0000,  0.0000)
  47 H      3.048179    0.966245   17.568683    ( 0.0000,  0.0000,  0.0000)
  48 H      3.030538    0.958663   19.330197    ( 0.0000,  0.0000,  0.0000)
  49 H      2.172671    2.222550   18.446507    ( 0.0000,  0.0000,  0.0000)
  50 H      8.033371    1.006109   17.690857    ( 0.0000,  0.0000,  0.0000)
  51 N      8.090834    1.609937   16.908485    ( 0.0000,  0.0000,  0.0000)
  52 N      8.093284    2.742144   16.922257    ( 0.0000,  0.0000,  0.0000)

Unit cell:
           periodic     x           y           z      points  spacing
  1. axis:    yes    9.702222    0.000000    0.000000    60     0.1617
  2. axis:    yes    0.000000    9.702222    0.000000    60     0.1617
  3. axis:    no     0.000000    0.000000   26.351111   164     0.1607

  Lengths:   9.702222   9.702222  26.351111
  Angles:   90.000000  90.000000  90.000000

Effective grid spacing dv^(1/3) = 0.1614

     iter     time        total  log10-change:
                         energy  eigst   dens
iter:   1 10:17:48  -351.192390  -0.35
iter:   2 10:17:55  -350.364396  -0.45  -1.37
iter:   3 10:18:03  -350.241206  -0.97  -1.34
iter:   4 10:18:10  -350.057652  -0.76  -1.51
Writing to output.gpw (mode='')

iter:   5 10:18:18  -349.970876  -1.60  -1.71
iter:   6 10:18:25  -350.658155  -0.74  -2.04
iter:   7 10:18:33  -350.004885  -1.05  -1.44
iter:   8 10:18:40  -349.936910  -1.04  -1.68
iter:   9 10:18:48  -349.934731  -1.69  -2.13
Writing to output.gpw (mode='')

iter:  10 10:18:55  -349.927913c -2.21  -2.18
iter:  11 10:19:03  -349.943269c -1.77  -2.12
iter:  12 10:19:10  -349.920700c -2.29  -2.10
iter:  13 10:19:18  -349.920347c -2.72  -2.62
iter:  14 10:19:25  -349.919203c -2.96  -2.70
Writing to output.gpw (mode='')

iter:  15 10:19:33  -349.918986c -3.34  -2.80
iter:  16 10:19:40  -349.918740c -3.02  -2.86
iter:  17 10:19:48  -349.918703c -3.77  -2.90
iter:  18 10:19:55  -349.919355c -3.44  -2.97
iter:  19 10:20:03  -349.919005c -3.95  -3.03
Writing to output.gpw (mode='')

iter:  20 10:20:10  -349.918910c -4.26  -3.16
iter:  21 10:20:18  -349.918743c -3.68  -3.21
iter:  22 10:20:25  -349.918790c -4.44  -3.28
iter:  23 10:20:33  -349.918848c -4.62  -3.35
iter:  24 10:20:41  -349.918715c -4.57  -3.48
Writing to output.gpw (mode='')

iter:  25 10:20:51  -349.918793c -4.54  -3.45
iter:  26 10:21:00  -349.918802c -4.64  -3.90
iter:  27 10:21:10  -349.918782c -4.96  -4.02c
iter:  28 10:21:22  -349.918821c -5.26  -3.98
iter:  29 10:21:31  -349.918821c -5.32  -4.39c
Writing to output.gpw (mode='')

iter:  30 10:21:39  -349.918823c -5.24  -4.41c
iter:  31 10:21:46  -349.918813c -5.52  -4.42c
iter:  32 10:21:54  -349.918823c -5.49  -4.39c
iter:  33 10:22:01  -349.918822c -5.91  -4.50c
iter:  34 10:22:09  -349.918821c -5.73  -4.52c
Writing to output.gpw (mode='')

iter:  35 10:22:16  -349.918823c -5.94  -4.61c
iter:  36 10:22:24  -349.918823c -6.38  -4.70c
iter:  37 10:22:31  -349.918822c -5.97  -4.68c
iter:  38 10:22:39  -349.918821c -6.43  -4.57c
iter:  39 10:22:46  -349.918823c -6.22  -4.56c
Writing to output.gpw (mode='')

iter:  40 10:22:54  -349.918822c -6.39  -4.55c
iter:  41 10:23:01  -349.918828c -6.49  -4.52c
iter:  42 10:23:09  -349.918821c -6.57  -4.58c
iter:  43 10:23:17  -349.918822c -6.98  -4.69c
iter:  44 10:23:24  -349.918822c -6.66  -4.61c
Writing to output.gpw (mode='')

iter:  45 10:23:32  -349.918825c -6.90  -4.68c
iter:  46 10:23:39  -349.918825c -6.89  -4.79c
iter:  47 10:23:47  -349.918825c -6.93  -4.88c
iter:  48 10:23:54  -349.918824c -7.09  -4.93c
iter:  49 10:24:02  -349.918826c -7.43c -5.10c

Converged after 49 iterations.

Dipole moment: (-2.741127, -4.509178, 0.173233) |e|*Ang

Energy contributions relative to reference atoms: (reference = -16540.070923)

Kinetic:       +229.818166
Potential:     -208.005034
External:        +0.000000
XC:            -372.476451
Entropy (-ST):   -0.179884
Local:           +0.834435
--------------------------
Free energy:   -350.008768
Extrapolated:  -349.918826

Dipole-layer corrected work functions: 3.409139, 3.076126 eV

Showing only first 2 kpts
 Kpt  Band  Eigenvalues  Occupancy
  0    37     -3.47117    1.97951
  0    38     -3.38119    1.88219
  0    39     -3.17334    0.40011
  0    40     -2.99256    0.01337

  1    37     -3.29206    1.45756
  1    38     -3.22808    0.85548
  1    39     -3.18453    0.47662
  1    40     -3.11258    0.13814


Fermi level: -3.24263

No gap
Writing to output.gpw (mode='')


Forces in eV/Ang:
  0 Li    0.01626    0.00565   -0.27400
  1 Li   -0.01434    0.00262   -0.27178
  2 Li   -0.00205   -0.00636   -0.28446
  3 Li    0.01211   -0.00000   -0.28142
  4 Li   -0.00969    0.00029   -0.27590
  5 Li    0.00046    0.01335   -0.28206
  6 Li    0.00143   -0.00286   -0.27426
  7 Li   -0.00152   -0.00223   -0.27559
  8 Li   -0.00232   -0.00915   -0.26787
  9 Li   -0.00496   -0.00256    0.28812
 10 Li    0.00326    0.01395    0.24502
 11 Li    0.00629   -0.00925    0.28796
 12 Li   -0.01450   -0.00543    0.32135
 13 Li    0.00126   -0.00680    0.22712
 14 Li    0.01038    0.00048    0.30813
 15 Li    0.00190    0.00815    0.25144
 16 Li   -0.00205   -0.00909    0.26904
 17 Li    0.00113    0.01417    0.24372
 18 Li    0.00603    0.00839    0.01672
 19 Li    0.00711    0.00898    0.03379
 20 Li   -0.01355   -0.02507   -0.18799
 21 Li   -0.02642   -0.03674    0.06145
 22 Li    0.03136   -0.03436    0.07535
 23 Li   -0.00739    0.05799   -0.08963
 24 Li   -0.00625    0.02767    0.05960
 25 Li   -0.00046    0.01838    0.04754
 26 Li    0.00445   -0.00716    0.05469
 27 Li   -0.01747   -0.04240   -0.02042
 28 Li   -0.01055   -0.06628   -0.16434
 29 Li   -0.01995   -0.11040   -0.11849
 30 Li   -0.19392    0.07645    0.17438
 31 Li   -0.03027    0.05134   -0.15648
 32 Li    0.21028   -0.02602   -0.21003
 33 Li    0.03317    0.05711   -0.02233
 34 Li    0.00427   -0.00503   -0.01017
 35 Li   -0.03826    0.05013   -0.03877
 36 O    -1.51655   -0.35552   14.90922
 37 C    -0.12755   -0.14364    0.24990
 38 C    -0.04402   -0.13632    0.18907
 39 C    -2.41619   -0.60571    4.89486
 40 C     0.07466    0.06671    0.22448
 41 H    -0.08060   -0.12367   -0.04111
 42 H    -0.05793   -0.05973    0.05889
 43 H     0.05665    0.10262   -0.03975
 44 H    -0.01930    0.04545   -0.04610
 45 H    -0.81175    0.52857    1.38062
 46 H    -0.13601    0.28095    0.14893
 47 H    -0.03836   -0.01877    0.00446
 48 H    -0.00090   -0.04152    0.01221
 49 H    -0.01169    0.01993   -0.02854
 50 H    -0.78134   -6.89700    3.05668
 51 N     2.44171   -0.90256  -14.95420
 52 N     3.50751    8.29272   -9.49581

System changes: positions 

Initializing position-dependent things.

Density initialized from wave functions
       .-----------------------.  
      /|                       |  
     / |                       |  
    /  |                       |  
   /   |                       |  
  /    |                       |  
 *     |                       |  
 |     |                       |  
 |     |                       |  
 |     |                       |  
 |     |                       |  
 |     |                       |  
 |     |                       |  
 |     |      HLi   H  Li      Li 
 |     |HH   C  H   C          |  
 |   Li|  C  LH C   HLO        |  
 |     | H     H     H N       |  
 |     |  LLi     LLi N   LLi  |  
 |     |                       |  
 |     |Li      Li      Li     |  
 |   Li|     Li      Li        |  
 |    Li  Li  Li  Li  Li  Li   |  
 | Li  |   Li      Li          |  
 |     |Li      Li      Li     |  
 Li    | Li      Li            |  
 |    Li      Li      Li       |  
 |     |                       |  
 |     |                       |  
 |     |                       |  
 |     |                       |  
 |     |                       |  
 |     |                       |  
 |     .-----------------------.  
 |    /                       /   
 |   /                       /    
 |  /                       /     
 | /                       /      
 |/                       /       
 *-----------------------*        

Positions:
   0 Li     1.617037    1.617037   10.000000    ( 0.0000,  0.0000,  0.0000)
   1 Li     4.851111    1.617037   10.000000    ( 0.0000,  0.0000,  0.0000)
   2 Li     8.085185    1.617037   10.000000    ( 0.0000,  0.0000,  0.0000)
   3 Li     1.617037    4.851111   10.000000    ( 0.0000,  0.0000,  0.0000)
   4 Li     4.851111    4.851111   10.000000    ( 0.0000,  0.0000,  0.0000)
   5 Li     8.085185    4.851111   10.000000    ( 0.0000,  0.0000,  0.0000)
   6 Li     1.617037    8.085185   10.000000    ( 0.0000,  0.0000,  0.0000)
   7 Li     4.851111    8.085185   10.000000    ( 0.0000,  0.0000,  0.0000)
   8 Li     8.085185    8.085185   10.000000    ( 0.0000,  0.0000,  0.0000)
   9 Li     0.000000    0.000000   11.617037    ( 0.0000,  0.0000,  0.0000)
  10 Li     3.234074    0.000000   11.617037    ( 0.0000,  0.0000,  0.0000)
  11 Li     6.468148    0.000000   11.617037    ( 0.0000,  0.0000,  0.0000)
  12 Li     0.000000    3.234074   11.617037    ( 0.0000,  0.0000,  0.0000)
  13 Li     3.234074    3.234074   11.617037    ( 0.0000,  0.0000,  0.0000)
  14 Li     6.468148    3.234074   11.617037    ( 0.0000,  0.0000,  0.0000)
  15 Li     0.000000    6.468148   11.617037    ( 0.0000,  0.0000,  0.0000)
  16 Li     3.234074    6.468148   11.617037    ( 0.0000,  0.0000,  0.0000)
  17 Li     6.468148    6.468148   11.617037    ( 0.0000,  0.0000,  0.0000)
  18 Li     1.617094    1.617086   13.469784    ( 0.0000,  0.0000,  0.0000)
  19 Li     4.851135    1.617088   13.469885    ( 0.0000,  0.0000,  0.0000)
  20 Li     8.085100    1.616895   13.468684    ( 0.0000,  0.0000,  0.0000)
  21 Li     1.616888    4.850893   13.470078    ( 0.0000,  0.0000,  0.0000)
  22 Li     4.851290    4.850911   13.470153    ( 0.0000,  0.0000,  0.0000)
  23 Li     8.085138    4.851448   13.469198    ( 0.0000,  0.0000,  0.0000)
  24 Li     1.616992    8.085347   13.470077    ( 0.0000,  0.0000,  0.0000)
  25 Li     4.851113    8.085285   13.470003    ( 0.0000,  0.0000,  0.0000)
  26 Li     8.085211    8.085131   13.470023    ( 0.0000,  0.0000,  0.0000)
  27 Li    -0.000229   -0.000100   15.445992    ( 0.0000,  0.0000,  0.0000)
  28 Li     3.234014   -0.000386   15.445016    ( 0.0000,  0.0000,  0.0000)
  29 Li     6.468117   -0.000509   15.445405    ( 0.0000,  0.0000,  0.0000)
  30 Li    -0.001185    3.234431   15.447125    ( 0.0000,  0.0000,  0.0000)
  31 Li     3.233907    3.234378   15.445065    ( 0.0000,  0.0000,  0.0000)
  32 Li     6.469419    3.233770   15.444985    ( 0.0000,  0.0000,  0.0000)
  33 Li     0.000203    6.468476   15.445802    ( 0.0000,  0.0000,  0.0000)
  34 Li     3.234098    6.468123   15.445872    ( 0.0000,  0.0000,  0.0000)
  35 Li     6.467918    6.468419   15.445710    ( 0.0000,  0.0000,  0.0000)
  36 O      8.074590    1.613987   18.516684    ( 0.0000,  0.0000,  0.0000)
  37 C      5.616897    1.604019   18.483317    ( 0.0000,  0.0000,  0.0000)
  38 C      4.348238    2.458854   18.469338    ( 0.0000,  0.0000,  0.0000)
  39 C      6.890169    2.422778   18.471691    ( 0.0000,  0.0000,  0.0000)
  40 C      3.076191    1.609220   18.453926    ( 0.0000,  0.0000,  0.0000)
  41 H      5.632405    0.970762   19.375058    ( 0.0000,  0.0000,  0.0000)
  42 H      5.604574    0.934225   17.610759    ( 0.0000,  0.0000,  0.0000)
  43 H      4.361837    3.119389   17.591954    ( 0.0000,  0.0000,  0.0000)
  44 H      4.343552    3.116170   19.346076    ( 0.0000,  0.0000,  0.0000)
  45 H      6.890268    3.095591   17.579865    ( 0.0000,  0.0000,  0.0000)
  46 H      6.984129    3.053154   19.342451    ( 0.0000,  0.0000,  0.0000)
  47 H      3.048062    0.966170   17.568723    ( 0.0000,  0.0000,  0.0000)
  48 H      3.030527    0.958509   19.330257    ( 0.0000,  0.0000,  0.0000)
  49 H      2.172587    2.222568   18.446440    ( 0.0000,  0.0000,  0.0000)
  50 H      8.032862    1.000881   17.700114    ( 0.0000,  0.0000,  0.0000)
  51 N      8.097785    1.620581   16.870558    ( 0.0000,  0.0000,  0.0000)
  52 N      8.103529    2.742300   16.897901    ( 0.0000,  0.0000,  0.0000)

Unit cell:
           periodic     x           y           z      points  spacing
  1. axis:    yes    9.702222    0.000000    0.000000    60     0.1617
  2. axis:    yes    0.000000    9.702222    0.000000    60     0.1617
  3. axis:    no     0.000000    0.000000   26.351111   164     0.1607

  Lengths:   9.702222   9.702222  26.351111
  Angles:   90.000000  90.000000  90.000000

Effective grid spacing dv^(1/3) = 0.1614

     iter     time        total  log10-change:
                         energy  eigst   dens
iter:   1 10:24:12  -351.372419  -0.72
iter:   2 10:24:19  -351.353836  -1.03  -1.84
iter:   3 10:24:27  -351.331091  -1.57  -1.77
iter:   4 10:24:34  -351.300746  -1.63  -2.02
Writing to output.gpw (mode='')

iter:   5 10:24:42  -351.297565c -1.92  -2.20
iter:   6 10:24:49  -351.287429c -1.90  -2.13
iter:   7 10:24:57  -351.282535c -2.50  -2.27
iter:   8 10:25:04  -351.277621c -2.06  -2.43
iter:   9 10:25:11  -351.277447c -2.32  -2.60
Writing to output.gpw (mode='')

iter:  10 10:25:19  -351.278098c -2.56  -2.77
iter:  11 10:25:26  -351.277429c -3.15  -2.82
iter:  12 10:25:34  -351.277316c -3.10  -2.89
iter:  13 10:25:41  -351.278358c -2.87  -2.98
iter:  14 10:25:49  -351.277840c -3.48  -2.89
Writing to output.gpw (mode='')

iter:  15 10:25:56  -351.277646c -3.62  -3.21
iter:  16 10:26:04  -351.277592c -3.53  -3.30
iter:  17 10:26:11  -351.277584c -3.91  -3.46
iter:  18 10:26:26  -351.277750c -3.98  -3.41
iter:  19 10:26:33  -351.277706c -4.56  -3.59
Writing to output.gpw (mode='')

iter:  20 10:26:40  -351.277649c -4.73  -3.73
iter:  21 10:26:48  -351.277644c -4.48  -3.85
iter:  22 10:26:55  -351.277672c -4.56  -3.93
iter:  23 10:27:03  -351.277669c -4.86  -3.88
iter:  24 10:27:10  -351.277663c -4.71  -3.97
Writing to output.gpw (mode='')

iter:  25 10:27:18  -351.277667c -5.22  -4.03c
iter:  26 10:27:25  -351.277700c -5.12  -4.05c
iter:  27 10:27:33  -351.277673c -5.28  -4.11c
iter:  28 10:27:40  -351.277678c -5.05  -4.22c
iter:  29 10:27:48  -351.277680c -5.70  -4.11c
Writing to output.gpw (mode='')

iter:  30 10:27:55  -351.277683c -5.33  -4.16c
iter:  31 10:28:02  -351.277672c -5.64  -4.50c
iter:  32 10:28:10  -351.277676c -6.05  -4.78c
iter:  33 10:28:17  -351.277674c -5.92  -4.79c
iter:  34 10:28:25  -351.277679c -5.90  -4.88c
Writing to output.gpw (mode='')

iter:  35 10:28:32  -351.277675c -6.03  -4.84c
iter:  36 10:28:40  -351.277675c -5.87  -5.01c
iter:  37 10:28:47  -351.277675c -6.02  -4.94c
iter:  38 10:28:55  -351.277675c -6.56  -4.79c
iter:  39 10:29:02  -351.277675c -6.41  -5.08c
Writing to output.gpw (mode='')

iter:  40 10:29:10  -351.277675c -6.55  -5.07c
iter:  41 10:29:17  -351.277674c -6.94  -4.96c
iter:  42 10:29:25  -351.277675c -6.60  -4.94c
iter:  43 10:29:32  -351.277676c -6.99  -4.74c
iter:  44 10:29:40  -351.277675c -7.02  -4.85c
Writing to output.gpw (mode='')

iter:  45 10:29:47  -351.277677c -6.97  -5.03c
iter:  46 10:29:55  -351.277676c -7.25  -5.24c
iter:  47 10:30:02  -351.277676c -7.08  -5.44c
iter:  48 10:30:10  -351.277677c -7.15  -5.62c
iter:  49 10:30:17  -351.277676c -7.34  -5.63c
Writing to output.gpw (mode='')

iter:  50 10:30:25  -351.277676c -7.61c -5.72c

Converged after 50 iterations.

Dipole moment: (-2.739084, -4.446260, 0.145112) |e|*Ang

Energy contributions relative to reference atoms: (reference = -16540.070923)

Kinetic:       +225.696653
Potential:     -205.897033
External:        +0.000000
XC:            -371.826119
Entropy (-ST):   -0.177629
Local:           +0.837637
--------------------------
Free energy:   -351.366491
Extrapolated:  -351.277676

Dipole-layer corrected work functions: 3.411114, 3.132158 eV

Showing only first 2 kpts
 Kpt  Band  Eigenvalues  Occupancy
  0    37     -3.50225    1.98034
  0    38     -3.41006    1.88190
  0    39     -3.19798    0.37295
  0    40     -3.01662    0.01212

  1    37     -3.33316    1.54781
  1    38     -3.25565    0.84145
  1    39     -3.21887    0.51644
  1    40     -3.13815    0.12957


Fermi level: -3.27164

No gap

Forces in eV/Ang:
  0 Li    0.01806    0.00630   -0.27425
  1 Li   -0.01548    0.00252   -0.27215
  2 Li   -0.00219   -0.00676   -0.28411
  3 Li    0.01155    0.00096   -0.28203
  4 Li   -0.00960    0.00075   -0.27533
  5 Li    0.00070    0.01505   -0.28169
  6 Li    0.00132   -0.00250   -0.27484
  7 Li   -0.00156   -0.00150   -0.27681
  8 Li   -0.00243   -0.01082   -0.26831
  9 Li   -0.00467   -0.00253    0.28728
 10 Li    0.00307    0.01417    0.24539
 11 Li    0.00630   -0.00883    0.28734
 12 Li   -0.01591   -0.00570    0.32441
 13 Li    0.00168   -0.00736    0.22678
 14 Li    0.01083    0.00029    0.30902
 15 Li    0.00164    0.00853    0.25030
 16 Li   -0.00136   -0.01143    0.26793
 17 Li    0.00156    0.01659    0.24218
 18 Li    0.00430    0.00889    0.01826
 19 Li    0.00815    0.00857    0.03362
 20 Li   -0.01437   -0.02836   -0.19023
 21 Li   -0.02626   -0.03843    0.06337
 22 Li    0.03264   -0.03498    0.07459
 23 Li   -0.00862    0.05606   -0.08387
 24 Li   -0.00674    0.02735    0.05967
 25 Li   -0.00094    0.01591    0.04671
 26 Li    0.00457   -0.00625    0.05326
 27 Li   -0.02050   -0.04535   -0.02250
 28 Li   -0.01045   -0.06375   -0.15999
 29 Li   -0.02262   -0.11297   -0.12291
 30 Li   -0.15467    0.09098    0.14365
 31 Li   -0.03057    0.04982   -0.15145
 32 Li    0.16189   -0.03230   -0.21229
 33 Li    0.03113    0.05538   -0.02361
 34 Li    0.00259   -0.00397   -0.01049
 35 Li   -0.03459    0.04209   -0.03721
 36 O    -1.82912   -0.71740   12.44542
 37 C    -0.20633   -0.11482    0.28056
 38 C    -0.06571   -0.11450    0.16062
 39 C    -1.84763   -0.64131    4.12607
 40 C     0.05292    0.05318    0.19560
 41 H    -0.09899   -0.14578   -0.02924
 42 H    -0.03460   -0.04454    0.05955
 43 H     0.05442    0.08288   -0.01960
 44 H    -0.01881    0.04197   -0.04275
 45 H    -0.72349    0.37396    1.53373
 46 H    -0.18475    0.39682    0.31581
 47 H    -0.03655   -0.00914    0.01903
 48 H    -0.00296   -0.04133    0.01696
 49 H    -0.01570    0.01768   -0.02389
 50 H    -0.47420   -4.56837    2.79372
 51 N     2.27699   -2.71036  -13.10280
 52 N     3.29095    8.14457   -8.12951

System changes: positions 

Initializing position-dependent things.

Density initialized from wave functions
       .-----------------------.  
      /|                       |  
     / |                       |  
    /  |                       |  
   /   |                       |  
  /    |                       |  
 *     |                       |  
 |     |                       |  
 |     |                       |  
 |     |                       |  
 |     |                       |  
 |     |                       |  
 |     |                       |  
 |     |      HLi   H  Li      Li 
 |     |HH   C  H   C O        |  
 |   Li|  C  LH C   HLi        |  
 |     | H     H     H N       |  
 |     |  LLi     LLi N   LLi  |  
 |     |                       |  
 |     |Li      Li      Li     |  
 |   Li|     Li      Li        |  
 |    Li  Li  Li  Li  Li  Li   |  
 | Li  |   Li      Li          |  
 |     |Li      Li      Li     |  
 Li    | Li      Li            |  
 |    Li      Li      Li       |  
 |     |                       |  
 |     |                       |  
 |     |                       |  
 |     |                       |  
 |     |                       |  
 |     |                       |  
 |     .-----------------------.  
 |    /                       /   
 |   /                       /    
 |  /                       /     
 | /                       /      
 |/                       /       
 *-----------------------*        

Positions:
   0 Li     1.617037    1.617037   10.000000    ( 0.0000,  0.0000,  0.0000)
   1 Li     4.851111    1.617037   10.000000    ( 0.0000,  0.0000,  0.0000)
   2 Li     8.085185    1.617037   10.000000    ( 0.0000,  0.0000,  0.0000)
   3 Li     1.617037    4.851111   10.000000    ( 0.0000,  0.0000,  0.0000)
   4 Li     4.851111    4.851111   10.000000    ( 0.0000,  0.0000,  0.0000)
   5 Li     8.085185    4.851111   10.000000    ( 0.0000,  0.0000,  0.0000)
   6 Li     1.617037    8.085185   10.000000    ( 0.0000,  0.0000,  0.0000)
   7 Li     4.851111    8.085185   10.000000    ( 0.0000,  0.0000,  0.0000)
   8 Li     8.085185    8.085185   10.000000    ( 0.0000,  0.0000,  0.0000)
   9 Li     0.000000    0.000000   11.617037    ( 0.0000,  0.0000,  0.0000)
  10 Li     3.234074    0.000000   11.617037    ( 0.0000,  0.0000,  0.0000)
  11 Li     6.468148    0.000000   11.617037    ( 0.0000,  0.0000,  0.0000)
  12 Li     0.000000    3.234074   11.617037    ( 0.0000,  0.0000,  0.0000)
  13 Li     3.234074    3.234074   11.617037    ( 0.0000,  0.0000,  0.0000)
  14 Li     6.468148    3.234074   11.617037    ( 0.0000,  0.0000,  0.0000)
  15 Li     0.000000    6.468148   11.617037    ( 0.0000,  0.0000,  0.0000)
  16 Li     3.234074    6.468148   11.617037    ( 0.0000,  0.0000,  0.0000)
  17 Li     6.468148    6.468148   11.617037    ( 0.0000,  0.0000,  0.0000)
  18 Li     1.617140    1.617131   13.469818    ( 0.0000,  0.0000,  0.0000)
  19 Li     4.851152    1.617125   13.469987    ( 0.0000,  0.0000,  0.0000)
  20 Li     8.085015    1.616740   13.467791    ( 0.0000,  0.0000,  0.0000)
  21 Li     1.616762    4.850684   13.470395    ( 0.0000,  0.0000,  0.0000)
  22 Li     4.851457    4.850732   13.470501    ( 0.0000,  0.0000,  0.0000)
  23 Li     8.085084    4.851721   13.468786    ( 0.0000,  0.0000,  0.0000)
  24 Li     1.616941    8.085488   13.470383    ( 0.0000,  0.0000,  0.0000)
  25 Li     4.851112    8.085344   13.470231    ( 0.0000,  0.0000,  0.0000)
  26 Li     8.085236    8.085084   13.470249    ( 0.0000,  0.0000,  0.0000)
  27 Li    -0.000556   -0.000106   15.446147    ( 0.0000,  0.0000,  0.0000)
  28 Li     3.233964   -0.000696   15.444281    ( 0.0000,  0.0000,  0.0000)
  29 Li     6.468128   -0.000876   15.445014    ( 0.0000,  0.0000,  0.0000)
  30 Li    -0.001868    3.234820   15.447981    ( 0.0000,  0.0000,  0.0000)
  31 Li     3.233761    3.234626   15.444383    ( 0.0000,  0.0000,  0.0000)
  32 Li     6.470082    3.233322   15.444339    ( 0.0000,  0.0000,  0.0000)
  33 Li     0.000367    6.468740   15.445664    ( 0.0000,  0.0000,  0.0000)
  34 Li     3.234098    6.468118   15.445805    ( 0.0000,  0.0000,  0.0000)
  35 Li     6.467754    6.468564   15.445525    ( 0.0000,  0.0000,  0.0000)
  36 O      8.060882    1.606960   18.541407    ( 0.0000,  0.0000,  0.0000)
  37 C      5.614665    1.603840   18.485049    ( 0.0000,  0.0000,  0.0000)
  38 C      4.347683    2.458218   18.469822    ( 0.0000,  0.0000,  0.0000)
  39 C      6.889379    2.417369   18.483998    ( 0.0000,  0.0000,  0.0000)
  40 C      3.076192    1.609536   18.454602    ( 0.0000,  0.0000,  0.0000)
  41 H      5.631731    0.969840   19.375032    ( 0.0000,  0.0000,  0.0000)
  42 H      5.604679    0.934179   17.611075    ( 0.0000,  0.0000,  0.0000)
  43 H      4.362071    3.119660   17.592020    ( 0.0000,  0.0000,  0.0000)
  44 H      4.343463    3.116356   19.345908    ( 0.0000,  0.0000,  0.0000)
  45 H      6.888417    3.095794   17.588106    ( 0.0000,  0.0000,  0.0000)
  46 H      6.982464    3.056864   19.346216    ( 0.0000,  0.0000,  0.0000)
  47 H      3.047915    0.966168   17.568916    ( 0.0000,  0.0000,  0.0000)
  48 H      3.030494    0.958304   19.330380    ( 0.0000,  0.0000,  0.0000)
  49 H      2.172447    2.222587   18.446384    ( 0.0000,  0.0000,  0.0000)
  50 H      8.034484    1.010613   17.710632    ( 0.0000,  0.0000,  0.0000)
  51 N      8.106184    1.612354   16.832325    ( 0.0000,  0.0000,  0.0000)
  52 N      8.116062    2.750840   16.875252    ( 0.0000,  0.0000,  0.0000)

Unit cell:
           periodic     x           y           z      points  spacing
  1. axis:    yes    9.702222    0.000000    0.000000    60     0.1617
  2. axis:    yes    0.000000    9.702222    0.000000    60     0.1617
  3. axis:    no     0.000000    0.000000   26.351111   164     0.1607

  Lengths:   9.702222   9.702222  26.351111
  Angles:   90.000000  90.000000  90.000000

Effective grid spacing dv^(1/3) = 0.1614

     iter     time        total  log10-change:
                         energy  eigst   dens
iter:   1 10:30:34  -352.601313  -0.83
iter:   2 10:30:42  -352.646380  -1.09  -1.61
iter:   3 10:30:50  -352.461318  -1.19  -1.51
iter:   4 10:30:57  -352.443904  -1.80  -1.92
Writing to output.gpw (mode='')

iter:   5 10:31:05  -352.451946c -1.52  -2.22
iter:   6 10:31:12  -352.438954c -1.84  -2.02
iter:   7 10:31:26  -352.440630c -2.06  -2.30
iter:   8 10:31:33  -352.440582c -2.22  -2.45
iter:   9 10:31:41  -352.435957c -2.60  -2.41
Writing to output.gpw (mode='')

iter:  10 10:31:48  -352.436342c -3.21  -2.70
iter:  11 10:31:56  -352.435967c -2.94  -2.82
iter:  12 10:32:04  -352.436296c -3.04  -2.97
iter:  13 10:32:11  -352.436050c -3.44  -3.14
iter:  14 10:32:19  -352.436240c -3.61  -3.23
Writing to output.gpw (mode='')

iter:  15 10:32:26  -352.436319c -3.81  -3.40
iter:  16 10:32:34  -352.436312c -3.86  -3.54
iter:  17 10:32:41  -352.436438c -4.09  -3.61
iter:  18 10:32:49  -352.436364c -3.98  -3.53
iter:  19 10:32:56  -352.436378c -4.06  -3.70
Writing to output.gpw (mode='')

iter:  20 10:33:04  -352.436385c -4.50  -3.74
iter:  21 10:33:11  -352.436374c -4.13  -3.73
iter:  22 10:33:19  -352.436357c -4.39  -3.63
iter:  23 10:33:27  -352.436373c -4.47  -3.68
iter:  24 10:33:36  -352.436373c -4.89  -3.74
Writing to output.gpw (mode='')

iter:  25 10:33:44  -352.436366c -4.69  -3.70
iter:  26 10:33:52  -352.436394c -4.72  -3.74
iter:  27 10:33:59  -352.436455c -4.75  -3.61
iter:  28 10:34:07  -352.436440c -5.00  -3.76
iter:  29 10:34:14  -352.436446c -5.38  -3.78
Writing to output.gpw (mode='')

iter:  30 10:34:22  -352.436434c -5.10  -3.80
iter:  31 10:34:30  -352.436419c -5.50  -3.84
iter:  32 10:34:37  -352.436423c -5.58  -4.17c
iter:  33 10:34:45  -352.436425c -5.45  -4.22c
iter:  34 10:34:52  -352.436423c -5.76  -4.23c
Writing to output.gpw (mode='')

iter:  35 10:35:00  -352.436420c -6.12  -4.35c
iter:  36 10:35:07  -352.436423c -5.98  -4.39c
iter:  37 10:35:15  -352.436417c -6.02  -4.44c
iter:  38 10:35:23  -352.436422c -6.25  -4.55c
iter:  39 10:35:30  -352.436423c -6.35  -4.58c
Writing to output.gpw (mode='')

iter:  40 10:35:38  -352.436420c -6.33  -4.70c
iter:  41 10:35:45  -352.436420c -6.67  -4.77c
iter:  42 10:35:53  -352.436421c -6.63  -4.98c
iter:  43 10:36:00  -352.436419c -6.84  -5.18c
iter:  44 10:36:08  -352.436420c -6.84  -5.24c
Writing to output.gpw (mode='')

iter:  45 10:36:22  -352.436420c -6.89  -5.27c
iter:  46 10:36:31  -352.436420c -6.93  -5.32c
iter:  47 10:36:38  -352.436420c -7.24  -5.32c
iter:  48 10:36:46  -352.436420c -7.36  -5.34c
iter:  49 10:36:53  -352.436420c -7.43c -5.36c

Converged after 49 iterations.

Dipole moment: (-2.820715, -4.314568, 0.107571) |e|*Ang

Energy contributions relative to reference atoms: (reference = -16540.070923)

Kinetic:       +219.738364
Potential:     -201.948564
External:        +0.000000
XC:            -370.976232
Entropy (-ST):   -0.177176
Local:           +0.838600
--------------------------
Free energy:   -352.525008
Extrapolated:  -352.436420

Dipole-layer corrected work functions: 3.413347, 3.206560 eV

Showing only first 2 kpts
 Kpt  Band  Eigenvalues  Occupancy
  0    37     -3.53667    1.97876
  0    38     -3.44284    1.86897
  0    39     -3.24033    0.39804
  0    40     -3.05405    0.01190

  1    37     -3.38561    1.63905
  1    38     -3.28993    0.80244
  1    39     -3.25721    0.51655
  1    40     -3.16672    0.10785


Fermi level: -3.30995

No gap
Writing to output.gpw (mode='')


Forces in eV/Ang:
  0 Li    0.01885    0.00667   -0.27507
  1 Li   -0.01582    0.00234   -0.27299
  2 Li   -0.00230   -0.00626   -0.28406
  3 Li    0.01167    0.00257   -0.28301
  4 Li   -0.00999    0.00221   -0.27545
  5 Li    0.00090    0.01523   -0.28183
  6 Li    0.00235   -0.00268   -0.27542
  7 Li   -0.00256   -0.00139   -0.27813
  8 Li   -0.00263   -0.01171   -0.26860
  9 Li   -0.00525   -0.00138    0.28924
 10 Li    0.00355    0.01304    0.24580
 11 Li    0.00656   -0.00775    0.28873
 12 Li   -0.01666   -0.00591    0.32763
 13 Li    0.00186   -0.00774    0.22698
 14 Li    0.01092    0.00025    0.31068
 15 Li    0.00168    0.00800    0.24979
 16 Li   -0.00151   -0.01272    0.26590
 17 Li    0.00220    0.01781    0.24173
 18 Li    0.00726    0.00854    0.01216
 19 Li    0.00499    0.00778    0.02675
 20 Li   -0.01540   -0.02829   -0.17829
 21 Li   -0.02499   -0.03964    0.06249
 22 Li    0.03187   -0.03582    0.07142
 23 Li   -0.00926    0.05545   -0.08254
 24 Li   -0.00919    0.02781    0.06071
 25 Li    0.00016    0.01375    0.04663
 26 Li    0.00480   -0.00864    0.04723
 27 Li   -0.04713   -0.02070    0.00823
 28 Li   -0.01015   -0.06396   -0.15528
 29 Li   -0.00144   -0.08854   -0.09474
 30 Li   -0.15460    0.08729    0.16058
 31 Li   -0.03020    0.05032   -0.14639
 32 Li    0.16796   -0.06204   -0.16532
 33 Li    0.03279    0.05382   -0.02562
 34 Li    0.00154   -0.00206   -0.01171
 35 Li   -0.03482    0.03586   -0.03783
 36 O    -1.92609   -0.59932   10.70292
 37 C    -0.23203   -0.09913    0.26770
 38 C    -0.07837   -0.09427    0.14528
 39 C    -1.44108   -0.62383    3.55835
 40 C     0.02570    0.04828    0.17212
 41 H    -0.12461   -0.16849   -0.00863
 42 H    -0.01796   -0.02119    0.07721
 43 H     0.05099    0.06867   -0.00661
 44 H    -0.02362    0.04068   -0.04010
 45 H    -0.54762    0.25882    1.46383
 46 H    -0.20793    0.43236    0.37565
 47 H    -0.03439   -0.00554    0.02710
 48 H    -0.00510   -0.03955    0.01881
 49 H    -0.02350    0.01453   -0.01876
 50 H    -0.26425   -3.49850    2.56520
 51 N     2.05960   -1.49583  -11.82569
 52 N     2.94525    5.76571   -7.00934

System changes: positions 

Initializing position-dependent things.

Density initialized from wave functions
       .-----------------------.  
      /|                       |  
     / |                       |  
    /  |                       |  
   /   |                       |  
  /    |                       |  
 *     |                       |  
 |     |                       |  
 |     |                       |  
 |     |                       |  
 |     |                       |  
 |     |                       |  
 |     |                       |  
 |     |      HLi   H  Li      |  
 |     |HH   C  H   C O        |  
 |   Li|  C  LH C   HLi        |  
 |     | H     H      HN       |  
 |     |  LLi     LLi N   LLi  |  
 |     |                       |  
 |     |Li      Li      LLi    |  
 |   Li|     Li      Li        |  
 |    Li  Li  Li  Li  Li  Li   |  
 | Li  |   Li      Li          |  
 |     |Li      Li      Li     |  
 Li    | Li      Li            |  
 |    Li      Li      Li       |  
 |     |                       |  
 |     |                       |  
 |     |                       |  
 |     |                       |  
 |     |                       |  
 |     |                       |  
 |     .-----------------------.  
 |    /                       /   
 |   /                       /    
 |  /                       /     
 | /                       /      
 |/                       /       
 *-----------------------*        

Positions:
   0 Li     1.617037    1.617037   10.000000    ( 0.0000,  0.0000,  0.0000)
   1 Li     4.851111    1.617037   10.000000    ( 0.0000,  0.0000,  0.0000)
   2 Li     8.085185    1.617037   10.000000    ( 0.0000,  0.0000,  0.0000)
   3 Li     1.617037    4.851111   10.000000    ( 0.0000,  0.0000,  0.0000)
   4 Li     4.851111    4.851111   10.000000    ( 0.0000,  0.0000,  0.0000)
   5 Li     8.085185    4.851111   10.000000    ( 0.0000,  0.0000,  0.0000)
   6 Li     1.617037    8.085185   10.000000    ( 0.0000,  0.0000,  0.0000)
   7 Li     4.851111    8.085185   10.000000    ( 0.0000,  0.0000,  0.0000)
   8 Li     8.085185    8.085185   10.000000    ( 0.0000,  0.0000,  0.0000)
   9 Li     0.000000    0.000000   11.617037    ( 0.0000,  0.0000,  0.0000)
  10 Li     3.234074    0.000000   11.617037    ( 0.0000,  0.0000,  0.0000)
  11 Li     6.468148    0.000000   11.617037    ( 0.0000,  0.0000,  0.0000)
  12 Li     0.000000    3.234074   11.617037    ( 0.0000,  0.0000,  0.0000)
  13 Li     3.234074    3.234074   11.617037    ( 0.0000,  0.0000,  0.0000)
  14 Li     6.468148    3.234074   11.617037    ( 0.0000,  0.0000,  0.0000)
  15 Li     0.000000    6.468148   11.617037    ( 0.0000,  0.0000,  0.0000)
  16 Li     3.234074    6.468148   11.617037    ( 0.0000,  0.0000,  0.0000)
  17 Li     6.468148    6.468148   11.617037    ( 0.0000,  0.0000,  0.0000)
  18 Li     1.617212    1.617179   13.469818    ( 0.0000,  0.0000,  0.0000)
  19 Li     4.851150    1.617160   13.470057    ( 0.0000,  0.0000,  0.0000)
  20 Li     8.084911    1.616564   13.466875    ( 0.0000,  0.0000,  0.0000)
  21 Li     1.616630    4.850437   13.470751    ( 0.0000,  0.0000,  0.0000)
  22 Li     4.851639    4.850518   13.470873    ( 0.0000,  0.0000,  0.0000)
  23 Li     8.085018    4.852026   13.468338    ( 0.0000,  0.0000,  0.0000)
  24 Li     1.616861    8.085652   13.470741    ( 0.0000,  0.0000,  0.0000)
  25 Li     4.851122    8.085391   13.470492    ( 0.0000,  0.0000,  0.0000)
  26 Li     8.085266    8.085013   13.470455    ( 0.0000,  0.0000,  0.0000)
  27 Li    -0.001130    0.000056   15.446541    ( 0.0000,  0.0000,  0.0000)
  28 Li     3.233910   -0.001052   15.443471    ( 0.0000,  0.0000,  0.0000)
  29 Li     6.468318   -0.001118   15.444771    ( 0.0000,  0.0000,  0.0000)
  30 Li    -0.002616    3.235284   15.449026    ( 0.0000,  0.0000,  0.0000)
  31 Li     3.233595    3.234914   15.443634    ( 0.0000,  0.0000,  0.0000)
  32 Li     6.470890    3.232599   15.443929    ( 0.0000,  0.0000,  0.0000)
  33 Li     0.000566    6.469027   15.445490    ( 0.0000,  0.0000,  0.0000)
  34 Li     3.234089    6.468130   15.445721    ( 0.0000,  0.0000,  0.0000)
  35 Li     6.467566    6.468674   15.445309    ( 0.0000,  0.0000,  0.0000)
  36 O      8.045794    1.601330   18.563666    ( 0.0000,  0.0000,  0.0000)
  37 C      5.612271    1.603673   18.486773    ( 0.0000,  0.0000,  0.0000)
  38 C      4.346974    2.457799   18.470303    ( 0.0000,  0.0000,  0.0000)
  39 C      6.890014    2.412433   18.494207    ( 0.0000,  0.0000,  0.0000)
  40 C      3.075969    1.609789   18.455199    ( 0.0000,  0.0000,  0.0000)
  41 H      5.630718    0.968578   19.375203    ( 0.0000,  0.0000,  0.0000)
  42 H      5.604897    0.934337   17.611633    ( 0.0000,  0.0000,  0.0000)
  43 H      4.362314    3.119839   17.592201    ( 0.0000,  0.0000,  0.0000)
  44 H      4.343304    3.116559   19.345730    ( 0.0000,  0.0000,  0.0000)
  45 H      6.887615    3.095236   17.596723    ( 0.0000,  0.0000,  0.0000)
  46 H      6.980574    3.060868   19.350430    ( 0.0000,  0.0000,  0.0000)
  47 H      3.047757    0.966203   17.569208    ( 0.0000,  0.0000,  0.0000)
  48 H      3.030437    0.958090   19.330532    ( 0.0000,  0.0000,  0.0000)
  49 H      2.172220    2.222604   18.446356    ( 0.0000,  0.0000,  0.0000)
  50 H      8.037345    1.022176   17.721240    ( 0.0000,  0.0000,  0.0000)
  51 N      8.114455    1.610791   16.793221    ( 0.0000,  0.0000,  0.0000)
  52 N      8.127946    2.749063   16.855887    ( 0.0000,  0.0000,  0.0000)

Unit cell:
           periodic     x           y           z      points  spacing
  1. axis:    yes    9.702222    0.000000    0.000000    60     0.1617
  2. axis:    yes    0.000000    9.702222    0.000000    60     0.1617
  3. axis:    no     0.000000    0.000000   26.351111   164     0.1607

  Lengths:   9.702222   9.702222  26.351111
  Angles:   90.000000  90.000000  90.000000

Effective grid spacing dv^(1/3) = 0.1614

     iter     time        total  log10-change:
                         energy  eigst   dens
iter:   1 10:37:03  -353.368527  -0.94
iter:   2 10:37:10  -353.375870  -1.35  -1.97
iter:   3 10:37:18  -353.352640c -1.98  -1.89
iter:   4 10:37:25  -353.352229c -2.22  -2.41
Writing to output.gpw (mode='')

iter:   5 10:37:33  -353.346434c -1.97  -2.43
iter:   6 10:37:40  -353.344235c -2.35  -2.27
iter:   7 10:37:48  -353.344670c -2.43  -2.68
iter:   8 10:37:55  -353.343839c -2.63  -2.62
iter:   9 10:38:03  -353.343251c -3.07  -2.81
Writing to output.gpw (mode='')

iter:  10 10:38:10  -353.343370c -3.15  -2.99
iter:  11 10:38:18  -353.343531c -3.31  -3.16
iter:  12 10:38:25  -353.343687c -3.38  -3.19
iter:  13 10:38:33  -353.343641c -3.75  -3.22
iter:  14 10:38:40  -353.343666c -4.04  -3.32
Writing to output.gpw (mode='')

iter:  15 10:38:48  -353.343594c -3.80  -3.39
iter:  16 10:38:55  -353.343638c -4.24  -3.52
iter:  17 10:39:03  -353.343694c -4.34  -3.80
iter:  18 10:39:10  -353.343682c -4.47  -3.80
iter:  19 10:39:18  -353.343681c -4.48  -3.86
Writing to output.gpw (mode='')

iter:  20 10:39:25  -353.343688c -4.67  -3.89
iter:  21 10:39:33  -353.343712c -4.89  -3.93
iter:  22 10:39:40  -353.343701c -4.91  -4.08c
iter:  23 10:39:47  -353.343710c -5.03  -4.18c
iter:  24 10:39:55  -353.343704c -5.13  -4.18c
Writing to output.gpw (mode='')

iter:  25 10:40:03  -353.343712c -5.25  -4.24c
iter:  26 10:40:10  -353.343713c -5.27  -4.30c
iter:  27 10:40:17  -353.343708c -5.20  -4.32c
iter:  28 10:40:25  -353.343714c -5.52  -4.41c
iter:  29 10:40:33  -353.343711c -5.48  -4.50c
Writing to output.gpw (mode='')

iter:  30 10:40:40  -353.343711c -5.40  -4.65c
iter:  31 10:40:47  -353.343712c -5.72  -4.76c
iter:  32 10:40:55  -353.343716c -5.78  -4.78c
iter:  33 10:41:03  -353.343713c -6.05  -4.82c
iter:  34 10:41:10  -353.343713c -6.22  -4.86c
Writing to output.gpw (mode='')

iter:  35 10:41:23  -353.343713c -5.96  -5.04c
iter:  36 10:41:32  -353.343713c -6.43  -5.15c
iter:  37 10:41:39  -353.343713c -6.38  -5.28c
iter:  38 10:41:47  -353.343713c -6.53  -5.33c
iter:  39 10:41:54  -353.343714c -6.54  -5.36c
Writing to output.gpw (mode='')

iter:  40 10:42:01  -353.343714c -6.49  -5.40c
iter:  41 10:42:09  -353.343714c -6.73  -5.43c
iter:  42 10:42:16  -353.343714c -6.72  -5.45c
iter:  43 10:42:24  -353.343714c -6.83  -5.50c
iter:  44 10:42:31  -353.343714c -7.09  -5.71c
Writing to output.gpw (mode='')

iter:  45 10:42:39  -353.343714c -7.07  -5.79c
iter:  46 10:42:46  -353.343714c -7.13  -5.97c
iter:  47 10:42:54  -353.343714c -7.15  -6.02c
iter:  48 10:43:01  -353.343714c -7.41c -5.99c

Converged after 48 iterations.

Dipole moment: (-2.834169, -4.234224, 0.085645) |e|*Ang

Energy contributions relative to reference atoms: (reference = -16540.070923)

Kinetic:       +216.634091
Potential:     -200.142449
External:        +0.000000
XC:            -370.588489
Entropy (-ST):   -0.175114
Local:           +0.840690
--------------------------
Free energy:   -353.431271
Extrapolated:  -353.343714

Dipole-layer corrected work functions: 3.414667, 3.250028 eV

Showing only first 2 kpts
 Kpt  Band  Eigenvalues  Occupancy
  0    37     -3.55838    1.97847
  0    38     -3.46387    1.86558
  0    39     -3.25936    0.37704
  0    40     -3.07904    0.01253

  1    37     -3.41986    1.70399
  1    38     -3.31031    0.78311
  1    39     -3.28180    0.53361
  1    40     -3.18303    0.09609


Fermi level: -3.33235

No gap
Writing to output.gpw (mode='')


Forces in eV/Ang:
  0 Li    0.01984    0.00705   -0.27570
  1 Li   -0.01650    0.00227   -0.27346
  2 Li   -0.00234   -0.00583   -0.28357
  3 Li    0.01121    0.00374   -0.28352
  4 Li   -0.00988    0.00336   -0.27541
  5 Li    0.00105    0.01584   -0.28174
  6 Li    0.00295   -0.00227   -0.27609
  7 Li   -0.00319   -0.00078   -0.27932
  8 Li   -0.00284   -0.01290   -0.26872
  9 Li   -0.00543   -0.00072    0.28954
 10 Li    0.00386    0.01233    0.24628
 11 Li    0.00654   -0.00708    0.28867
 12 Li   -0.01747   -0.00591    0.32954
 13 Li    0.00187   -0.00858    0.22701
 14 Li    0.01127    0.00025    0.31153
 15 Li    0.00178    0.00798    0.24920
 16 Li   -0.00144   -0.01443    0.26462
 17 Li    0.00259    0.01935    0.24102
 18 Li    0.00758    0.00831    0.01091
 19 Li    0.00442    0.00706    0.02436
 20 Li   -0.01632   -0.02939   -0.16966
 21 Li   -0.02375   -0.04064    0.06258
 22 Li    0.03121   -0.03672    0.06896
 23 Li   -0.00956    0.05329   -0.07676
 24 Li   -0.01079    0.02756    0.06106
 25 Li    0.00087    0.01129    0.04642
 26 Li    0.00490   -0.00947    0.04288
 27 Li   -0.06010   -0.01282    0.01763
 28 Li   -0.01007   -0.06262   -0.15120
 29 Li    0.00995   -0.07823   -0.08580
 30 Li   -0.13049    0.09798    0.14434
 31 Li   -0.03034    0.04962   -0.14243
 32 Li    0.15330   -0.07481   -0.14902
 33 Li    0.03197    0.05184   -0.02686
 34 Li    0.00041   -0.00051   -0.01214
 35 Li   -0.03278    0.02951   -0.03740
 36 O    -1.77624   -0.63168    9.20759
 37 C    -0.23867   -0.06783    0.25860
 38 C    -0.08894   -0.07993    0.13212
 39 C    -1.25932   -0.52143    3.14508
 40 C     0.00781    0.04278    0.15544
 41 H    -0.13993   -0.17989    0.00238
 42 H    -0.00681   -0.00885    0.08344
 43 H     0.04726    0.05789    0.00166
 44 H    -0.02800    0.04180   -0.03427
 45 H    -0.45597    0.19514    1.40218
 46 H    -0.23272    0.43233    0.38102
 47 H    -0.03366   -0.00267    0.03231
 48 H    -0.00766   -0.03763    0.02077
 49 H    -0.03147    0.01322   -0.01483
 50 H    -0.11267   -2.62411    2.34817
 51 N     1.83916   -1.81366  -10.62310
 52 N     2.63261    5.20375   -6.05897

System changes: positions 

Initializing position-dependent things.

Density initialized from wave functions
       .-----------------------.  
      /|                       |  
     / |                       |  
    /  |                       |  
   /   |                       |  
  /    |                       |  
 *     |                       |  
 |     |                       |  
 |     |                       |  
 |     |                       |  
 |     |                       |  
 |     |                       |  
 |     |                       |  
 |     |      HLi   H  Li      |  
 |     |HH   C  H   C O        |  
 |   Li|  C  LH C   HLi        |  
 |     | H     H      HN       |  
 |     |  LLi     LLi N   LLi  |  
 |     |                       |  
 |     |Li      Li      LLi    |  
 |   Li|     Li      Li        |  
 |    Li  Li  Li  Li  Li  Li   |  
 | Li  |   Li      Li          |  
 |     |Li      Li      Li     |  
 Li    | Li      Li            |  
 |    Li      Li      Li       |  
 |     |                       |  
 |     |                       |  
 |     |                       |  
 |     |                       |  
 |     |                       |  
 |     |                       |  
 |     .-----------------------.  
 |    /                       /   
 |   /                       /    
 |  /                       /     
 | /                       /      
 |/                       /       
 *-----------------------*        

Positions:
   0 Li     1.617037    1.617037   10.000000    ( 0.0000,  0.0000,  0.0000)
   1 Li     4.851111    1.617037   10.000000    ( 0.0000,  0.0000,  0.0000)
   2 Li     8.085185    1.617037   10.000000    ( 0.0000,  0.0000,  0.0000)
   3 Li     1.617037    4.851111   10.000000    ( 0.0000,  0.0000,  0.0000)
   4 Li     4.851111    4.851111   10.000000    ( 0.0000,  0.0000,  0.0000)
   5 Li     8.085185    4.851111   10.000000    ( 0.0000,  0.0000,  0.0000)
   6 Li     1.617037    8.085185   10.000000    ( 0.0000,  0.0000,  0.0000)
   7 Li     4.851111    8.085185   10.000000    ( 0.0000,  0.0000,  0.0000)
   8 Li     8.085185    8.085185   10.000000    ( 0.0000,  0.0000,  0.0000)
   9 Li     0.000000    0.000000   11.617037    ( 0.0000,  0.0000,  0.0000)
  10 Li     3.234074    0.000000   11.617037    ( 0.0000,  0.0000,  0.0000)
  11 Li     6.468148    0.000000   11.617037    ( 0.0000,  0.0000,  0.0000)
  12 Li     0.000000    3.234074   11.617037    ( 0.0000,  0.0000,  0.0000)
  13 Li     3.234074    3.234074   11.617037    ( 0.0000,  0.0000,  0.0000)
  14 Li     6.468148    3.234074   11.617037    ( 0.0000,  0.0000,  0.0000)
  15 Li     0.000000    6.468148   11.617037    ( 0.0000,  0.0000,  0.0000)
  16 Li     3.234074    6.468148   11.617037    ( 0.0000,  0.0000,  0.0000)
  17 Li     6.468148    6.468148   11.617037    ( 0.0000,  0.0000,  0.0000)
  18 Li     1.617295    1.617232   13.469816    ( 0.0000,  0.0000,  0.0000)
  19 Li     4.851145    1.617195   13.470127    ( 0.0000,  0.0000,  0.0000)
  20 Li     8.084781    1.616350   13.465896    ( 0.0000,  0.0000,  0.0000)
  21 Li     1.616489    4.850139   13.471168    ( 0.0000,  0.0000,  0.0000)
  22 Li     4.851842    4.850257   13.471287    ( 0.0000,  0.0000,  0.0000)
  23 Li     8.084941    4.852359   13.467879    ( 0.0000,  0.0000,  0.0000)
  24 Li     1.616753    8.085840   13.471164    ( 0.0000,  0.0000,  0.0000)
  25 Li     4.851141    8.085424   13.470798    ( 0.0000,  0.0000,  0.0000)
  26 Li     8.085303    8.084922   13.470654    ( 0.0000,  0.0000,  0.0000)
  27 Li    -0.001905    0.000288   15.447050    ( 0.0000,  0.0000,  0.0000)
  28 Li     3.233846   -0.001458   15.442551    ( 0.0000,  0.0000,  0.0000)
  29 Li     6.468653   -0.001323   15.444541    ( 0.0000,  0.0000,  0.0000)
  30 Li    -0.003243    3.235970   15.450033    ( 0.0000,  0.0000,  0.0000)
  31 Li     3.233396    3.235244   15.442780    ( 0.0000,  0.0000,  0.0000)
  32 Li     6.471734    3.231672   15.443542    ( 0.0000,  0.0000,  0.0000)
  33 Li     0.000787    6.469344   15.445278    ( 0.0000,  0.0000,  0.0000)
  34 Li     3.234069    6.468158   15.445622    ( 0.0000,  0.0000,  0.0000)
  35 Li     6.467366    6.468750   15.445059    ( 0.0000,  0.0000,  0.0000)
  36 O      8.031575    1.595302   18.582031    ( 0.0000,  0.0000,  0.0000)
  37 C      5.609738    1.603773   18.488583    ( 0.0000,  0.0000,  0.0000)
  38 C      4.346087    2.457454   18.470809    ( 0.0000,  0.0000,  0.0000)
  39 C      6.890328    2.408468   18.503961    ( 0.0000,  0.0000,  0.0000)
  40 C      3.075577    1.610031   18.455802    ( 0.0000,  0.0000,  0.0000)
  41 H      5.629412    0.967038   19.375488    ( 0.0000,  0.0000,  0.0000)
  42 H      5.605198    0.934606   17.612347    ( 0.0000,  0.0000,  0.0000)
  43 H      4.362563    3.119977   17.592450    ( 0.0000,  0.0000,  0.0000)
  44 H      4.343061    3.116825   19.345584    ( 0.0000,  0.0000,  0.0000)
  45 H      6.887254    3.094398   17.605738    ( 0.0000,  0.0000,  0.0000)
  46 H      6.978249    3.065035   19.354722    ( 0.0000,  0.0000,  0.0000)
  47 H      3.047569    0.966256   17.569573    ( 0.0000,  0.0000,  0.0000)
  48 H      3.030344    0.957861   19.330721    ( 0.0000,  0.0000,  0.0000)
  49 H      2.171870    2.222625   18.446352    ( 0.0000,  0.0000,  0.0000)
  50 H      8.041325    1.036942   17.732044    ( 0.0000,  0.0000,  0.0000)
  51 N      8.122206    1.605006   16.754408    ( 0.0000,  0.0000,  0.0000)
  52 N      8.139085    2.748189   16.839406    ( 0.0000,  0.0000,  0.0000)

Unit cell:
           periodic     x           y           z      points  spacing
  1. axis:    yes    9.702222    0.000000    0.000000    60     0.1617
  2. axis:    yes    0.000000    9.702222    0.000000    60     0.1617
  3. axis:    no     0.000000    0.000000   26.351111   164     0.1607

  Lengths:   9.702222   9.702222  26.351111
  Angles:   90.000000  90.000000  90.000000

Effective grid spacing dv^(1/3) = 0.1614

     iter     time        total  log10-change:
                         energy  eigst   dens
iter:   1 10:43:11  -354.105897  -1.02
iter:   2 10:43:19  -354.106059  -1.69  -2.20
iter:   3 10:43:26  -354.107891c -1.96  -2.41
iter:   4 10:43:34  -354.105381c -2.29  -2.30
Writing to output.gpw (mode='')

iter:   5 10:43:41  -354.101067c -2.06  -2.44
iter:   6 10:43:49  -354.101576c -2.50  -2.63
iter:   7 10:43:56  -354.101496c -2.51  -2.79
iter:   8 10:44:04  -354.101196c -2.96  -2.73
iter:   9 10:44:11  -354.101845c -3.13  -2.85
Writing to output.gpw (mode='')

iter:  10 10:44:19  -354.101220c -3.23  -2.93
iter:  11 10:44:27  -354.101397c -3.44  -3.08
iter:  12 10:44:34  -354.101387c -4.02  -3.25
iter:  13 10:44:42  -354.101400c -3.94  -3.36
iter:  14 10:44:49  -354.101376c -3.94  -3.46
Writing to output.gpw (mode='')

iter:  15 10:44:57  -354.101391c -4.30  -3.45
iter:  16 10:45:04  -354.101430c -3.95  -3.43
iter:  17 10:45:12  -354.101467c -4.35  -3.52
iter:  18 10:45:20  -354.101436c -4.33  -3.65
iter:  19 10:45:27  -354.101455c -4.66  -3.81
Writing to output.gpw (mode='')

iter:  20 10:45:35  -354.101472c -4.74  -3.88
iter:  21 10:45:42  -354.101472c -4.62  -4.02c
iter:  22 10:45:50  -354.101482c -4.86  -3.89
iter:  23 10:45:57  -354.101473c -5.11  -4.16c
iter:  24 10:46:05  -354.101480c -5.43  -4.22c
Writing to output.gpw (mode='')

iter:  25 10:46:13  -354.101479c -5.26  -4.24c
iter:  26 10:46:26  -354.101483c -5.36  -4.42c
iter:  27 10:46:33  -354.101480c -5.17  -4.66c
iter:  28 10:46:41  -354.101480c -5.62  -4.62c
iter:  29 10:46:48  -354.101483c -5.67  -4.58c
Writing to output.gpw (mode='')

iter:  30 10:46:56  -354.101483c -5.73  -4.63c
iter:  31 10:47:04  -354.101483c -5.84  -4.79c
iter:  32 10:47:11  -354.101483c -5.89  -4.77c
iter:  33 10:47:19  -354.101485c -5.99  -4.74c
iter:  34 10:47:26  -354.101486c -6.29  -4.53c
Writing to output.gpw (mode='')

iter:  35 10:47:34  -354.101485c -6.25  -4.54c
iter:  36 10:47:41  -354.101485c -6.29  -4.76c
iter:  37 10:47:49  -354.101484c -6.56  -4.93c
iter:  38 10:47:56  -354.101485c -6.68  -5.13c
iter:  39 10:48:04  -354.101485c -6.70  -5.20c
Writing to output.gpw (mode='')

iter:  40 10:48:11  -354.101486c -6.70  -5.24c
iter:  41 10:48:19  -354.101485c -6.69  -5.34c
iter:  42 10:48:27  -354.101485c -7.07  -5.41c
iter:  43 10:48:34  -354.101485c -7.00  -5.44c
iter:  44 10:48:42  -354.101485c -7.02  -5.51c
Writing to output.gpw (mode='')

iter:  45 10:48:50  -354.101485c -7.40c -5.69c

Converged after 45 iterations.

Dipole moment: (-2.859300, -4.151216, 0.065158) |e|*Ang

Energy contributions relative to reference atoms: (reference = -16540.070923)

Kinetic:       +213.515433
Potential:     -198.169046
External:        +0.000000
XC:            -370.203890
Entropy (-ST):   -0.173639
Local:           +0.842837
--------------------------
Free energy:   -354.188305
Extrapolated:  -354.101485

Dipole-layer corrected work functions: 3.415786, 3.290531 eV

Showing only first 2 kpts
 Kpt  Band  Eigenvalues  Occupancy
  0    37     -3.57769    1.97782
  0    38     -3.48233    1.85956
  0    39     -3.27871    0.36816
  0    40     -3.10313    0.01338

  1    37     -3.45109    1.75277
  1    38     -3.32905    0.76350
  1    39     -3.30368    0.54201
  1    40     -3.19739    0.08495


Fermi level: -3.35316

No gap

Forces in eV/Ang:
  0 Li    0.02046    0.00725   -0.27653
  1 Li   -0.01701    0.00224   -0.27397
  2 Li   -0.00234   -0.00513   -0.28308
  3 Li    0.01091    0.00489   -0.28396
  4 Li   -0.00988    0.00467   -0.27562
  5 Li    0.00116    0.01605   -0.28176
  6 Li    0.00380   -0.00193   -0.27676
  7 Li   -0.00401   -0.00030   -0.28043
  8 Li   -0.00304   -0.01377   -0.26879
  9 Li   -0.00580    0.00014    0.29047
 10 Li    0.00434    0.01134    0.24670
 11 Li    0.00649   -0.00638    0.28897
 12 Li   -0.01795   -0.00583    0.33099
 13 Li    0.00175   -0.00941    0.22719
 14 Li    0.01154    0.00027    0.31246
 15 Li    0.00201    0.00780    0.24879
 16 Li   -0.00157   -0.01570    0.26356
 17 Li    0.00286    0.02027    0.24065
 18 Li    0.00887    0.00783    0.00826
 19 Li    0.00315    0.00626    0.02112
 20 Li   -0.01713   -0.02952   -0.15691
 21 Li   -0.02225   -0.04126    0.06188
 22 Li    0.02995   -0.03770    0.06605
 23 Li   -0.00941    0.05149   -0.07197
 24 Li   -0.01275    0.02736    0.06132
 25 Li    0.00208    0.00928    0.04656
 26 Li    0.00496   -0.01135    0.03735
 27 Li   -0.07728    0.00042    0.03250
 28 Li   -0.00988   -0.06182   -0.14744
 29 Li    0.02733   -0.06195   -0.07177
 30 Li   -0.11518    0.10313    0.13688
 31 Li   -0.03007    0.04935   -0.13893
 32 Li    0.15483   -0.08972   -0.12591
 33 Li    0.03174    0.04978   -0.02790
 34 Li   -0.00044    0.00094   -0.01263
 35 Li   -0.03161    0.02452   -0.03739
 36 O    -1.62170   -0.65009    8.05601
 37 C    -0.23794   -0.05270    0.25659
 38 C    -0.09777   -0.06450    0.12260
 39 C    -1.15011   -0.42318    2.76377
 40 C    -0.00784    0.03805    0.14110
 41 H    -0.15582   -0.18474    0.00751
 42 H     0.00349    0.00612    0.09101
 43 H     0.04268    0.04920    0.00771
 44 H    -0.03380    0.04348   -0.02864
 45 H    -0.36932    0.14153    1.30614
 46 H    -0.24621    0.42157    0.38683
 47 H    -0.03334   -0.00095    0.03578
 48 H    -0.01063   -0.03520    0.02206
 49 H    -0.04023    0.01221   -0.01109
 50 H    -0.00209   -2.08428    2.07980
 51 N     1.58950   -1.62275   -9.48229
 52 N     2.42616    4.33753   -5.33391

System changes: positions 

Initializing position-dependent things.

Density initialized from wave functions
[...]
  6 Li    0.01609   -0.01949   -0.28551
  7 Li   -0.00915   -0.01049   -0.29315
  8 Li   -0.01145    0.00804   -0.29326
  9 Li   -0.02646    0.02612    0.24458
 10 Li   -0.01243    0.00333    0.28060
 11 Li    0.02815    0.01648    0.31606
 12 Li   -0.02312   -0.01806    0.30389
 13 Li    0.01299    0.00300    0.27420
 14 Li    0.03752   -0.02355    0.25521
 15 Li   -0.00997    0.01245    0.25313
 16 Li    0.00325    0.00221    0.25115
 17 Li    0.01791   -0.00830    0.26406
 18 Li   -0.02160   -0.00217    0.01256
 19 Li    0.00879   -0.00623   -0.00146
 20 Li    0.00524   -0.00295    0.02698
 21 Li   -0.00377   -0.01115    0.00250
 22 Li    0.00010    0.00969   -0.00136
 23 Li   -0.00301   -0.00776    0.00752
 24 Li    0.01012   -0.00273   -0.00124
 25 Li   -0.00442   -0.00474   -0.00007
 26 Li    0.00015   -0.00447   -0.00749
 27 Li    0.01749   -0.02145   -0.00865
 28 Li   -0.00773   -0.00407   -0.00165
 29 Li   -0.00381   -0.00244    0.01169
 30 Li    0.00838   -0.00433    0.00261
 31 Li    0.00952   -0.00595    0.00267
 32 Li    0.04418   -0.03360    0.00233
 33 Li   -0.00405    0.01292    0.00229
 34 Li    0.00881    0.00942   -0.00243
 35 Li   -0.00967   -0.00749    0.00131
 36 O     0.00080    0.00633   -0.03763
 37 C     0.01675   -0.01914   -0.00801
 38 C     0.03253   -0.00853    0.00300
 39 C     0.01897    0.00844    0.01424
 40 C     0.02109    0.00508    0.00638
 41 H     0.01152   -0.00245   -0.00463
 42 H     0.00861   -0.01105   -0.02704
 43 H    -0.02069   -0.00821    0.03643
 44 H    -0.01480    0.01600   -0.01178
 45 H    -0.01827   -0.02386    0.00321
 46 H    -0.01271    0.01628   -0.00064
 47 H    -0.05622    0.00862    0.04351
 48 H     0.00345   -0.00584   -0.02665
 49 H     0.03861    0.01417    0.00369
 50 H     0.01195    0.02717    0.02829
 51 N     0.06121    0.02469    0.00792
 52 N    -0.06509    0.02457   -0.00548

System changes: positions 

Initializing position-dependent things.

Density initialized from wave functions
       .-----------------------.  
      /|                       |  
     / |                       |  
    /  |                       |  
   /   |                       |  
  /    |                       |  
 *     |                       |  
 |     |                       |  
 |     |                       |  
 |     |                       |  
 |     |                       |  
 |     |                       |  
 |     |     H      H          |  
 |     | H   C Hi  C   Li      |  
 |     H C    H C   H O        |  
 |   Li|     LiH     Hi        |  
 |     | H                     |  
 | Li  |  LLi     LiLi    Li   |  
 |     |             N N       |  
 |     |Li      Li      LLi    |  
 |   Li|     Li      Li        |  
 |    Li  Li  Li  Li  Li  Li   |  
 | Li  |   Li      Li          |  
 |     |Li      Li      Li     |  
 Li    | Li      Li            |  
 |    Li      Li      Li       |  
 |     |                       |  
 |     |                       |  
 |     |                       |  
 |     |                       |  
 |     |                       |  
 |     |                       |  
 |     .-----------------------.  
 |    /                       /   
 |   /                       /    
 |  /                       /     
 | /                       /      
 |/                       /       
 *-----------------------*        

Positions:
   0 Li     1.617037    1.617037   10.000000    ( 0.0000,  0.0000,  0.0000)
   1 Li     4.851111    1.617037   10.000000    ( 0.0000,  0.0000,  0.0000)
   2 Li     8.085185    1.617037   10.000000    ( 0.0000,  0.0000,  0.0000)
   3 Li     1.617037    4.851111   10.000000    ( 0.0000,  0.0000,  0.0000)
   4 Li     4.851111    4.851111   10.000000    ( 0.0000,  0.0000,  0.0000)
   5 Li     8.085185    4.851111   10.000000    ( 0.0000,  0.0000,  0.0000)
   6 Li     1.617037    8.085185   10.000000    ( 0.0000,  0.0000,  0.0000)
   7 Li     4.851111    8.085185   10.000000    ( 0.0000,  0.0000,  0.0000)
   8 Li     8.085185    8.085185   10.000000    ( 0.0000,  0.0000,  0.0000)
   9 Li     0.000000    0.000000   11.617037    ( 0.0000,  0.0000,  0.0000)
  10 Li     3.234074    0.000000   11.617037    ( 0.0000,  0.0000,  0.0000)
  11 Li     6.468148    0.000000   11.617037    ( 0.0000,  0.0000,  0.0000)
  12 Li     0.000000    3.234074   11.617037    ( 0.0000,  0.0000,  0.0000)
  13 Li     3.234074    3.234074   11.617037    ( 0.0000,  0.0000,  0.0000)
  14 Li     6.468148    3.234074   11.617037    ( 0.0000,  0.0000,  0.0000)
  15 Li     0.000000    6.468148   11.617037    ( 0.0000,  0.0000,  0.0000)
  16 Li     3.234074    6.468148   11.617037    ( 0.0000,  0.0000,  0.0000)
  17 Li     6.468148    6.468148   11.617037    ( 0.0000,  0.0000,  0.0000)
  18 Li     1.615195    1.667022   13.467271    ( 0.0000,  0.0000,  0.0000)
  19 Li     4.860965    1.579575   13.465152    ( 0.0000,  0.0000,  0.0000)
  20 Li     8.093952    1.612392   13.527672    ( 0.0000,  0.0000,  0.0000)
  21 Li     1.662931    4.913520   13.462952    ( 0.0000,  0.0000,  0.0000)
  22 Li     4.931028    4.793631   13.470071    ( 0.0000,  0.0000,  0.0000)
  23 Li     8.141131    4.856148   13.482417    ( 0.0000,  0.0000,  0.0000)
  24 Li     1.540286    8.139161   13.468574    ( 0.0000,  0.0000,  0.0000)
  25 Li     4.812643    8.030300   13.459301    ( 0.0000,  0.0000,  0.0000)
  26 Li     8.053075    8.080579   13.481096    ( 0.0000,  0.0000,  0.0000)
  27 Li    -0.223862    0.244019   15.493279    ( 0.0000,  0.0000,  0.0000)
  28 Li     3.105197   -0.075435   15.352741    ( 0.0000,  0.0000,  0.0000)
  29 Li     6.371416   -0.123253   15.390514    ( 0.0000,  0.0000,  0.0000)
  30 Li     0.136699    3.370541   15.452496    ( 0.0000,  0.0000,  0.0000)
  31 Li     3.373757    3.312143   15.356589    ( 0.0000,  0.0000,  0.0000)
  32 Li     6.748342    2.997434   15.473671    ( 0.0000,  0.0000,  0.0000)
  33 Li     0.066522    6.612262   15.433911    ( 0.0000,  0.0000,  0.0000)
  34 Li     3.233793    6.464733   15.420665    ( 0.0000,  0.0000,  0.0000)
  35 Li     6.424012    6.337221   15.417769    ( 0.0000,  0.0000,  0.0000)
  36 O      7.969891    1.668434   18.920105    ( 0.0000,  0.0000,  0.0000)
  37 C      5.501483    1.648725   18.964352    ( 0.0000,  0.0000,  0.0000)
  38 C      4.226862    2.498261   18.925540    ( 0.0000,  0.0000,  0.0000)
  39 C      6.788170    2.472435   18.998925    ( 0.0000,  0.0000,  0.0000)
  40 C      2.957063    1.646288   18.852899    ( 0.0000,  0.0000,  0.0000)
  41 H      5.483738    0.979479   19.831280    ( 0.0000,  0.0000,  0.0000)
  42 H      5.523859    1.004496   18.074473    ( 0.0000,  0.0000,  0.0000)
  43 H      4.272636    3.170740   18.056140    ( 0.0000,  0.0000,  0.0000)
  44 H      4.186174    3.148605   19.806557    ( 0.0000,  0.0000,  0.0000)
  45 H      6.781292    3.225534   18.192469    ( 0.0000,  0.0000,  0.0000)
  46 H      6.867718    3.020443   19.940297    ( 0.0000,  0.0000,  0.0000)
  47 H      2.992607    0.977680   17.985424    ( 0.0000,  0.0000,  0.0000)
  48 H      2.849723    1.019339   19.741800    ( 0.0000,  0.0000,  0.0000)
  49 H      2.053749    2.254435   18.758696    ( 0.0000,  0.0000,  0.0000)
  50 H      7.967884    1.249506   18.048567    ( 0.0000,  0.0000,  0.0000)
  51 N      7.663312    1.170357   15.549217    ( 0.0000,  0.0000,  0.0000)
  52 N      8.563575    2.060012   15.530544    ( 0.0000,  0.0000,  0.0000)

Unit cell:
           periodic     x           y           z      points  spacing
  1. axis:    yes    9.702222    0.000000    0.000000    60     0.1617
  2. axis:    yes    0.000000    9.702222    0.000000    60     0.1617
  3. axis:    no     0.000000    0.000000   26.351111   164     0.1607

  Lengths:   9.702222   9.702222  26.351111
  Angles:   90.000000  90.000000  90.000000

Effective grid spacing dv^(1/3) = 0.1614

     iter     time        total  log10-change:
                         energy  eigst   dens
iter:   1 17:39:17  -360.951524  -0.65
iter:   2 17:39:24  -360.938797  -1.51  -1.91
iter:   3 17:39:32  -360.933317c -2.23  -2.05
iter:   4 17:39:40  -360.946995c -1.94  -2.20
Writing to output.gpw (mode='')

iter:   5 17:39:48  -360.911820c -1.84  -2.08
iter:   6 17:39:55  -360.908182c -1.75  -2.51
iter:   7 17:40:03  -360.908439c -2.08  -2.66
iter:   8 17:40:10  -360.908335c -2.94  -2.70
iter:   9 17:40:18  -360.908345c -3.30  -2.73
Writing to output.gpw (mode='')

iter:  10 17:40:25  -360.908448c -2.91  -2.76
iter:  11 17:40:33  -360.907861c -3.37  -2.80
iter:  12 17:40:41  -360.907949c -3.16  -3.07
iter:  13 17:40:48  -360.907957c -3.93  -3.22
iter:  14 17:40:56  -360.907934c -3.87  -3.18
Writing to output.gpw (mode='')

iter:  15 17:41:03  -360.907965c -4.34  -3.39
iter:  16 17:41:11  -360.907955c -4.09  -3.46
iter:  17 17:41:22  -360.907947c -4.74  -3.59
iter:  18 17:41:31  -360.907944c -5.29  -3.78
iter:  19 17:41:38  -360.907915c -4.91  -3.83
Writing to output.gpw (mode='')

iter:  20 17:41:46  -360.907918c -5.62  -3.98
iter:  21 17:41:53  -360.907937c -5.44  -4.02c
iter:  22 17:42:01  -360.907932c -5.85  -4.17c
iter:  23 17:42:09  -360.907928c -5.60  -4.37c
iter:  24 17:42:16  -360.907933c -6.20  -4.38c
Writing to output.gpw (mode='')

iter:  25 17:42:24  -360.907933c -6.34  -4.55c
iter:  26 17:42:31  -360.907930c -6.57  -4.66c
iter:  27 17:42:39  -360.907930c -6.94  -4.88c
iter:  28 17:42:46  -360.907930c -6.95  -4.94c
iter:  29 17:42:54  -360.907929c -7.20  -5.03c
Writing to output.gpw (mode='')

iter:  30 17:43:01  -360.907929c -7.31  -5.08c
iter:  31 17:43:09  -360.907930c -7.45c -5.13c

Converged after 31 iterations.

Dipole moment: (-2.905145, -3.203446, -0.058799) |e|*Ang

Energy contributions relative to reference atoms: (reference = -16540.070923)

Kinetic:       +183.614016
Potential:     -177.634492
External:        +0.000000
XC:            -367.669462
Entropy (-ST):   -0.161587
Local:           +0.862802
--------------------------
Free energy:   -360.988724
Extrapolated:  -360.907930

Dipole-layer corrected work functions: 3.416701, 3.529734 eV

Showing only first 2 kpts
 Kpt  Band  Eigenvalues  Occupancy
  0    37     -3.71901    1.98545
  0    38     -3.50761    1.33102
  0    39     -3.42841    0.57972
  0    40     -3.26733    0.03204

  1    37     -3.70671    1.98143
  1    38     -3.63125    1.91865
  1    39     -3.40964    0.43801
  1    40     -3.21337    0.01101


Fermi level: -3.47322

No gap
Writing to output.gpw (mode='')


Forces in eV/Ang:
  0 Li   -0.01093    0.01213   -0.29217
  1 Li    0.00875   -0.01171   -0.29266
  2 Li   -0.00034   -0.00001   -0.25074
  3 Li    0.00744    0.00994   -0.29088
  4 Li   -0.01748    0.01839   -0.28516
  5 Li    0.01136   -0.00736   -0.29391
  6 Li    0.01594   -0.01955   -0.28597
  7 Li   -0.00928   -0.01047   -0.29219
  8 Li   -0.01133    0.00782   -0.29364
  9 Li   -0.02781    0.02695    0.24492
 10 Li   -0.01319    0.00367    0.28113
 11 Li    0.03224    0.01624    0.31384
 12 Li   -0.02400   -0.01716    0.30195
 13 Li    0.01341    0.00098    0.27583
 14 Li    0.04134   -0.02433    0.25527
 15 Li   -0.01169    0.00979    0.25173
 16 Li    0.00303    0.00097    0.24927
 17 Li    0.02035   -0.00995    0.26052
 18 Li   -0.01548   -0.00112    0.00806
 19 Li    0.00635   -0.00216    0.00069
 20 Li    0.00048   -0.00621    0.01242
 21 Li   -0.00302   -0.00906    0.00295
 22 Li   -0.00023    0.00818    0.00067
 23 Li   -0.00199   -0.00615    0.00397
 24 Li    0.00888   -0.00189    0.00029
 25 Li   -0.00249   -0.00234    0.00087
 26 Li    0.00203   -0.00317   -0.00489
 27 Li    0.00464   -0.00901   -0.00242
 28 Li   -0.00376   -0.00229    0.00145
 29 Li   -0.00534   -0.00560    0.01077
 30 Li    0.00406   -0.00331    0.00176
 31 Li    0.00401   -0.00587    0.00308
 32 Li    0.02002   -0.01316    0.00351
 33 Li   -0.00370    0.00699    0.00125
 34 Li    0.00565    0.00671   -0.00132
 35 Li   -0.00697   -0.00382    0.00160
 36 O     0.00448   -0.01416   -0.04477
 37 C    -0.02249    0.01178   -0.02045
 38 C     0.02022   -0.00435   -0.00209
 39 C     0.00078   -0.01066   -0.00131
 40 C     0.01935   -0.00029    0.01176
 41 H     0.00793    0.00266   -0.00089
 42 H    -0.00731    0.00677    0.00611
 43 H    -0.01189   -0.01627    0.03491
 44 H     0.00076    0.00855    0.00283
 45 H    -0.00296   -0.00363   -0.01375
 46 H    -0.00003    0.01174    0.01140
 47 H    -0.02038   -0.00720    0.01572
 48 H     0.00318    0.00681   -0.00222
 49 H     0.01093    0.01101    0.03261
 50 H     0.01068    0.01860    0.01246
 51 N     0.02816    0.01096   -0.00349
 52 N    -0.03953    0.01519    0.00486

Timing:                                      incl.     excl.
-------------------------------------------------------------------
Density initialized from wave functions:     7.086     7.083   0.0% |
 Symmetrize density:                         0.003     0.003   0.0% |
Forces:                                     54.606    54.606   0.2% |
Hamiltonian:                               633.311     0.015   0.0% |
 Atomic:                                     0.027     0.026   0.0% |
  XC Correction:                             0.000     0.000   0.0% |
 Calculate atomic Hamiltonians:              0.046     0.046   0.0% |
 Communicate:                                6.476     6.476   0.0% |
 Hartree integrate/restrict:                 2.646     2.646   0.0% |
 Initialize Hamiltonian:                     0.000     0.000   0.0% |
 Poisson:                                   30.352    10.724   0.0% |
  Communicate from 1D:                       2.837     2.837   0.0% |
  Communicate from 2D:                       3.429     3.429   0.0% |
  Communicate to 1D:                         1.728     1.728   0.0% |
  Communicate to 2D:                         3.365     3.365   0.0% |
  FFT 1D:                                    4.077     4.077   0.0% |
  FFT 2D:                                    4.192     4.192   0.0% |
 XC 3D grid:                               593.246    90.177   0.3% |
  VdW-DF integral:                         503.069     4.164   0.0% |
   Convolution:                             46.678    46.678   0.2% |
   FFT:                                     19.585    19.585   0.1% |
   gather:                                 179.705   179.705   0.7% |
   hmm1:                                    16.225    16.225   0.1% |
   hmm2:                                    21.215    21.215   0.1% |
   iFFT:                                    20.443    20.443   0.1% |
   potential:                              191.443     5.655   0.0% |
    collect:                                29.897    29.897   0.1% |
    p1:                                     87.768    87.768   0.3% |
    p2:                                     32.514    32.514   0.1% |
    sum:                                    35.609    35.609   0.1% |
   splines:                                  3.612     3.612   0.0% |
 vbar:                                       0.502     0.502   0.0% |
LCAO initialization:                         1.290     0.183   0.0% |
 LCAO eigensolver:                           0.295     0.000   0.0% |
  Calculate projections:                     0.000     0.000   0.0% |
  DenseAtomicCorrection:                     0.000     0.000   0.0% |
  Distribute overlap matrix:                 0.276     0.276   0.0% |
  Orbital Layouts:                           0.016     0.016   0.0% |
  Potential matrix:                          0.001     0.001   0.0% |
  Sum over cells:                            0.001     0.001   0.0% |
 LCAO to grid:                               0.667     0.667   0.0% |
 Set positions (LCAO WFS):                   0.145     0.094   0.0% |
  Basic WFS set positions:                   0.001     0.001   0.0% |
  Basis functions set positions:             0.000     0.000   0.0% |
  P tci:                                     0.000     0.000   0.0% |
  ST tci:                                    0.014     0.014   0.0% |
  mktci:                                     0.036     0.036   0.0% |
Redistribute:                                0.069     0.069   0.0% |
SCF-cycle:                               26733.288   374.675   1.4% ||
 Davidson:                                7754.597  2338.468   8.5% |--|
  Apply hamiltonian:                       479.168   479.168   1.7% ||
  Subspace diag:                          1416.041     0.417   0.0% |
   calc_h_matrix:                          707.841   226.405   0.8% |
    Apply hamiltonian:                     481.436   481.436   1.7% ||
   diagonalize:                             81.835    81.835   0.3% |
   rotate_psi:                             625.947   625.947   2.3% ||
  calc. matrices:                         2517.133  1323.340   4.8% |-|
   Apply hamiltonian:                     1193.793  1193.793   4.3% |-|
  diagonalize:                              24.355    24.355   0.1% |
  rotate_psi:                              979.433   979.433   3.6% ||
 Density:                                  134.904     0.085   0.0% |
  Atomic density matrices:                  15.504    15.504   0.1% |
  Mix:                                      55.185    55.185   0.2% |
  Multipole moments:                         8.093     8.093   0.0% |
  Pseudo density:                           56.037    55.959   0.2% |
   Symmetrize density:                       0.078     0.078   0.0% |
 Hamiltonian:                            18445.681     0.443   0.0% |
  Atomic:                                    0.863     0.854   0.0% |
   XC Correction:                            0.009     0.009   0.0% |
  Calculate atomic Hamiltonians:             2.214     2.214   0.0% |
  Communicate:                             258.360   258.360   0.9% |
  Hartree integrate/restrict:               74.406    74.406   0.3% |
  Poisson:                                 880.176   321.490   1.2% |
   Communicate from 1D:                     85.176    85.176   0.3% |
   Communicate from 2D:                     93.464    93.464   0.3% |
   Communicate to 1D:                       49.799    49.799   0.2% |
   Communicate to 2D:                      105.861   105.861   0.4% |
   FFT 1D:                                 112.588   112.588   0.4% |
   FFT 2D:                                 111.798   111.798   0.4% |
  XC 3D grid:                            17214.097  2645.635   9.6% |---|
   VdW-DF integral:                      14568.461   122.887   0.4% |
    Convolution:                          1369.726  1369.726   5.0% |-|
    FFT:                                   577.873   577.873   2.1% ||
    gather:                               5071.517  5071.517  18.4% |------|
    hmm1:                                  475.101   475.101   1.7% ||
    hmm2:                                  628.505   628.505   2.3% ||
    iFFT:                                  602.708   602.708   2.2% ||
    potential:                            5720.113   168.077   0.6% |
     collect:                              895.336   895.336   3.2% ||
     p1:                                  2581.296  2581.296   9.4% |---|
     p2:                                   955.185   955.185   3.5% ||
     sum:                                 1120.220  1120.220   4.1% |-|
    splines:                                 0.031     0.031   0.0% |
  vbar:                                     15.122    15.122   0.1% |
 Orthonormalize:                            23.431     0.016   0.0% |
  calc_s_matrix:                             3.406     3.406   0.0% |
  inverse-cholesky:                          7.458     7.458   0.0% |
  projections:                               0.002     0.002   0.0% |
  rotate_psi_s:                             12.550    12.550   0.0% |
Set symmetry:                                0.002     0.002   0.0% |
Other:                                     155.813   155.813   0.6% |
-------------------------------------------------------------------
Total:                                             27585.465 100.0%

Memory usage: 1.14 GiB
Date: Fri Mar 10 17:43:10 2023
