
  ___ ___ ___ _ _ _  
 |   |   |_  | | | | 
 | | | | | . | | | | 
 |__ |  _|___|_____|  22.8.0
 |___|_|             

User:   vazumah@c10.hercules
Date:   Thu Feb 23 22:58:44 2023
Arch:   x86_64
Pid:    4430
CWD:    /home/vazumah/Python_projects/LiNRR/Li_adsorb_studies/proton_donors/ethanol_N2/Li_BCC_100/adsorbates/CH3CH2OH_z/ontop/9.702_9.702/N2_z
Python: 3.10.8
gpaw:   /home/vazumah/.conda/envs/GPAW/lib/python3.10/site-packages/gpaw
_gpaw:  /home/vazumah/.conda/envs/GPAW/lib/python3.10/site-packages/
        _gpaw.cpython-310-x86_64-linux-gnu.so
ase:    /home/vazumah/.conda/envs/GPAW/lib/python3.10/site-packages/ase (version 3.22.1)
numpy:  /home/vazumah/.conda/envs/GPAW/lib/python3.10/site-packages/numpy (version 1.24.1)
scipy:  /home/vazumah/.conda/envs/GPAW/lib/python3.10/site-packages/scipy (version 1.10.0)
libxc:  5.2.3
units:  Angstrom and eV
cores: 24
OpenMP: True
OMP_NUM_THREADS: 1

Reading from output.gpw
Reading input parameters:
  h: 0.16
  kpts: {size: [4, 4, 1]}
  occupations: {name: fermi-dirac,
                width: 0.05}
  poissonsolver: {dipolelayer: xy}
  xc: BEEF-vdW

Initialize ...

species:
  Li:
    name: Lithium
    id: 830b4218f175192f93f959cfc0aad614
    Z: 3.0
    valence: 1
    core: 2
    charge: 0.0
    file: /home/vazumah/.conda/envs/GPAW/share/gpaw/Li.PBE.gz
    compensation charges: {type: gauss,
                           rc: 0.33,
                           lmax: 2}
    cutoffs: {filter: 1.91,
              core: 2.55}
    valence states:
      #              energy  rcut
      - 2s(1.00)    -2.874   1.058
      - 2p(0.00)    -1.090   1.058
      -  s          24.337   1.058
  
    # Using partial waves for Li as LCAO basis

  O:
    name: Oxygen
    id: 32ecd46bf208036f09c70b0ec9a88b78
    Z: 8.0
    valence: 6
    core: 2
    charge: 0.0
    file: /home/vazumah/.conda/envs/GPAW/share/gpaw/O.PBE.gz
    compensation charges: {type: gauss,
                           rc: 0.21,
                           lmax: 2}
    cutoffs: {filter: 1.17,
              core: 0.83}
    valence states:
      #              energy  rcut
      - 2s(2.00)   -23.961   0.688
      - 2p(4.00)    -9.029   0.598
      -  s           3.251   0.688
      -  p          18.182   0.598
      -  d           0.000   0.619
  
    # Using partial waves for O as LCAO basis

  C:
    name: Carbon
    id: 4aa54d4b901d75f77cc0ea3eec22967b
    Z: 6.0
    valence: 4
    core: 2
    charge: 0.0
    file: /home/vazumah/.conda/envs/GPAW/share/gpaw/C.PBE.gz
    compensation charges: {type: gauss,
                           rc: 0.20,
                           lmax: 2}
    cutoffs: {filter: 1.14,
              core: 1.14}
    valence states:
      #              energy  rcut
      - 2s(2.00)   -13.751   0.635
      - 2p(2.00)    -5.284   0.635
      -  s          13.461   0.635
      -  p          21.927   0.635
      -  d           0.000   0.635
  
    # Using partial waves for C as LCAO basis

  H:
    name: Hydrogen
    id: d65de229564ff8ea4db303e23b6d1ecf
    Z: 1.0
    valence: 1
    core: 0
    charge: 0.0
    file: /home/vazumah/.conda/envs/GPAW/share/gpaw/H.PBE.gz
    compensation charges: {type: gauss,
                           rc: 0.15,
                           lmax: 2}
    cutoffs: {filter: 0.85,
              core: 0.53}
    valence states:
      #              energy  rcut
      - 1s(1.00)    -6.494   0.476
      -  s          20.717   0.476
      -  p           0.000   0.476
  
    # Using partial waves for H as LCAO basis

  N:
    name: Nitrogen
    id: f7500608b86eaa90eef8b1d9a670dc53
    Z: 7.0
    valence: 5
    core: 2
    charge: 0.0
    file: /home/vazumah/.conda/envs/GPAW/share/gpaw/N.PBE.gz
    compensation charges: {type: gauss,
                           rc: 0.18,
                           lmax: 2}
    cutoffs: {filter: 1.11,
              core: 0.96}
    valence states:
      #              energy  rcut
      - 2s(2.00)   -18.583   0.603
      - 2p(3.00)    -7.089   0.529
      -  s           8.629   0.603
      -  p          20.123   0.529
      -  d           0.000   0.577
  
    # Using partial waves for N as LCAO basis

Reference energy: -14434.854043  # eV

Spin-paired calculation

Convergence criteria:
 Maximum [total energy] change in last 3 cyles: 0.0005 eV / electron
 Maximum integral of absolute [dens]ity change: 0.0001 electrons / valence electron
 Maximum integral of absolute [eigenst]ate change: 4e-08 eV^2 / valence electron
 Maximum number of scf [iter]ations: 333
 (Square brackets indicate name in SCF output, whereas a 'c' in
 the SCF output indicates the quantity has converged.)

Symmetries present (total): 1

  ( 1  0  0)
  ( 0  1  0)
  ( 0  0  1)

16 k-points: 4 x 4 x 1 Monkhorst-Pack grid
8 k-points in the irreducible part of the Brillouin zone
       k-points in crystal coordinates                weights
   0:     0.12500000   -0.37500000    0.00000000          2/16
   1:     0.12500000   -0.12500000    0.00000000          2/16
   2:     0.12500000    0.12500000    0.00000000          2/16
   3:     0.12500000    0.37500000    0.00000000          2/16
   4:     0.37500000   -0.37500000    0.00000000          2/16
   5:     0.37500000   -0.12500000    0.00000000          2/16
   6:     0.37500000    0.12500000    0.00000000          2/16
   7:     0.37500000    0.37500000    0.00000000          2/16

Wave functions: Uniform real-space grid
  Kinetic energy operator: 6*3+1=19 point O(h^6) finite-difference Laplacian
  ScaLapack parameters: grid=1x1, blocksize=None
  Wavefunction extrapolation:
    Improved wavefunction reuse through dual PAW basis 

Occupation numbers: Fermi-Dirac:
  width: 0.0500  # eV
 

Eigensolver
   Davidson(niter=2) 

Densities:
  Coarse grid: 60*60*156 grid
  Fine grid: 120*120*312 grid
  Total Charge: 0.000000 

Density mixing:
  Method: separate
  Backend: pulay
  Linear mixing parameter: 0.05
  old densities: 5
  Damping of long wavelength oscillations: 50 

Hamiltonian:
  XC and Coulomb potentials evaluated on a 120*120*312 grid
  Using the BEEF-vdW Exchange-Correlation functional
  Interpolation: tri-quintic (5. degree polynomial)
  Poisson solver: FastPoissonSolver using
    Stencil: 6*3+1=19 point O(h^6) finite-difference Laplacian
    FFT axes: [0, 1]
    FST axes: [2]

Dipole correction along z-axis 

XC parameters: BEEF-vdW with 2 nearest neighbor stencil

Memory estimate:
  Process memory now: 219.09 MiB
  Calculator: 411.72 MiB
    Density: 118.00 MiB
      Arrays: 36.75 MiB
      Localized functions: 67.24 MiB
      Mixer: 14.01 MiB
    Hamiltonian: 29.35 MiB
      Arrays: 24.03 MiB
      XC: 0.00 MiB
      Poisson: 0.00 MiB
      vbar: 5.32 MiB
    Wavefunctions: 264.37 MiB
      Arrays psit_nG: 123.27 MiB
      Eigensolver: 137.57 MiB
      Projections: 0.06 MiB
      Projectors: 3.47 MiB

Total number of cores used: 24
Parallelization over k-points: 8
Domain decomposition: 1 x 1 x 3

Number of atoms: 47
Number of atomic orbitals: 170
Number of bands in calculation: 44
Number of valence electrons: 66
Bands to converge: occupied

... initialized

Initializing position-dependent things.

Creating initial wave functions:
  44 bands from LCAO basis set

       .-----------------------.  
      /|                       |  
     / |                       |  
    /  |                       |  
   /   |                       |  
  /    |                       |  
 *     H  H                    |  
 |     |                       |  
 |    C|                       |  
 |     OH                   H H|  
 |     |                       |  
 |     |Li                     |  
 |     |        Li      H      |  
 |     |                       |  
 |     |     Li      Li      Li|  
 |  Li |  Li      LiLi    Li   |  
 |     |   Li         N N      |  
 |     |Li      Li Li   Li     |  
 |     |                       |  
 |   LLi     LiLi    LiLi      |  
 |     |  Li      Li      Li   |  
 | Li  |   Li      Li          |  
 |     |Li      Li      Li     |  
 Li    | Li      Li            |  
 |    Li      Li      Li       |  
 |     |                       |  
 |     |                       |  
 |     |                       |  
 |     |                       |  
 |     |                       |  
 |     |                       |  
 |     .-----------------------.  
 |    /                       /   
 |   /                       /    
 |  /                       /     
 | /                       /      
 |/                       /       
 *-----------------------*        

Positions:
   0 Li     1.617037    1.617037   10.000000    ( 0.0000,  0.0000,  0.0000)
   1 Li     4.851111    1.617037   10.000000    ( 0.0000,  0.0000,  0.0000)
   2 Li     8.085185    1.617037   10.000000    ( 0.0000,  0.0000,  0.0000)
   3 Li     1.617037    4.851111   10.000000    ( 0.0000,  0.0000,  0.0000)
   4 Li     4.851111    4.851111   10.000000    ( 0.0000,  0.0000,  0.0000)
   5 Li     8.085185    4.851111   10.000000    ( 0.0000,  0.0000,  0.0000)
   6 Li     1.617037    8.085185   10.000000    ( 0.0000,  0.0000,  0.0000)
   7 Li     4.851111    8.085185   10.000000    ( 0.0000,  0.0000,  0.0000)
   8 Li     8.085185    8.085185   10.000000    ( 0.0000,  0.0000,  0.0000)
   9 Li     0.000000    0.000000   11.617037    ( 0.0000,  0.0000,  0.0000)
  10 Li     3.234074    0.000000   11.617037    ( 0.0000,  0.0000,  0.0000)
  11 Li     6.468148    0.000000   11.617037    ( 0.0000,  0.0000,  0.0000)
  12 Li     0.000000    3.234074   11.617037    ( 0.0000,  0.0000,  0.0000)
  13 Li     3.234074    3.234074   11.617037    ( 0.0000,  0.0000,  0.0000)
  14 Li     6.468148    3.234074   11.617037    ( 0.0000,  0.0000,  0.0000)
  15 Li     0.000000    6.468148   11.617037    ( 0.0000,  0.0000,  0.0000)
  16 Li     3.234074    6.468148   11.617037    ( 0.0000,  0.0000,  0.0000)
  17 Li     6.468148    6.468148   11.617037    ( 0.0000,  0.0000,  0.0000)
  18 Li     1.751885    1.517302   13.564521    ( 0.0000,  0.0000,  0.0000)
  19 Li     5.080551    1.713251   13.517967    ( 0.0000,  0.0000,  0.0000)
  20 Li     8.408812    1.695429   13.832979    ( 0.0000,  0.0000,  0.0000)
  21 Li     1.625021    4.750435   13.530998    ( 0.0000,  0.0000,  0.0000)
  22 Li     4.983315    4.847635   13.537535    ( 0.0000,  0.0000,  0.0000)
  23 Li     8.099058    4.842347   13.472756    ( 0.0000,  0.0000,  0.0000)
  24 Li     1.647420    8.075805   13.436402    ( 0.0000,  0.0000,  0.0000)
  25 Li     4.942173    8.174878   13.398034    ( 0.0000,  0.0000,  0.0000)
  26 Li     8.224204    8.161881   13.505068    ( 0.0000,  0.0000,  0.0000)
  27 Li     0.532243   -0.130466   15.768533    ( 0.0000,  0.0000,  0.0000)
  28 Li     3.791962   -0.054143   15.427900    ( 0.0000,  0.0000,  0.0000)
  29 Li     7.039502    0.519541   15.762368    ( 0.0000,  0.0000,  0.0000)
  30 Li     0.265455    3.030363   15.734835    ( 0.0000,  0.0000,  0.0000)
  31 Li     3.414024    3.212931   15.459303    ( 0.0000,  0.0000,  0.0000)
  32 Li     6.799349    3.513872   15.617905    ( 0.0000,  0.0000,  0.0000)
  33 Li    -0.045759    6.184400   15.455165    ( 0.0000,  0.0000,  0.0000)
  34 Li     3.218901    6.446289   15.341660    ( 0.0000,  0.0000,  0.0000)
  35 Li     6.424832    6.803240   15.386462    ( 0.0000,  0.0000,  0.0000)
  36 O      9.931090    9.032254   17.649415    ( 0.0000,  0.0000,  0.0000)
  37 C      9.865001    8.192433   18.818324    ( 0.0000,  0.0000,  0.0000)
  38 C      9.988564    8.989111   20.103937    ( 0.0000,  0.0000,  0.0000)
  39 H      8.944207    7.604541   18.777539    ( 0.0000,  0.0000,  0.0000)
  40 H     10.701064    7.500896   18.720912    ( 0.0000,  0.0000,  0.0000)
  41 H      9.957330    8.332022   20.976305    ( 0.0000,  0.0000,  0.0000)
  42 H     10.930886    9.534032   20.124393    ( 0.0000,  0.0000,  0.0000)
  43 H      9.180878    9.719638   20.191474    ( 0.0000,  0.0000,  0.0000)
  44 H      9.175541    9.647654   17.652338    ( 0.0000,  0.0000,  0.0000)
  45 N      8.959580   11.017348   15.961891    ( 0.0000,  0.0000,  0.0000)
  46 N      8.116497   11.946229   15.842172    ( 0.0000,  0.0000,  0.0000)

Unit cell:
           periodic     x           y           z      points  spacing
  1. axis:    yes    9.702222    0.000000    0.000000    60     0.1617
  2. axis:    yes    0.000000    9.702222    0.000000    60     0.1617
  3. axis:    no     0.000000    0.000000   24.851111   156     0.1593

  Lengths:   9.702222   9.702222  24.851111
  Angles:   90.000000  90.000000  90.000000

Effective grid spacing dv^(1/3) = 0.1609

     iter     time        total  log10-change:
                         energy  eigst   dens
iter:   1 23:01:06  -309.078776  +1.06
iter:   2 23:01:49  -309.692761  +0.38  -1.73
iter:   3 23:02:32  -309.843598  -0.11  -2.01
iter:   4 23:03:14  -309.902286  -0.50  -2.26
Writing to output.gpw (mode='')

iter:   5 23:03:58  -309.928930  -0.84  -2.45
iter:   6 23:04:41  -309.942018  -1.15  -2.57
iter:   7 23:05:24  -309.949154c -1.39  -2.68
iter:   8 23:06:08  -309.953772c -1.59  -2.89
iter:   9 23:06:51  -309.956643c -1.83  -3.08
Writing to output.gpw (mode='')

iter:  10 23:07:35  -309.958681c -1.99  -3.15
iter:  11 23:08:18  -309.960514c -2.12  -3.19
iter:  12 23:09:01  -309.961361c -2.33  -3.17
iter:  13 23:09:44  -309.962074c -2.44  -3.32
iter:  14 23:10:27  -309.962635c -2.64  -3.46
Writing to output.gpw (mode='')

iter:  15 23:11:11  -309.962975c -2.82  -3.29
iter:  16 23:11:54  -309.963212c -2.92  -3.25
iter:  17 23:12:38  -309.963345c -3.04  -3.26
iter:  18 23:13:21  -309.963478c -3.23  -3.51
iter:  19 23:14:04  -309.963573c -3.30  -3.50
Writing to output.gpw (mode='')

iter:  20 23:14:48  -309.963651c -3.47  -3.47
iter:  21 23:15:32  -309.963738c -3.43  -3.43
iter:  22 23:16:15  -309.963780c -3.64  -3.20
iter:  23 23:16:59  -309.963805c -3.85  -3.17
iter:  24 23:17:42  -309.963814c -3.98  -3.21
Writing to output.gpw (mode='')

iter:  25 23:18:26  -309.963871c -3.81  -3.33
iter:  26 23:19:10  -309.963901c -4.01  -3.63
iter:  27 23:19:53  -309.963881c -4.32  -3.56
iter:  28 23:20:37  -309.963823c -4.17  -3.67
iter:  29 23:21:20  -309.963845c -4.69  -3.79
Writing to output.gpw (mode='')

iter:  30 23:22:04  -309.963860c -4.66  -3.99
iter:  31 23:22:48  -309.963860c -4.89  -4.12c
iter:  32 23:23:31  -309.963870c -4.95  -4.09c
iter:  33 23:24:14  -309.963880c -4.99  -4.13c
iter:  34 23:24:58  -309.963884c -5.09  -4.28c
Writing to output.gpw (mode='')

iter:  35 23:25:45  -309.963884c -5.30  -4.35c
iter:  36 23:26:28  -309.963878c -5.19  -4.38c
iter:  37 23:27:11  -309.963881c -5.46  -4.52c
iter:  38 23:27:54  -309.963884c -5.52  -4.57c
iter:  39 23:28:38  -309.963887c -5.71  -4.64c
Writing to output.gpw (mode='')

iter:  40 23:29:23  -309.963886c -5.79  -4.65c
iter:  41 23:30:06  -309.963886c -5.82  -4.77c
iter:  42 23:30:49  -309.963886c -5.83  -4.79c
iter:  43 23:31:33  -309.963886c -6.19  -4.88c
iter:  44 23:32:16  -309.963886c -6.18  -4.88c
Writing to output.gpw (mode='')

iter:  45 23:33:00  -309.963886c -6.36  -4.88c
iter:  46 23:33:44  -309.963886c -6.41  -5.10c
iter:  47 23:34:27  -309.963886c -6.46  -5.18c
iter:  48 23:35:11  -309.963886c -6.60  -5.21c
iter:  49 23:35:54  -309.963887c -6.65  -5.27c
Writing to output.gpw (mode='')

iter:  50 23:36:40  -309.963887c -6.70  -5.47c
iter:  51 23:37:23  -309.963887c -6.75  -5.62c
iter:  52 23:38:07  -309.963887c -6.89  -5.67c
iter:  53 23:38:51  -309.963887c -7.05  -5.64c
iter:  54 23:39:34  -309.963887c -7.02  -5.55c
Writing to output.gpw (mode='')

iter:  55 23:40:18  -309.963887c -6.97  -5.67c
iter:  56 23:41:02  -309.963887c -7.11  -5.78c
iter:  57 23:41:46  -309.963887c -7.11  -5.88c
iter:  58 23:42:29  -309.963887c -7.26  -5.95c
iter:  59 23:43:13  -309.963887c -7.49c -6.04c

Converged after 59 iterations.

Dipole moment: (-34.118019, 5.003427, 0.322831) |e|*Ang

Energy contributions relative to reference atoms: (reference = -14434.854043)

Kinetic:       +147.292868
Potential:     -139.875232
External:        +0.000000
XC:            -318.087682
Entropy (-ST):   -0.152523
Local:           +0.782420
--------------------------
Free energy:   -310.040149
Extrapolated:  -309.963887

Dipole-layer corrected work functions: 3.392130, 2.771538 eV

Showing only first 2 kpts
 Kpt  Band  Eigenvalues  Occupancy
  0    31     -3.27262    1.95691
  0    32     -3.12779    1.42972
  0    33     -3.07121    0.89415
  0    34     -2.94590    0.12377

  1    31     -3.38031    1.99490
  1    32     -3.00113    0.33204
  1    33     -2.97541    0.21271
  1    34     -2.92612    0.08504


Fermi level: -3.08183

No gap
Writing to output.gpw (mode='')


Forces in eV/Ang:
  0 Li   -0.01882    0.00285   -0.30882
  1 Li   -0.02140    0.00681   -0.27950
  2 Li   -0.00473    0.00122   -0.27991
  3 Li   -0.00674    0.00007   -0.29449
  4 Li   -0.02196    0.00280   -0.28236
  5 Li   -0.00998   -0.00186   -0.30009
  6 Li   -0.00877   -0.00917   -0.28396
  7 Li   -0.01827   -0.01304   -0.28402
  8 Li   -0.00221   -0.00855   -0.29385
  9 Li    0.00505    0.11942    0.31121
 10 Li    0.08193    0.06792    0.25995
 11 Li    0.15300    0.09507    0.30827
 12 Li    0.01282   -0.06721    0.28424
 13 Li    0.05729   -0.02922    0.33898
 14 Li    0.16168   -0.05499    0.29689
 15 Li    0.00997   -0.02908    0.29314
 16 Li    0.05780   -0.04106    0.32867
 17 Li    0.07652    0.03043    0.28292
 18 Li    0.06618    0.01821   -0.03296
 19 Li    0.00397   -0.04160    0.02447
 20 Li    0.00259   -0.00908   -0.11987
 21 Li   -0.00312   -0.00369   -0.01629
 22 Li   -0.04634    0.04925   -0.03554
 23 Li    0.03032    0.02728   -0.00902
 24 Li    0.03246   -0.02098    0.06483
 25 Li   -0.00936   -0.02132    0.03352
 26 Li   -0.05297    0.00535    0.05060
 27 Li   -0.09847    0.04977    0.08463
 28 Li   -0.04102   -0.01096    0.01544
 29 Li   -0.01749   -0.03826   -0.02143
 30 Li   -0.02668    0.12610   -0.00782
 31 Li   -0.00552    0.03482   -0.01051
 32 Li   -0.02871   -0.00329   -0.00510
 33 Li    0.04142    0.07543   -0.04849
 34 Li   -0.00205   -0.00724    0.01562
 35 Li   -0.02871   -0.01684    0.01863
 36 O    -0.01395    0.03278    0.16989
 37 C     0.18527   -0.06652   -0.11819
 38 C    -0.06312    0.08567    0.03458
 39 H    -0.12770   -0.03403    0.11896
 40 H     0.06187   -0.07077   -0.04482
 41 H    -0.05984   -0.03506   -0.03591
 42 H     0.08989    0.03815   -0.01920
 43 H    -0.05795   -0.01357    0.04641
 44 H     0.06333    0.00756    0.02612
 45 N    -0.12150   -0.28827   -0.35358
 46 N    -0.27118    0.05585    0.08162

System changes: positions 

Initializing position-dependent things.

Density initialized from wave functions
       .-----------------------.  
      /|                       |  
     / |                       |  
    /  |                       |  
   /   |                       |  
  /    |                       |  
 *     H  H                    |  
 |     |                       |  
 |    C|                       |  
 |     OH                   H H|  
 |     |                       |  
 |     |Li                     |  
 |     |        Li      H      |  
 |     |                       |  
 |     |     Li      Li      Li|  
 |     |  Li      LiLi    Li   |  
 |  Li |   Li         N N      |  
 |     |Li      Li Li   Li     |  
 |     |                       |  
 |   LLi     LiLi    LiLi      |  
 |     |  Li      Li      Li   |  
 | Li  |   Li      Li          |  
 |     |Li      Li      Li     |  
 Li    | Li      Li            |  
 |    Li      Li      Li       |  
 |     |                       |  
 |     |                       |  
 |     |                       |  
 |     |                       |  
 |     |                       |  
 |     |                       |  
 |     .-----------------------.  
 |    /                       /   
 |   /                       /    
 |  /                       /     
 | /                       /      
 |/                       /       
 *-----------------------*        

Positions:
   0 Li     1.617037    1.617037   10.000000    ( 0.0000,  0.0000,  0.0000)
   1 Li     4.851111    1.617037   10.000000    ( 0.0000,  0.0000,  0.0000)
   2 Li     8.085185    1.617037   10.000000    ( 0.0000,  0.0000,  0.0000)
   3 Li     1.617037    4.851111   10.000000    ( 0.0000,  0.0000,  0.0000)
   4 Li     4.851111    4.851111   10.000000    ( 0.0000,  0.0000,  0.0000)
   5 Li     8.085185    4.851111   10.000000    ( 0.0000,  0.0000,  0.0000)
   6 Li     1.617037    8.085185   10.000000    ( 0.0000,  0.0000,  0.0000)
   7 Li     4.851111    8.085185   10.000000    ( 0.0000,  0.0000,  0.0000)
   8 Li     8.085185    8.085185   10.000000    ( 0.0000,  0.0000,  0.0000)
   9 Li     0.000000    0.000000   11.617037    ( 0.0000,  0.0000,  0.0000)
  10 Li     3.234074    0.000000   11.617037    ( 0.0000,  0.0000,  0.0000)
  11 Li     6.468148    0.000000   11.617037    ( 0.0000,  0.0000,  0.0000)
  12 Li     0.000000    3.234074   11.617037    ( 0.0000,  0.0000,  0.0000)
  13 Li     3.234074    3.234074   11.617037    ( 0.0000,  0.0000,  0.0000)
  14 Li     6.468148    3.234074   11.617037    ( 0.0000,  0.0000,  0.0000)
  15 Li     0.000000    6.468148   11.617037    ( 0.0000,  0.0000,  0.0000)
  16 Li     3.234074    6.468148   11.617037    ( 0.0000,  0.0000,  0.0000)
  17 Li     6.468148    6.468148   11.617037    ( 0.0000,  0.0000,  0.0000)
  18 Li     1.753573    1.517534   13.561704    ( 0.0000,  0.0000,  0.0000)
  19 Li     5.083122    1.710983   13.524583    ( 0.0000,  0.0000,  0.0000)
  20 Li     8.420804    1.692803   13.832857    ( 0.0000,  0.0000,  0.0000)
  21 Li     1.631298    4.753206   13.525613    ( 0.0000,  0.0000,  0.0000)
  22 Li     4.977223    4.854923   13.530544    ( 0.0000,  0.0000,  0.0000)
  23 Li     8.095963    4.852675   13.459624    ( 0.0000,  0.0000,  0.0000)
  24 Li     1.658106    8.064230   13.424177    ( 0.0000,  0.0000,  0.0000)
  25 Li     4.937234    8.167661   13.403627    ( 0.0000,  0.0000,  0.0000)
  26 Li     8.218582    8.161561   13.510954    ( 0.0000,  0.0000,  0.0000)
  27 Li     0.519645   -0.133088   15.751951    ( 0.0000,  0.0000,  0.0000)
  28 Li     3.785219   -0.058166   15.430187    ( 0.0000,  0.0000,  0.0000)
  29 Li     7.047663    0.514967   15.761833    ( 0.0000,  0.0000,  0.0000)
  30 Li     0.264293    3.036556   15.709602    ( 0.0000,  0.0000,  0.0000)
  31 Li     3.416431    3.222330   15.455416    ( 0.0000,  0.0000,  0.0000)
  32 Li     6.786275    3.512606   15.602316    ( 0.0000,  0.0000,  0.0000)
  33 Li    -0.037449    6.191874   15.442173    ( 0.0000,  0.0000,  0.0000)
  34 Li     3.215834    6.443066   15.349221    ( 0.0000,  0.0000,  0.0000)
  35 Li     6.419352    6.796453   15.396158    ( 0.0000,  0.0000,  0.0000)
  36 O      9.930772    9.021478   17.660085    ( 0.0000,  0.0000,  0.0000)
  37 C      9.866511    8.183624   18.829082    ( 0.0000,  0.0000,  0.0000)
  38 C      9.990435    8.986456   20.109424    ( 0.0000,  0.0000,  0.0000)
  39 H      8.936136    7.602311   18.801777    ( 0.0000,  0.0000,  0.0000)
  40 H     10.718157    7.506202   18.736538    ( 0.0000,  0.0000,  0.0000)
  41 H      9.943676    8.332287   20.979237    ( 0.0000,  0.0000,  0.0000)
  42 H     10.933148    9.533290   20.130488    ( 0.0000,  0.0000,  0.0000)
  43 H      9.182035    9.711482   20.212093    ( 0.0000,  0.0000,  0.0000)
  44 H      9.188780    9.649088   17.668103    ( 0.0000,  0.0000,  0.0000)
  45 N      8.957387   11.013942   15.938680    ( 0.0000,  0.0000,  0.0000)
  46 N      8.111363   11.944964   15.838819    ( 0.0000,  0.0000,  0.0000)

Unit cell:
           periodic     x           y           z      points  spacing
  1. axis:    yes    9.702222    0.000000    0.000000    60     0.1617
  2. axis:    yes    0.000000    9.702222    0.000000    60     0.1617
  3. axis:    no     0.000000    0.000000   24.851111   156     0.1593

  Lengths:   9.702222   9.702222  24.851111
  Angles:   90.000000  90.000000  90.000000

Effective grid spacing dv^(1/3) = 0.1609

     iter     time        total  log10-change:
                         energy  eigst   dens
iter:   1 23:44:13  -310.046613  -0.87
iter:   2 23:44:57  -310.002074  -1.48  -1.70
iter:   3 23:45:40  -309.989103  -2.22  -1.88
iter:   4 23:46:24  -309.983431c -2.42  -2.12
Writing to output.gpw (mode='')

iter:   5 23:47:08  -309.980298c -2.20  -2.27
iter:   6 23:47:51  -309.980426c -2.01  -2.51
iter:   7 23:48:34  -309.979285c -2.96  -2.50
iter:   8 23:49:18  -309.979112c -2.70  -2.73
iter:   9 23:50:01  -309.979139c -3.30  -2.89
Writing to output.gpw (mode='')

iter:  10 23:50:46  -309.978876c -3.33  -2.93
iter:  11 23:51:29  -309.978920c -3.68  -3.03
iter:  12 23:52:12  -309.978998c -3.81  -3.20
iter:  13 23:52:56  -309.978971c -4.32  -3.24
iter:  14 23:53:39  -309.978923c -4.00  -3.39
Writing to output.gpw (mode='')

iter:  15 23:54:23  -309.978957c -4.29  -3.44
iter:  16 23:55:07  -309.978930c -4.60  -3.59
iter:  17 23:55:50  -309.978932c -5.12  -3.76
iter:  18 23:56:33  -309.978940c -5.13  -3.84
iter:  19 23:57:17  -309.978939c -5.16  -4.00
Writing to output.gpw (mode='')

iter:  20 23:58:01  -309.978939c -5.39  -4.06c
iter:  21 23:58:45  -309.978941c -5.68  -4.11c
iter:  22 23:59:28  -309.978940c -5.82  -4.25c
iter:  23 00:00:11  -309.978939c -6.10  -4.41c
iter:  24 00:00:55  -309.978939c -6.32  -4.48c
Writing to output.gpw (mode='')

iter:  25 00:01:42  -309.978938c -6.27  -4.51c
iter:  26 00:02:26  -309.978938c -6.29  -4.61c
iter:  27 00:03:09  -309.978938c -6.65  -4.66c
iter:  28 00:03:52  -309.978939c -6.51  -4.72c
iter:  29 00:04:36  -309.978938c -6.98  -4.91c
Writing to output.gpw (mode='')

iter:  30 00:05:20  -309.978939c -6.85  -4.95c
iter:  31 00:06:03  -309.978939c -7.10  -5.01c
iter:  32 00:06:46  -309.978939c -7.10  -5.09c
iter:  33 00:07:30  -309.978939c -7.27  -5.15c
iter:  34 00:08:13  -309.978939c -7.41c -5.20c

Converged after 34 iterations.

Dipole moment: (-34.279466, 5.001194, 0.324224) |e|*Ang

Energy contributions relative to reference atoms: (reference = -14434.854043)

Kinetic:       +147.192437
Potential:     -139.782366
External:        +0.000000
XC:            -318.094432
Entropy (-ST):   -0.153138
Local:           +0.781991
--------------------------
Free energy:   -310.055507
Extrapolated:  -309.978939

Dipole-layer corrected work functions: 3.392328, 2.769059 eV

Showing only first 2 kpts
 Kpt  Band  Eigenvalues  Occupancy
  0    31     -3.27223    1.95754
  0    32     -3.12616    1.42570
  0    33     -3.06920    0.88555
  0    34     -2.94719    0.12952

  1    31     -3.37910    1.99490
  1    32     -2.99997    0.33193
  1    33     -2.97352    0.20990
  1    34     -2.92693    0.08827


Fermi level: -3.08069

No gap
Writing to output.gpw (mode='')


Forces in eV/Ang:
  0 Li   -0.01932    0.00252   -0.30838
  1 Li   -0.02089    0.00724   -0.28083
  2 Li   -0.00469    0.00078   -0.27952
  3 Li   -0.00617    0.00104   -0.29294
  4 Li   -0.02162    0.00315   -0.28177
  5 Li   -0.01077   -0.00178   -0.30059
  6 Li   -0.00792   -0.00929   -0.28500
  7 Li   -0.01887   -0.01349   -0.28299
  8 Li   -0.00200   -0.00833   -0.29373
  9 Li    0.00547    0.11333    0.31573
 10 Li    0.08702    0.06822    0.25937
 11 Li    0.14851    0.09178    0.31221
 12 Li    0.01486   -0.06559    0.28522
 13 Li    0.06016   -0.03182    0.33707
 14 Li    0.15844   -0.05752    0.30174
 15 Li    0.00936   -0.02554    0.28890
 16 Li    0.06264   -0.04401    0.31352
 17 Li    0.07285    0.03689    0.27559
 18 Li    0.06975    0.01518   -0.03277
 19 Li    0.00085   -0.04141    0.01549
 20 Li   -0.02236   -0.00459   -0.13834
 21 Li   -0.00789   -0.00468   -0.01797
 22 Li   -0.04504    0.04553   -0.03168
 23 Li    0.03073    0.01584    0.00712
 24 Li    0.01970   -0.00745    0.08050
 25 Li   -0.00236   -0.01547    0.02851
 26 Li   -0.04926    0.00539    0.04006
 27 Li   -0.09844    0.02739    0.12256
 28 Li   -0.03778   -0.00759    0.01589
 29 Li   -0.04485   -0.04793   -0.02727
 30 Li   -0.06020    0.09746    0.01466
 31 Li   -0.00844    0.02910   -0.00997
 32 Li    0.01262   -0.03579    0.01123
 33 Li    0.03556    0.07185   -0.04330
 34 Li    0.00017   -0.00597    0.01312
 35 Li   -0.02633   -0.01430    0.01330
 36 O     0.06439    0.01994    0.02409
 37 C     0.14101    0.00049   -0.08092
 38 C    -0.05787    0.12276    0.08335
 39 H     0.05240   -0.05202    0.05368
 40 H    -0.09731   -0.11076   -0.05678
 41 H     0.04735   -0.11854    0.06287
 42 H     0.05116   -0.00549    0.00850
 43 H    -0.10018    0.05099   -0.05088
 44 H    -0.02384    0.04782    0.04706
 45 N    -0.15678   -0.21372   -0.25103
 46 N    -0.21048    0.05994    0.06084

System changes: positions 

Initializing position-dependent things.

Density initialized from wave functions
       .-----------------------.  
      /|                       |  
     / |                       |  
    /  |                       |  
   /   |                       |  
  /    |                       |  
 *     H  H                    |  
 |     |                       |  
 |    C|                       |  
 |     OH                   H H|  
 |     |                       |  
 |     |Li                     |  
 |     |        Li      H      |  
 |     |                       |  
 |     |     Li      Li      Li|  
 |     |  Li      LiLi    Li   |  
 |  Li |   Li         N N      |  
 |     |Li      Li Li   Li     |  
 |     |                       |  
 |   LLi     LiLi    LiLi      |  
 |     |  Li      Li      Li   |  
 | Li  |   Li      Li          |  
 |     |Li      Li      Li     |  
 Li    | Li      Li            |  
 |    Li      Li      Li       |  
 |     |                       |  
 |     |                       |  
 |     |                       |  
 |     |                       |  
 |     |                       |  
 |     |                       |  
 |     .-----------------------.  
 |    /                       /   
 |   /                       /    
 |  /                       /     
 | /                       /      
 |/                       /       
 *-----------------------*        

Positions:
   0 Li     1.617037    1.617037   10.000000    ( 0.0000,  0.0000,  0.0000)
   1 Li     4.851111    1.617037   10.000000    ( 0.0000,  0.0000,  0.0000)
   2 Li     8.085185    1.617037   10.000000    ( 0.0000,  0.0000,  0.0000)
   3 Li     1.617037    4.851111   10.000000    ( 0.0000,  0.0000,  0.0000)
   4 Li     4.851111    4.851111   10.000000    ( 0.0000,  0.0000,  0.0000)
   5 Li     8.085185    4.851111   10.000000    ( 0.0000,  0.0000,  0.0000)
   6 Li     1.617037    8.085185   10.000000    ( 0.0000,  0.0000,  0.0000)
   7 Li     4.851111    8.085185   10.000000    ( 0.0000,  0.0000,  0.0000)
   8 Li     8.085185    8.085185   10.000000    ( 0.0000,  0.0000,  0.0000)
   9 Li     0.000000    0.000000   11.617037    ( 0.0000,  0.0000,  0.0000)
  10 Li     3.234074    0.000000   11.617037    ( 0.0000,  0.0000,  0.0000)
  11 Li     6.468148    0.000000   11.617037    ( 0.0000,  0.0000,  0.0000)
  12 Li     0.000000    3.234074   11.617037    ( 0.0000,  0.0000,  0.0000)
  13 Li     3.234074    3.234074   11.617037    ( 0.0000,  0.0000,  0.0000)
  14 Li     6.468148    3.234074   11.617037    ( 0.0000,  0.0000,  0.0000)
  15 Li     0.000000    6.468148   11.617037    ( 0.0000,  0.0000,  0.0000)
  16 Li     3.234074    6.468148   11.617037    ( 0.0000,  0.0000,  0.0000)
  17 Li     6.468148    6.468148   11.617037    ( 0.0000,  0.0000,  0.0000)
  18 Li     1.755217    1.525192   13.558841    ( 0.0000,  0.0000,  0.0000)
  19 Li     5.082934    1.708931   13.529016    ( 0.0000,  0.0000,  0.0000)
  20 Li     8.421350    1.695151   13.826171    ( 0.0000,  0.0000,  0.0000)
  21 Li     1.631871    4.752995   13.525244    ( 0.0000,  0.0000,  0.0000)
  22 Li     4.972201    4.859771   13.524534    ( 0.0000,  0.0000,  0.0000)
  23 Li     8.094929    4.858140   13.456521    ( 0.0000,  0.0000,  0.0000)
  24 Li     1.665253    8.057345   13.425857    ( 0.0000,  0.0000,  0.0000)
  25 Li     4.935403    8.165815   13.406546    ( 0.0000,  0.0000,  0.0000)
  26 Li     8.208898    8.161227   13.514847    ( 0.0000,  0.0000,  0.0000)
  27 Li     0.510224   -0.137602   15.750759    ( 0.0000,  0.0000,  0.0000)
  28 Li     3.772459   -0.061187   15.432523    ( 0.0000,  0.0000,  0.0000)
  29 Li     7.049836    0.511562   15.758984    ( 0.0000,  0.0000,  0.0000)
  30 Li     0.261383    3.048252   15.697611    ( 0.0000,  0.0000,  0.0000)
  31 Li     3.417215    3.227464   15.451382    ( 0.0000,  0.0000,  0.0000)
  32 Li     6.778064    3.505687   15.590557    ( 0.0000,  0.0000,  0.0000)
  33 Li    -0.031381    6.201313   15.436849    ( 0.0000,  0.0000,  0.0000)
  34 Li     3.215776    6.440766   15.354200    ( 0.0000,  0.0000,  0.0000)
  35 Li     6.414887    6.790419   15.401457    ( 0.0000,  0.0000,  0.0000)
  36 O      9.933478    9.017827   17.672605    ( 0.0000,  0.0000,  0.0000)
  37 C      9.867431    8.178771   18.839400    ( 0.0000,  0.0000,  0.0000)
  38 C      9.989505    8.988710   20.119773    ( 0.0000,  0.0000,  0.0000)
  39 H      8.933596    7.596942   18.817563    ( 0.0000,  0.0000,  0.0000)
  40 H     10.722416    7.504862   18.746283    ( 0.0000,  0.0000,  0.0000)
  41 H      9.938484    8.339892   20.991118    ( 0.0000,  0.0000,  0.0000)
  42 H     10.934250    9.534299   20.135164    ( 0.0000,  0.0000,  0.0000)
  43 H      9.179412    9.711259   20.221391    ( 0.0000,  0.0000,  0.0000)
  44 H      9.194638    9.649183   17.678546    ( 0.0000,  0.0000,  0.0000)
  45 N      8.954156   11.015129   15.932964    ( 0.0000,  0.0000,  0.0000)
  46 N      8.109354   11.949907   15.844370    ( 0.0000,  0.0000,  0.0000)

Unit cell:
           periodic     x           y           z      points  spacing
  1. axis:    yes    9.702222    0.000000    0.000000    60     0.1617
  2. axis:    yes    0.000000    9.702222    0.000000    60     0.1617
  3. axis:    no     0.000000    0.000000   24.851111   156     0.1593

  Lengths:   9.702222   9.702222  24.851111
  Angles:   90.000000  90.000000  90.000000

Effective grid spacing dv^(1/3) = 0.1609

     iter     time        total  log10-change:
                         energy  eigst   dens
iter:   1 00:09:14  -309.999331  -1.26
iter:   2 00:09:57  -309.992695  -2.05  -2.09
iter:   3 00:10:41  -309.990663c -2.60  -2.23
iter:   4 00:11:24  -309.988833c -2.83  -2.36
Writing to output.gpw (mode='')

iter:   5 00:12:12  -309.987379c -2.47  -2.51
iter:   6 00:12:56  -309.987356c -2.65  -2.69
iter:   7 00:13:39  -309.987109c -3.45  -2.69
iter:   8 00:14:23  -309.987063c -3.23  -3.00
iter:   9 00:15:06  -309.987058c -3.94  -3.06
Writing to output.gpw (mode='')

iter:  10 00:15:50  -309.987119c -3.62  -3.18
iter:  11 00:16:33  -309.987081c -4.44  -3.30
iter:  12 00:17:16  -309.987070c -4.64  -3.48
iter:  13 00:18:00  -309.987051c -4.52  -3.54
iter:  14 00:18:43  -309.987036c -4.76  -3.73
Writing to output.gpw (mode='')

iter:  15 00:19:26  -309.987033c -5.04  -3.79
iter:  16 00:20:10  -309.987038c -5.32  -3.86
iter:  17 00:20:53  -309.987045c -5.27  -3.96
iter:  18 00:21:36  -309.987046c -5.47  -4.00c
iter:  19 00:22:19  -309.987049c -5.61  -4.21c
Writing to output.gpw (mode='')

iter:  20 00:23:03  -309.987049c -5.98  -4.24c
iter:  21 00:23:46  -309.987045c -6.20  -4.29c
iter:  22 00:24:30  -309.987042c -6.09  -4.40c
iter:  23 00:25:13  -309.987044c -6.45  -4.54c
iter:  24 00:25:56  -309.987045c -6.53  -4.73c
Writing to output.gpw (mode='')

iter:  25 00:26:40  -309.987044c -6.61  -4.75c
iter:  26 00:27:23  -309.987044c -6.80  -4.88c
iter:  27 00:28:06  -309.987044c -7.07  -4.92c
iter:  28 00:28:50  -309.987045c -7.21  -4.96c
iter:  29 00:29:33  -309.987045c -7.22  -5.03c
Writing to output.gpw (mode='')

iter:  30 00:30:19  -309.987045c -7.28  -5.18c
iter:  31 00:31:03  -309.987045c -7.42c -5.23c

Converged after 31 iterations.

Dipole moment: (-34.421063, 5.062884, 0.323178) |e|*Ang

Energy contributions relative to reference atoms: (reference = -14434.854043)

Kinetic:       +146.704183
Potential:     -139.422927
External:        +0.000000
XC:            -317.973086
Entropy (-ST):   -0.153413
Local:           +0.781492
--------------------------
Free energy:   -310.063751
Extrapolated:  -309.987045

Dipole-layer corrected work functions: 3.392535, 2.771276 eV

Showing only first 2 kpts
 Kpt  Band  Eigenvalues  Occupancy
  0    31     -3.27395    1.95795
  0    32     -3.12716    1.42399
  0    33     -3.07005    0.88195
  0    34     -2.94883    0.13056

  1    31     -3.38127    1.99499
  1    32     -3.00152    0.33384
  1    33     -2.97490    0.21051
  1    34     -2.92792    0.08790


Fermi level: -3.08191

No gap
Writing to output.gpw (mode='')


Forces in eV/Ang:
  0 Li   -0.01945    0.00238   -0.30809
  1 Li   -0.02087    0.00728   -0.28163
  2 Li   -0.00460    0.00043   -0.27905
  3 Li   -0.00579    0.00142   -0.29232
  4 Li   -0.02149    0.00311   -0.28221
  5 Li   -0.01105   -0.00169   -0.30091
  6 Li   -0.00731   -0.00959   -0.28599
  7 Li   -0.01905   -0.01377   -0.28236
  8 Li   -0.00188   -0.00836   -0.29396
  9 Li    0.00642    0.10726    0.32191
 10 Li    0.08650    0.06792    0.26115
 11 Li    0.14600    0.09195    0.31279
 12 Li    0.01515   -0.06222    0.28439
 13 Li    0.06173   -0.03133    0.33487
 14 Li    0.15643   -0.05828    0.30646
 15 Li    0.00938   -0.02154    0.29018
 16 Li    0.06280   -0.04427    0.30730
 17 Li    0.07097    0.03962    0.27183
 18 Li    0.06563    0.00406   -0.02828
 19 Li   -0.00134   -0.04169    0.00892
 20 Li   -0.02976   -0.00217   -0.11074
 21 Li   -0.00738   -0.00061   -0.02222
 22 Li   -0.04206    0.04092   -0.02761
 23 Li    0.03044    0.01170    0.01138
 24 Li    0.00888    0.00350    0.07860
 25 Li    0.00009   -0.01319    0.02955
 26 Li   -0.03948    0.00619    0.03307
 27 Li   -0.10225    0.03444    0.12764
 28 Li   -0.03063   -0.00495    0.01363
 29 Li   -0.04692   -0.03574   -0.02655
 30 Li   -0.07941    0.06397    0.02625
 31 Li   -0.00912    0.02679   -0.00722
 32 Li    0.00688   -0.01710    0.02248
 33 Li    0.03104    0.06974   -0.04143
 34 Li    0.00003   -0.00724    0.01268
 35 Li   -0.02404   -0.01326    0.01140
 36 O     0.06453    0.05061   -0.06493
 37 C     0.06675    0.04402    0.01776
 38 C    -0.01946    0.08433   -0.02040
 39 H     0.14588   -0.01374    0.01517
 40 H    -0.12935   -0.12132   -0.03652
 41 H     0.08022   -0.16674    0.11525
 42 H     0.01030   -0.01412    0.03232
 43 H    -0.09763    0.07557   -0.08466
 44 H    -0.02371    0.03700    0.07560
 45 N    -0.17295   -0.12758   -0.23346
 46 N    -0.14883   -0.05980   -0.00944

System changes: positions 

Initializing position-dependent things.

Density initialized from wave functions
       .-----------------------.  
      /|                       |  
     / |                       |  
    /  |                       |  
   /   |                       |  
  /    |                       |  
 *     H  H                    |  
 |     |                       |  
 |    C|                       |  
 |     OH                   H H|  
 |     |                       |  
 |     |Li                     |  
 |     |        Li      H      |  
 |     |                       |  
 |     |     Li      Li      Li|  
 |     |  Li      LiLi    Li   |  
 |  Li |   Li         N N      |  
 |     |Li      Li Li   Li     |  
 |     |                       |  
 |   LLi     LiLi    LiLi      |  
 |     |  Li      Li      Li   |  
 | Li  |   Li      Li          |  
 |     |Li      Li      Li     |  
 Li    | Li      Li            |  
 |    Li      Li      Li       |  
 |     |                       |  
 |     |                       |  
 |     |                       |  
 |     |                       |  
 |     |                       |  
 |     |                       |  
 |     .-----------------------.  
 |    /                       /   
 |   /                       /    
 |  /                       /     
 | /                       /      
 |/                       /       
 *-----------------------*        

Positions:
   0 Li     1.617037    1.617037   10.000000    ( 0.0000,  0.0000,  0.0000)
   1 Li     4.851111    1.617037   10.000000    ( 0.0000,  0.0000,  0.0000)
   2 Li     8.085185    1.617037   10.000000    ( 0.0000,  0.0000,  0.0000)
   3 Li     1.617037    4.851111   10.000000    ( 0.0000,  0.0000,  0.0000)
   4 Li     4.851111    4.851111   10.000000    ( 0.0000,  0.0000,  0.0000)
   5 Li     8.085185    4.851111   10.000000    ( 0.0000,  0.0000,  0.0000)
   6 Li     1.617037    8.085185   10.000000    ( 0.0000,  0.0000,  0.0000)
   7 Li     4.851111    8.085185   10.000000    ( 0.0000,  0.0000,  0.0000)
   8 Li     8.085185    8.085185   10.000000    ( 0.0000,  0.0000,  0.0000)
   9 Li     0.000000    0.000000   11.617037    ( 0.0000,  0.0000,  0.0000)
  10 Li     3.234074    0.000000   11.617037    ( 0.0000,  0.0000,  0.0000)
  11 Li     6.468148    0.000000   11.617037    ( 0.0000,  0.0000,  0.0000)
  12 Li     0.000000    3.234074   11.617037    ( 0.0000,  0.0000,  0.0000)
  13 Li     3.234074    3.234074   11.617037    ( 0.0000,  0.0000,  0.0000)
  14 Li     6.468148    3.234074   11.617037    ( 0.0000,  0.0000,  0.0000)
  15 Li     0.000000    6.468148   11.617037    ( 0.0000,  0.0000,  0.0000)
  16 Li     3.234074    6.468148   11.617037    ( 0.0000,  0.0000,  0.0000)
  17 Li     6.468148    6.468148   11.617037    ( 0.0000,  0.0000,  0.0000)
  18 Li     1.758844    1.538941   13.555789    ( 0.0000,  0.0000,  0.0000)
  19 Li     5.083452    1.704954   13.537672    ( 0.0000,  0.0000,  0.0000)
  20 Li     8.424600    1.700720   13.817157    ( 0.0000,  0.0000,  0.0000)
  21 Li     1.631607    4.751744   13.526202    ( 0.0000,  0.0000,  0.0000)
  22 Li     4.963615    4.868425   13.513184    ( 0.0000,  0.0000,  0.0000)
  23 Li     8.094383    4.868391   13.451648    ( 0.0000,  0.0000,  0.0000)
  24 Li     1.675627    8.047700   13.434379    ( 0.0000,  0.0000,  0.0000)
  25 Li     4.933208    8.163811   13.413032    ( 0.0000,  0.0000,  0.0000)
  26 Li     8.192487    8.162033   13.524644    ( 0.0000,  0.0000,  0.0000)
  27 Li     0.495829   -0.150763   15.751098    ( 0.0000,  0.0000,  0.0000)
  28 Li     3.751350   -0.066869   15.436483    ( 0.0000,  0.0000,  0.0000)
  29 Li     7.058620    0.508935   15.755579    ( 0.0000,  0.0000,  0.0000)
  30 Li     0.253056    3.064630   15.683641    ( 0.0000,  0.0000,  0.0000)
  31 Li     3.420022    3.237096   15.444790    ( 0.0000,  0.0000,  0.0000)
  32 Li     6.765275    3.497323   15.573648    ( 0.0000,  0.0000,  0.0000)
  33 Li    -0.019842    6.219934   15.427665    ( 0.0000,  0.0000,  0.0000)
  34 Li     3.216434    6.435652   15.361449    ( 0.0000,  0.0000,  0.0000)
  35 Li     6.405363    6.781137   15.409708    ( 0.0000,  0.0000,  0.0000)
  36 O      9.936793    9.012181   17.685803    ( 0.0000,  0.0000,  0.0000)
  37 C      9.870456    8.169110   18.851413    ( 0.0000,  0.0000,  0.0000)
  38 C      9.989574    8.989334   20.131438    ( 0.0000,  0.0000,  0.0000)
  39 H      8.935072    7.584502   18.833437    ( 0.0000,  0.0000,  0.0000)
  40 H     10.725309    7.494511   18.752769    ( 0.0000,  0.0000,  0.0000)
  41 H      9.936249    8.347193   21.006507    ( 0.0000,  0.0000,  0.0000)
  42 H     10.935793    9.533203   20.136316    ( 0.0000,  0.0000,  0.0000)
  43 H      9.175732    9.709948   20.225671    ( 0.0000,  0.0000,  0.0000)
  44 H      9.201246    9.648800   17.690513    ( 0.0000,  0.0000,  0.0000)
  45 N      8.951509   11.014278   15.914840    ( 0.0000,  0.0000,  0.0000)
  46 N      8.104304   11.952957   15.842623    ( 0.0000,  0.0000,  0.0000)

Unit cell:
           periodic     x           y           z      points  spacing
  1. axis:    yes    9.702222    0.000000    0.000000    60     0.1617
  2. axis:    yes    0.000000    9.702222    0.000000    60     0.1617
  3. axis:    no     0.000000    0.000000   24.851111   156     0.1593

  Lengths:   9.702222   9.702222  24.851111
  Angles:   90.000000  90.000000  90.000000

Effective grid spacing dv^(1/3) = 0.1609

     iter     time        total  log10-change:
                         energy  eigst   dens
iter:   1 00:32:02  -310.027322  -0.97
iter:   2 00:32:46  -310.011360  -1.78  -1.92
iter:   3 00:33:29  -310.004683c -2.23  -2.07
iter:   4 00:34:12  -310.002143c -2.46  -2.24
Writing to output.gpw (mode='')

iter:   5 00:34:56  -309.999822c -2.24  -2.36
iter:   6 00:35:39  -309.999639c -2.28  -2.55
iter:   7 00:36:23  -309.999244c -3.16  -2.58
iter:   8 00:37:06  -309.999139c -3.04  -2.86
iter:   9 00:37:49  -309.999184c -3.38  -2.95
Writing to output.gpw (mode='')

iter:  10 00:38:33  -309.999176c -3.49  -3.01
iter:  11 00:39:16  -309.999175c -3.98  -3.16
iter:  12 00:39:59  -309.999150c -4.39  -3.31
iter:  13 00:40:43  -309.999153c -4.39  -3.42
iter:  14 00:41:26  -309.999142c -4.43  -3.51
Writing to output.gpw (mode='')

iter:  15 00:42:12  -309.999129c -4.56  -3.58
iter:  16 00:42:55  -309.999131c -5.00  -3.79
iter:  17 00:43:38  -309.999141c -5.07  -3.87
iter:  18 00:44:21  -309.999147c -5.26  -3.93
iter:  19 00:45:04  -309.999143c -5.41  -4.03c
Writing to output.gpw (mode='')

iter:  20 00:45:49  -309.999142c -5.77  -4.31c
iter:  21 00:46:32  -309.999141c -5.92  -4.36c
iter:  22 00:47:15  -309.999143c -5.88  -4.41c
iter:  23 00:47:58  -309.999144c -6.22  -4.57c
iter:  24 00:48:41  -309.999144c -6.32  -4.66c
Writing to output.gpw (mode='')

iter:  25 00:49:26  -309.999144c -6.38  -4.71c
iter:  26 00:50:09  -309.999143c -6.46  -4.75c
iter:  27 00:50:53  -309.999143c -6.72  -4.91c
iter:  28 00:51:36  -309.999143c -6.83  -5.02c
iter:  29 00:52:19  -309.999143c -6.88  -5.09c
Writing to output.gpw (mode='')

iter:  30 00:53:03  -309.999143c -6.85  -5.13c
iter:  31 00:53:46  -309.999143c -7.01  -5.28c
iter:  32 00:54:30  -309.999143c -7.26  -5.32c
iter:  33 00:55:13  -309.999144c -7.30  -5.52c
iter:  34 00:55:56  -309.999144c -7.45c -5.55c

Converged after 34 iterations.

Dipole moment: (-34.599225, 5.283641, 0.324445) |e|*Ang

Energy contributions relative to reference atoms: (reference = -14434.854043)

Kinetic:       +145.890005
Potential:     -138.800856
External:        +0.000000
XC:            -317.792124
Entropy (-ST):   -0.154135
Local:           +0.780899
--------------------------
Free energy:   -310.076211
Extrapolated:  -309.999144

Dipole-layer corrected work functions: 3.392657, 2.768963 eV

Showing only first 2 kpts
 Kpt  Band  Eigenvalues  Occupancy
  0    31     -3.27272    1.95784
  0    32     -3.12527    1.41743
  0    33     -3.06844    0.87696
  0    34     -2.94935    0.13457

  1    31     -3.38238    1.99521
  1    32     -3.00182    0.34164
  1    33     -2.97471    0.21395
  1    34     -2.92777    0.08950


Fermi level: -3.08081

No gap
Writing to output.gpw (mode='')


Forces in eV/Ang:
  0 Li   -0.02005    0.00192   -0.30752
  1 Li   -0.02035    0.00723   -0.28292
  2 Li   -0.00440   -0.00028   -0.27821
  3 Li   -0.00509    0.00198   -0.29129
  4 Li   -0.02116    0.00312   -0.28296
  5 Li   -0.01149   -0.00198   -0.30114
  6 Li   -0.00627   -0.00998   -0.28790
  7 Li   -0.01928   -0.01427   -0.28132
  8 Li   -0.00158   -0.00797   -0.29449
  9 Li    0.00846    0.09710    0.33278
 10 Li    0.08450    0.06658    0.26652
 11 Li    0.14208    0.09194    0.31334
 12 Li    0.01579   -0.05666    0.28109
 13 Li    0.06406   -0.03046    0.33220
 14 Li    0.15334   -0.05933    0.31374
 15 Li    0.01039   -0.01273    0.29460
 16 Li    0.06095   -0.04245    0.29986
 17 Li    0.06795    0.04559    0.26643
 18 Li    0.05607   -0.01557   -0.01931
 19 Li   -0.00473   -0.04170   -0.00287
 20 Li   -0.04091   -0.00364   -0.09364
 21 Li   -0.00562    0.00689   -0.03056
 22 Li   -0.03615    0.03218   -0.01892
 23 Li    0.02813    0.00366    0.01981
 24 Li   -0.00462    0.01786    0.06497
 25 Li    0.00228   -0.00994    0.02721
 26 Li   -0.02357    0.00687    0.01762
 27 Li   -0.10627    0.05885    0.11805
 28 Li   -0.01796   -0.00096    0.01211
 29 Li   -0.07295   -0.04073   -0.02917
 30 Li   -0.10152    0.02276    0.04003
 31 Li   -0.01160    0.02324   -0.00172
 32 Li    0.01016   -0.00581    0.03556
 33 Li    0.02192    0.06182   -0.03669
 34 Li   -0.00055   -0.00793    0.01337
 35 Li   -0.01816   -0.01289    0.01024
 36 O     0.03458    0.05828   -0.12516
 37 C    -0.01082    0.12149    0.06082
 38 C    -0.00727    0.00218   -0.14734
 39 H     0.21369    0.03207   -0.00253
 40 H    -0.14698   -0.08515    0.00578
 41 H     0.09807   -0.17914    0.14546
 42 H    -0.01787   -0.00171    0.07140
 43 H    -0.05832    0.06767   -0.10131
 44 H    -0.00165   -0.00734    0.10894
 45 N    -0.18562   -0.01983   -0.20388
 46 N    -0.04584   -0.16499   -0.04610

System changes: positions 

Initializing position-dependent things.

Density initialized from wave functions
       .-----------------------.  
      /|                       |  
     / |                       |  
    /  |                       |  
   /   |                       |  
  /    |                       |  
 *     H  H                    |  
 |     |                       |  
 |    C|                       |  
 |     OH                   H H|  
 |     |                       |  
 |     |Li                     |  
 |     |        Li      H      |  
 |     |                       |  
 |     |     Li      Li      Li|  
 |     |  Li      LiLi    Li   |  
 | Li  |   Li         N N      |  
 |     |Li      Li Li   Li     |  
 |     |                       |  
 |   LLi     LiLi    LiLi      |  
 |     |  Li      Li      Li   |  
 | Li  |   Li      Li          |  
 |     |Li      Li      Li     |  
 Li    | Li      Li            |  
 |    Li      Li      Li       |  
 |     |                       |  
 |     |                       |  
 |     |                       |  
 |     |                       |  
 |     |                       |  
 |     |                       |  
 |     .-----------------------.  
 |    /                       /   
 |   /                       /    
 |  /                       /     
 | /                       /      
 |/                       /       
 *-----------------------*        

Positions:
   0 Li     1.617037    1.617037   10.000000    ( 0.0000,  0.0000,  0.0000)
   1 Li     4.851111    1.617037   10.000000    ( 0.0000,  0.0000,  0.0000)
   2 Li     8.085185    1.617037   10.000000    ( 0.0000,  0.0000,  0.0000)
   3 Li     1.617037    4.851111   10.000000    ( 0.0000,  0.0000,  0.0000)
   4 Li     4.851111    4.851111   10.000000    ( 0.0000,  0.0000,  0.0000)
   5 Li     8.085185    4.851111   10.000000    ( 0.0000,  0.0000,  0.0000)
   6 Li     1.617037    8.085185   10.000000    ( 0.0000,  0.0000,  0.0000)
   7 Li     4.851111    8.085185   10.000000    ( 0.0000,  0.0000,  0.0000)
   8 Li     8.085185    8.085185   10.000000    ( 0.0000,  0.0000,  0.0000)
   9 Li     0.000000    0.000000   11.617037    ( 0.0000,  0.0000,  0.0000)
  10 Li     3.234074    0.000000   11.617037    ( 0.0000,  0.0000,  0.0000)
  11 Li     6.468148    0.000000   11.617037    ( 0.0000,  0.0000,  0.0000)
  12 Li     0.000000    3.234074   11.617037    ( 0.0000,  0.0000,  0.0000)
  13 Li     3.234074    3.234074   11.617037    ( 0.0000,  0.0000,  0.0000)
  14 Li     6.468148    3.234074   11.617037    ( 0.0000,  0.0000,  0.0000)
  15 Li     0.000000    6.468148   11.617037    ( 0.0000,  0.0000,  0.0000)
  16 Li     3.234074    6.468148   11.617037    ( 0.0000,  0.0000,  0.0000)
  17 Li     6.468148    6.468148   11.617037    ( 0.0000,  0.0000,  0.0000)
  18 Li     1.765451    1.553436   13.552721    ( 0.0000,  0.0000,  0.0000)
  19 Li     5.083961    1.698639   13.548290    ( 0.0000,  0.0000,  0.0000)
  20 Li     8.427280    1.706117   13.804068    ( 0.0000,  0.0000,  0.0000)
  21 Li     1.631129    4.750894   13.527100    ( 0.0000,  0.0000,  0.0000)
  22 Li     4.952985    4.879031   13.500736    ( 0.0000,  0.0000,  0.0000)
  23 Li     8.096018    4.881062   13.446395    ( 0.0000,  0.0000,  0.0000)
  24 Li     1.684107    8.041213   13.451498    ( 0.0000,  0.0000,  0.0000)
  25 Li     4.930701    8.160610   13.423417    ( 0.0000,  0.0000,  0.0000)
  26 Li     8.174319    8.165011   13.540204    ( 0.0000,  0.0000,  0.0000)
  27 Li     0.476627   -0.163438   15.753289    ( 0.0000,  0.0000,  0.0000)
  28 Li     3.726668   -0.073077   15.439970    ( 0.0000,  0.0000,  0.0000)
  29 Li     7.065314    0.501146   15.750440    ( 0.0000,  0.0000,  0.0000)
  30 Li     0.239041    3.081548   15.671737    ( 0.0000,  0.0000,  0.0000)
  31 Li     3.422748    3.248384   15.437870    ( 0.0000,  0.0000,  0.0000)
  32 Li     6.752184    3.491899   15.561689    ( 0.0000,  0.0000,  0.0000)
  33 Li    -0.005658    6.245899   15.414905    ( 0.0000,  0.0000,  0.0000)
  34 Li     3.217315    6.429518   15.368849    ( 0.0000,  0.0000,  0.0000)
  35 Li     6.393896    6.770753   15.418380    ( 0.0000,  0.0000,  0.0000)
  36 O      9.939712    9.003841   17.695136    ( 0.0000,  0.0000,  0.0000)
  37 C      9.875897    8.158958   18.863684    ( 0.0000,  0.0000,  0.0000)
  38 C      9.990235    8.988917   20.141851    ( 0.0000,  0.0000,  0.0000)
  39 H      8.941924    7.570301   18.848476    ( 0.0000,  0.0000,  0.0000)
  40 H     10.725215    7.477724   18.757845    ( 0.0000,  0.0000,  0.0000)
  41 H      9.936054    8.350886   21.021475    ( 0.0000,  0.0000,  0.0000)
  42 H     10.936318    9.531607   20.138754    ( 0.0000,  0.0000,  0.0000)
  43 H      9.172191    9.709486   20.223140    ( 0.0000,  0.0000,  0.0000)
  44 H      9.209012    9.649611   17.704049    ( 0.0000,  0.0000,  0.0000)
  45 N      8.952960   11.013774   15.891696    ( 0.0000,  0.0000,  0.0000)
  46 N      8.099225   11.953061   15.837958    ( 0.0000,  0.0000,  0.0000)

Unit cell:
           periodic     x           y           z      points  spacing
  1. axis:    yes    9.702222    0.000000    0.000000    60     0.1617
  2. axis:    yes    0.000000    9.702222    0.000000    60     0.1617
  3. axis:    no     0.000000    0.000000   24.851111   156     0.1593

  Lengths:   9.702222   9.702222  24.851111
  Angles:   90.000000  90.000000  90.000000

Effective grid spacing dv^(1/3) = 0.1609

     iter     time        total  log10-change:
                         energy  eigst   dens
iter:   1 00:56:56  -310.047677  -0.88
iter:   2 00:57:40  -310.026353  -1.66  -1.82
iter:   3 00:58:23  -310.017565c -1.92  -2.03
iter:   4 00:59:06  -310.015413c -2.53  -2.16
Writing to output.gpw (mode='')

iter:   5 00:59:51  -310.011362c -2.31  -2.28
iter:   6 01:00:34  -310.011014c -2.10  -2.53
iter:   7 01:01:17  -310.010826c -3.19  -2.58
iter:   8 01:02:00  -310.010689c -3.01  -2.80
iter:   9 01:02:43  -310.010705c -2.90  -2.89
Writing to output.gpw (mode='')

iter:  10 01:03:27  -310.010734c -3.48  -2.95
iter:  11 01:04:11  -310.010697c -4.11  -3.21
iter:  12 01:04:54  -310.010671c -4.31  -3.27
iter:  13 01:05:37  -310.010618c -3.99  -3.34
iter:  14 01:06:20  -310.010668c -4.36  -3.45
Writing to output.gpw (mode='')

iter:  15 01:07:04  -310.010656c -4.74  -3.51
iter:  16 01:07:48  -310.010640c -4.59  -3.59
iter:  17 01:08:31  -310.010654c -4.84  -3.83
iter:  18 01:09:14  -310.010665c -5.10  -3.87
iter:  19 01:09:57  -310.010660c -5.28  -3.96
Writing to output.gpw (mode='')

iter:  20 01:10:41  -310.010667c -5.56  -4.11c
iter:  21 01:11:24  -310.010662c -5.76  -4.28c
iter:  22 01:12:07  -310.010662c -5.97  -4.34c
iter:  23 01:12:50  -310.010660c -5.97  -4.35c
iter:  24 01:13:34  -310.010663c -6.07  -4.49c
Writing to output.gpw (mode='')

iter:  25 01:14:18  -310.010662c -6.33  -4.69c
iter:  26 01:15:01  -310.010662c -6.47  -4.74c
iter:  27 01:15:44  -310.010663c -6.46  -4.75c
iter:  28 01:16:27  -310.010663c -6.54  -4.82c
iter:  29 01:17:10  -310.010663c -6.77  -4.95c
Writing to output.gpw (mode='')

iter:  30 01:17:55  -310.010663c -6.89  -5.05c
iter:  31 01:18:38  -310.010663c -6.98  -5.10c
iter:  32 01:19:21  -310.010662c -7.04  -5.19c
iter:  33 01:20:04  -310.010663c -7.33  -5.31c
iter:  34 01:20:47  -310.010662c -7.46c -5.50c

Converged after 34 iterations.

Dipole moment: (-34.740436, 5.386799, 0.329165) |e|*Ang

Energy contributions relative to reference atoms: (reference = -14434.854043)

Kinetic:       +144.990428
Potential:     -138.117256
External:        +0.000000
XC:            -317.586541
Entropy (-ST):   -0.155020
Local:           +0.780217
--------------------------
Free energy:   -310.088173
Extrapolated:  -310.010662

Dipole-layer corrected work functions: 3.392653, 2.759885 eV

Showing only first 2 kpts
 Kpt  Band  Eigenvalues  Occupancy
  0    31     -3.26727    1.95709
  0    32     -3.11986    1.41026
  0    33     -3.06294    0.86751
  0    34     -2.94668    0.13933

  1    31     -3.38046    1.99545
  1    32     -2.99946    0.35416
  1    33     -2.97146    0.21895
  1    34     -2.92429    0.09133


Fermi level: -3.07627

No gap
Writing to output.gpw (mode='')


Forces in eV/Ang:
  0 Li   -0.02080    0.00119   -0.30674
  1 Li   -0.01971    0.00714   -0.28454
  2 Li   -0.00428   -0.00110   -0.27696
  3 Li   -0.00432    0.00239   -0.29045
  4 Li   -0.02084    0.00319   -0.28380
  5 Li   -0.01172   -0.00255   -0.30130
  6 Li   -0.00522   -0.01039   -0.29045
  7 Li   -0.01932   -0.01494   -0.28065
  8 Li   -0.00110   -0.00753   -0.29543
  9 Li    0.01089    0.08518    0.34460
 10 Li    0.08235    0.06269    0.27417
 11 Li    0.13720    0.09035    0.31538
 12 Li    0.01746   -0.05040    0.27580
 13 Li    0.06697   -0.02960    0.32943
 14 Li    0.14940   -0.05989    0.32229
 15 Li    0.01265    0.00015    0.30167
 16 Li    0.05581   -0.03642    0.29540
 17 Li    0.06491    0.05329    0.26196
 18 Li    0.03968   -0.03432   -0.00719
 19 Li   -0.00776   -0.03916   -0.01635
 20 Li   -0.05265   -0.00492   -0.06975
 21 Li   -0.00415    0.01478   -0.03890
 22 Li   -0.02671    0.01939   -0.00809
 23 Li    0.02118   -0.00671    0.03100
 24 Li   -0.01367    0.02884    0.03638
 25 Li    0.00465   -0.00374    0.01912
 26 Li   -0.00793    0.00645   -0.00637
 27 Li   -0.08863    0.07042    0.09645
 28 Li   -0.00477    0.00281    0.01374
 29 Li   -0.07839   -0.02821   -0.03219
 30 Li   -0.10440    0.00012    0.04641
 31 Li   -0.01457    0.01876    0.00451
 32 Li    0.02783   -0.01394    0.04342
 33 Li    0.01008    0.04791   -0.02692
 34 Li   -0.00093   -0.00841    0.01630
 35 Li   -0.00998   -0.01368    0.01106
 36 O    -0.05886    0.07485   -0.09972
 37 C    -0.08974    0.14290    0.05786
 38 C    -0.03932   -0.08814   -0.22593
 39 H     0.20676    0.08864   -0.01465
 40 H    -0.12559   -0.01058    0.05103
 41 H     0.09505   -0.12994    0.10657
 42 H    -0.01070    0.02531    0.10320
 43 H     0.00296    0.01877   -0.08637
 44 H     0.07070   -0.09883    0.13340
 45 N    -0.28745    0.06582   -0.13502
 46 N     0.06849   -0.27843   -0.08472

System changes: positions 

Initializing position-dependent things.

Density initialized from wave functions
       .-----------------------.  
      /|                       |  
     / |                       |  
    /  |                       |  
   /   |                       |  
  /    |                       |  
 *     H  H                    |  
 |     |                       |  
 |    C|                       |  
 |     OH                   H H|  
 |     |                       |  
 |     |Li                     |  
 |     |        Li      H      |  
 |     |                       |  
 |   Li|     Li      Li        |  
 |     |  Li      LiLi    Li   |  
 | Li  |   Li         N N      |  
 |     |Li      Li Li   Li     |  
 |     |                       |  
 |   LLi     LiLi    LiLi      |  
 |     |  Li      Li      Li   |  
 | Li  |   Li      Li          |  
 |     |Li      Li      Li     |  
 Li    | Li      Li            |  
 |    Li      Li      Li       |  
 |     |                       |  
 |     |                       |  
 |     |                       |  
 |     |                       |  
 |     |                       |  
 |     |                       |  
 |     .-----------------------.  
 |    /                       /   
 |   /                       /    
 |  /                       /     
 | /                       /      
 |/                       /       
 *-----------------------*        

Positions:
   0 Li     1.617037    1.617037   10.000000    ( 0.0000,  0.0000,  0.0000)
   1 Li     4.851111    1.617037   10.000000    ( 0.0000,  0.0000,  0.0000)
   2 Li     8.085185    1.617037   10.000000    ( 0.0000,  0.0000,  0.0000)
   3 Li     1.617037    4.851111   10.000000    ( 0.0000,  0.0000,  0.0000)
   4 Li     4.851111    4.851111   10.000000    ( 0.0000,  0.0000,  0.0000)
   5 Li     8.085185    4.851111   10.000000    ( 0.0000,  0.0000,  0.0000)
   6 Li     1.617037    8.085185   10.000000    ( 0.0000,  0.0000,  0.0000)
   7 Li     4.851111    8.085185   10.000000    ( 0.0000,  0.0000,  0.0000)
   8 Li     8.085185    8.085185   10.000000    ( 0.0000,  0.0000,  0.0000)
   9 Li     0.000000    0.000000   11.617037    ( 0.0000,  0.0000,  0.0000)
  10 Li     3.234074    0.000000   11.617037    ( 0.0000,  0.0000,  0.0000)
  11 Li     6.468148    0.000000   11.617037    ( 0.0000,  0.0000,  0.0000)
  12 Li     0.000000    3.234074   11.617037    ( 0.0000,  0.0000,  0.0000)
  13 Li     3.234074    3.234074   11.617037    ( 0.0000,  0.0000,  0.0000)
  14 Li     6.468148    3.234074   11.617037    ( 0.0000,  0.0000,  0.0000)
  15 Li     0.000000    6.468148   11.617037    ( 0.0000,  0.0000,  0.0000)
  16 Li     3.234074    6.468148   11.617037    ( 0.0000,  0.0000,  0.0000)
  17 Li     6.468148    6.468148   11.617037    ( 0.0000,  0.0000,  0.0000)
  18 Li     1.772200    1.561585   13.551319    ( 0.0000,  0.0000,  0.0000)
  19 Li     5.083463    1.692621   13.554349    ( 0.0000,  0.0000,  0.0000)
  20 Li     8.426820    1.709901   13.793408    ( 0.0000,  0.0000,  0.0000)
  21 Li     1.629497    4.750944   13.527737    ( 0.0000,  0.0000,  0.0000)
  22 Li     4.945751    4.886194   13.492840    ( 0.0000,  0.0000,  0.0000)
  23 Li     8.099551    4.888787   13.445439    ( 0.0000,  0.0000,  0.0000)
  24 Li     1.686639    8.040955   13.469044    ( 0.0000,  0.0000,  0.0000)
  25 Li     4.929809    8.158789   13.431453    ( 0.0000,  0.0000,  0.0000)
  26 Li     8.163119    8.167836   13.551825    ( 0.0000,  0.0000,  0.0000)
  27 Li     0.463433   -0.173005   15.758050    ( 0.0000,  0.0000,  0.0000)
  28 Li     3.711942   -0.076512   15.442017    ( 0.0000,  0.0000,  0.0000)
  29 Li     7.065322    0.494361   15.746891    ( 0.0000,  0.0000,  0.0000)
  30 Li     0.226669    3.095141   15.671639    ( 0.0000,  0.0000,  0.0000)
  31 Li     3.423815    3.255552   15.435027    ( 0.0000,  0.0000,  0.0000)
  32 Li     6.747058    3.489904   15.561545    ( 0.0000,  0.0000,  0.0000)
  33 Li     0.003094    6.265866   15.407809    ( 0.0000,  0.0000,  0.0000)
  34 Li     3.218617    6.425389   15.371891    ( 0.0000,  0.0000,  0.0000)
  35 Li     6.386346    6.765264   15.422245    ( 0.0000,  0.0000,  0.0000)
  36 O      9.940582    8.998082   17.698754    ( 0.0000,  0.0000,  0.0000)
  37 C      9.880954    8.153852   18.871017    ( 0.0000,  0.0000,  0.0000)
  38 C      9.991161    8.986776   20.146043    ( 0.0000,  0.0000,  0.0000)
  39 H      8.948957    7.566181   18.857408    ( 0.0000,  0.0000,  0.0000)
  40 H     10.722011    7.463854   18.756807    ( 0.0000,  0.0000,  0.0000)
  41 H      9.939754    8.349988   21.028249    ( 0.0000,  0.0000,  0.0000)
  42 H     10.934217    9.532746   20.143931    ( 0.0000,  0.0000,  0.0000)
  43 H      9.171109    9.708121   20.217246    ( 0.0000,  0.0000,  0.0000)
  44 H      9.212499    9.650057   17.716340    ( 0.0000,  0.0000,  0.0000)
  45 N      8.953745   11.006663   15.876635    ( 0.0000,  0.0000,  0.0000)
  46 N      8.099935   11.945666   15.831748    ( 0.0000,  0.0000,  0.0000)

Unit cell:
           periodic     x           y           z      points  spacing
  1. axis:    yes    9.702222    0.000000    0.000000    60     0.1617
  2. axis:    yes    0.000000    9.702222    0.000000    60     0.1617
  3. axis:    no     0.000000    0.000000   24.851111   156     0.1593

  Lengths:   9.702222   9.702222  24.851111
  Angles:   90.000000  90.000000  90.000000

Effective grid spacing dv^(1/3) = 0.1609

     iter     time        total  log10-change:
                         energy  eigst   dens
iter:   1 01:21:47  -310.056021  -1.19
iter:   2 01:22:30  -310.034892  -1.78  -1.81
iter:   3 01:23:14  -310.027019c -2.45  -2.05
iter:   4 01:23:57  -310.023246c -2.79  -2.23
Writing to output.gpw (mode='')

iter:   5 01:24:41  -310.021489c -2.87  -2.41
iter:   6 01:25:24  -310.020759c -2.41  -2.59
iter:   7 01:26:08  -310.020974c -3.41  -2.78
iter:   8 01:26:51  -310.020861c -3.11  -2.86
iter:   9 01:27:34  -310.020829c -3.22  -3.03
Writing to output.gpw (mode='')

iter:  10 01:28:19  -310.020834c -3.83  -3.10
iter:  11 01:29:02  -310.020778c -3.93  -3.15
iter:  12 01:29:45  -310.020762c -4.01  -3.39
iter:  13 01:30:29  -310.020728c -4.25  -3.40
iter:  14 01:31:12  -310.020716c -4.17  -3.48
Writing to output.gpw (mode='')

iter:  15 01:31:57  -310.020736c -4.99  -3.66
iter:  16 01:32:40  -310.020757c -4.99  -3.78
iter:  17 01:33:23  -310.020778c -5.07  -3.92
iter:  18 01:34:06  -310.020766c -5.47  -4.02c
iter:  19 01:34:49  -310.020770c -5.62  -4.05c
Writing to output.gpw (mode='')

iter:  20 01:35:33  -310.020769c -5.55  -4.10c
iter:  21 01:36:16  -310.020757c -5.70  -4.16c
iter:  22 01:36:59  -310.020762c -5.97  -4.24c
iter:  23 01:37:42  -310.020764c -6.13  -4.41c
iter:  24 01:38:26  -310.020766c -6.45  -4.47c
Writing to output.gpw (mode='')

iter:  25 01:39:12  -310.020766c -6.47  -4.57c
iter:  26 01:39:55  -310.020767c -6.74  -4.70c
iter:  27 01:40:38  -310.020767c -6.82  -4.79c
iter:  28 01:41:22  -310.020766c -6.88  -4.87c
iter:  29 01:42:05  -310.020767c -7.06  -4.94c
Writing to output.gpw (mode='')

iter:  30 01:42:49  -310.020767c -7.24  -5.02c
iter:  31 01:43:32  -310.020766c -7.12  -5.09c
iter:  32 01:44:15  -310.020766c -7.43c -5.17c

Converged after 32 iterations.

Dipole moment: (-34.789349, 5.426148, 0.335859) |e|*Ang

Energy contributions relative to reference atoms: (reference = -14434.854043)

Kinetic:       +144.831105
Potential:     -138.017605
External:        +0.000000
XC:            -317.536750
Entropy (-ST):   -0.155570
Local:           +0.780269
--------------------------
Free energy:   -310.098551
Extrapolated:  -310.020766

Dipole-layer corrected work functions: 3.392234, 2.746597 eV

Showing only first 2 kpts
 Kpt  Band  Eigenvalues  Occupancy
  0    31     -3.25948    1.95629
  0    32     -3.11276    1.40816
  0    33     -3.05520    0.85880
  0    34     -2.93974    0.13913

  1    31     -3.37485    1.99556
  1    32     -2.99466    0.36634
  1    33     -2.96623    0.22533
  1    34     -2.91791    0.09217


Fermi level: -3.06942

No gap
Writing to output.gpw (mode='')


Forces in eV/Ang:
  0 Li   -0.02122    0.00059   -0.30607
  1 Li   -0.01935    0.00694   -0.28540
  2 Li   -0.00423   -0.00169   -0.27595
  3 Li   -0.00389    0.00237   -0.29018
  4 Li   -0.02073    0.00333   -0.28449
  5 Li   -0.01165   -0.00306   -0.30116
  6 Li   -0.00473   -0.01049   -0.29243
  7 Li   -0.01922   -0.01534   -0.28063
  8 Li   -0.00084   -0.00719   -0.29636
  9 Li    0.01262    0.07770    0.35189
 10 Li    0.08049    0.05841    0.27945
 11 Li    0.13435    0.08843    0.31663
 12 Li    0.01858   -0.04674    0.27176
 13 Li    0.06840   -0.02875    0.32772
 14 Li    0.14722   -0.05944    0.32779
 15 Li    0.01491    0.01016    0.30739
 16 Li    0.04987   -0.02965    0.29681
 17 Li    0.06413    0.05806    0.26084
 18 Li    0.02357   -0.04305    0.00345
 19 Li   -0.00866   -0.03364   -0.02272
 20 Li   -0.05443   -0.01014   -0.05725
 21 Li   -0.00333    0.01857   -0.04146
 22 Li   -0.01765    0.00785    0.00063
 23 Li    0.01325   -0.01206    0.03675
 24 Li   -0.01438    0.03216    0.00633
 25 Li    0.00442    0.00135    0.01043
 26 Li    0.00126    0.00662   -0.02383
 27 Li   -0.06129    0.06255    0.07574
 28 Li    0.00198    0.00468    0.01703
 29 Li   -0.07930   -0.02433   -0.03718
 30 Li   -0.09672   -0.02521    0.04081
 31 Li   -0.01551    0.01531    0.00749
 32 Li    0.05763   -0.04080    0.04075
 33 Li    0.00221    0.03531   -0.01949
 34 Li   -0.00208   -0.00813    0.02039
 35 Li   -0.00312   -0.01644    0.01435
 36 O    -0.14400    0.11994   -0.04895
 37 C    -0.13173    0.14491   -0.03631
 38 C    -0.03625   -0.09766   -0.21279
 39 H     0.12812    0.07546   -0.01687
 40 H    -0.06350    0.05164    0.08956
 41 H     0.06831   -0.08763    0.07667
 42 H     0.02615    0.03858    0.09687
 43 H     0.02487   -0.02892   -0.05311
 44 H     0.14914   -0.18352    0.13142
 45 N    -0.29864    0.10613   -0.12427
 46 N     0.01289   -0.23599   -0.11271

System changes: positions 

Initializing position-dependent things.

Density initialized from wave functions
       .-----------------------.  
      /|                       |  
     / |                       |  
    /  |                       |  
   /   |                       |  
  /    |                       |  
 *     H  H                   H|  
 |     |                       |  
 |    C|                       |  
 |     OH                   H H|  
 |     |                       |  
 |     |Li                     |  
 |     |        Li             |  
 |     |                       |  
 |   Li|     Li      Li        |  
 |     |  Li      LiLi    Li   |  
 | Li  |   Li         N N      |  
 |     |Li      Li Li   Li     |  
 |     |                       |  
 |   LLi     LiLi    LiLi      |  
 |     |  Li      Li      Li   |  
 | Li  |   Li      Li          |  
 |     |Li      Li      Li     |  
 Li    | Li      Li            |  
 |    Li      Li      Li       |  
 |     |                       |  
 |     |                       |  
 |     |                       |  
 |     |                       |  
 |     |                       |  
 |     |                       |  
 |     .-----------------------.  
 |    /                       /   
 |   /                       /    
 |  /                       /     
 | /                       /      
 |/                       /       
 *-----------------------*        

Positions:
   0 Li     1.617037    1.617037   10.000000    ( 0.0000,  0.0000,  0.0000)
   1 Li     4.851111    1.617037   10.000000    ( 0.0000,  0.0000,  0.0000)
   2 Li     8.085185    1.617037   10.000000    ( 0.0000,  0.0000,  0.0000)
   3 Li     1.617037    4.851111   10.000000    ( 0.0000,  0.0000,  0.0000)
   4 Li     4.851111    4.851111   10.000000    ( 0.0000,  0.0000,  0.0000)
   5 Li     8.085185    4.851111   10.000000    ( 0.0000,  0.0000,  0.0000)
   6 Li     1.617037    8.085185   10.000000    ( 0.0000,  0.0000,  0.0000)
   7 Li     4.851111    8.085185   10.000000    ( 0.0000,  0.0000,  0.0000)
   8 Li     8.085185    8.085185   10.000000    ( 0.0000,  0.0000,  0.0000)
   9 Li     0.000000    0.000000   11.617037    ( 0.0000,  0.0000,  0.0000)
  10 Li     3.234074    0.000000   11.617037    ( 0.0000,  0.0000,  0.0000)
  11 Li     6.468148    0.000000   11.617037    ( 0.0000,  0.0000,  0.0000)
  12 Li     0.000000    3.234074   11.617037    ( 0.0000,  0.0000,  0.0000)
  13 Li     3.234074    3.234074   11.617037    ( 0.0000,  0.0000,  0.0000)
  14 Li     6.468148    3.234074   11.617037    ( 0.0000,  0.0000,  0.0000)
  15 Li     0.000000    6.468148   11.617037    ( 0.0000,  0.0000,  0.0000)
  16 Li     3.234074    6.468148   11.617037    ( 0.0000,  0.0000,  0.0000)
  17 Li     6.468148    6.468148   11.617037    ( 0.0000,  0.0000,  0.0000)
  18 Li     1.784264    1.564935   13.548416    ( 0.0000,  0.0000,  0.0000)
  19 Li     5.085284    1.684906   13.561198    ( 0.0000,  0.0000,  0.0000)
  20 Li     8.428857    1.711407   13.780853    ( 0.0000,  0.0000,  0.0000)
  21 Li     1.629401    4.751295   13.525468    ( 0.0000,  0.0000,  0.0000)
  22 Li     4.937420    4.895499   13.486039    ( 0.0000,  0.0000,  0.0000)
  23 Li     8.104686    4.897690   13.443025    ( 0.0000,  0.0000,  0.0000)
  24 Li     1.687915    8.043051   13.488577    ( 0.0000,  0.0000,  0.0000)
  25 Li     4.928651    8.156208   13.441927    ( 0.0000,  0.0000,  0.0000)
  26 Li     8.153566    8.172986   13.566689    ( 0.0000,  0.0000,  0.0000)
  27 Li     0.449581   -0.175923   15.757935    ( 0.0000,  0.0000,  0.0000)
  28 Li     3.703099   -0.079664   15.444945    ( 0.0000,  0.0000,  0.0000)
  29 Li     7.065485    0.487070   15.745541    ( 0.0000,  0.0000,  0.0000)
  30 Li     0.210330    3.104294   15.674075    ( 0.0000,  0.0000,  0.0000)
  31 Li     3.424605    3.263279   15.432268    ( 0.0000,  0.0000,  0.0000)
  32 Li     6.745348    3.489845   15.563020    ( 0.0000,  0.0000,  0.0000)
  33 Li     0.012715    6.284817   15.395821    ( 0.0000,  0.0000,  0.0000)
  34 Li     3.219241    6.420753   15.375106    ( 0.0000,  0.0000,  0.0000)
  35 Li     6.378174    6.762469   15.427579    ( 0.0000,  0.0000,  0.0000)
  36 O      9.940745    8.985284   17.685552    ( 0.0000,  0.0000,  0.0000)
  37 C      9.887034    8.146885   18.864748    ( 0.0000,  0.0000,  0.0000)
  38 C      9.994425    8.978322   20.134174    ( 0.0000,  0.0000,  0.0000)
  39 H      8.958042    7.562150   18.854145    ( 0.0000,  0.0000,  0.0000)
  40 H     10.720571    7.447660   18.745594    ( 0.0000,  0.0000,  0.0000)
  41 H      9.946789    8.338364   21.015785    ( 0.0000,  0.0000,  0.0000)
  42 H     10.932748    9.530059   20.141702    ( 0.0000,  0.0000,  0.0000)
  43 H      9.174977    9.701348   20.199067    ( 0.0000,  0.0000,  0.0000)
  44 H      9.217707    9.646035   17.724199    ( 0.0000,  0.0000,  0.0000)
  45 N      8.949553   10.997129   15.850079    ( 0.0000,  0.0000,  0.0000)
  46 N      8.098620   11.936840   15.809782    ( 0.0000,  0.0000,  0.0000)

Unit cell:
           periodic     x           y           z      points  spacing
  1. axis:    yes    9.702222    0.000000    0.000000    60     0.1617
  2. axis:    yes    0.000000    9.702222    0.000000    60     0.1617
  3. axis:    no     0.000000    0.000000   24.851111   156     0.1593

  Lengths:   9.702222   9.702222  24.851111
  Angles:   90.000000  90.000000  90.000000

Effective grid spacing dv^(1/3) = 0.1609

     iter     time        total  log10-change:
                         energy  eigst   dens
iter:   1 01:45:15  -310.070773  -0.95
iter:   2 01:45:58  -310.050427  -1.59  -1.77
iter:   3 01:46:41  -310.040270c -2.27  -1.98
iter:   4 01:47:25  -310.036499c -2.74  -2.16
Writing to output.gpw (mode='')

iter:   5 01:48:09  -310.031669c -2.28  -2.26
iter:   6 01:48:52  -310.031344c -2.20  -2.56
iter:   7 01:49:35  -310.030930c -3.14  -2.65
iter:   8 01:50:19  -310.030795c -2.87  -2.85
iter:   9 01:51:02  -310.030829c -3.29  -2.91
Writing to output.gpw (mode='')

iter:  10 01:51:46  -310.030723c -3.86  -2.99
iter:  11 01:52:30  -310.030715c -3.93  -3.17
iter:  12 01:53:13  -310.030689c -4.01  -3.30
iter:  13 01:53:57  -310.030704c -4.46  -3.41
iter:  14 01:54:40  -310.030702c -4.78  -3.49
Writing to output.gpw (mode='')

iter:  15 01:55:24  -310.030711c -4.51  -3.62
iter:  16 01:56:08  -310.030712c -5.19  -3.72
iter:  17 01:56:51  -310.030713c -5.15  -3.82
iter:  18 01:57:34  -310.030717c -5.28  -3.94
iter:  19 01:58:18  -310.030712c -5.57  -3.99
Writing to output.gpw (mode='')

iter:  20 01:59:02  -310.030713c -5.60  -4.14c
iter:  21 01:59:45  -310.030714c -6.04  -4.32c
iter:  22 02:00:29  -310.030715c -6.12  -4.43c
iter:  23 02:01:12  -310.030715c -6.09  -4.52c
iter:  24 02:01:55  -310.030715c -6.30  -4.65c
Writing to output.gpw (mode='')

iter:  25 02:02:40  -310.030715c -6.52  -4.69c
iter:  26 02:03:22  -310.030715c -6.55  -4.80c
iter:  27 02:04:06  -310.030715c -6.83  -4.87c
iter:  28 02:04:49  -310.030715c -6.78  -4.92c
iter:  29 02:05:32  -310.030715c -6.75  -4.97c
Writing to output.gpw (mode='')

iter:  30 02:06:19  -310.030715c -7.04  -5.04c
iter:  31 02:07:02  -310.030715c -7.23  -5.09c
iter:  32 02:07:46  -310.030715c -7.38  -5.17c
iter:  33 02:08:29  -310.030715c -7.42c -5.26c

Converged after 33 iterations.

Dipole moment: (-34.774882, 5.493881, 0.347198) |e|*Ang

Energy contributions relative to reference atoms: (reference = -14434.854043)

Kinetic:       +145.379427
Potential:     -138.434937
External:        +0.000000
XC:            -317.677407
Entropy (-ST):   -0.156375
Local:           +0.780390
--------------------------
Free energy:   -310.108903
Extrapolated:  -310.030715

Dipole-layer corrected work functions: 3.391544, 2.724111 eV

Showing only first 2 kpts
 Kpt  Band  Eigenvalues  Occupancy
  0    31     -3.24697    1.95550
  0    32     -3.10041    1.40183
  0    33     -3.04315    0.85430
  0    34     -2.92870    0.14054

  1    31     -3.36497    1.99571
  1    32     -2.98505    0.37831
  1    33     -2.95708    0.23529
  1    34     -2.90932    0.09759


Fermi level: -3.05783

No gap
Writing to output.gpw (mode='')


Forces in eV/Ang:
  0 Li   -0.02197   -0.00003   -0.30498
  1 Li   -0.01864    0.00665   -0.28622
  2 Li   -0.00443   -0.00235   -0.27445
  3 Li   -0.00351    0.00224   -0.28970
  4 Li   -0.02083    0.00370   -0.28500
  5 Li   -0.01148   -0.00408   -0.30083
  6 Li   -0.00426   -0.01035   -0.29469
  7 Li   -0.01908   -0.01580   -0.28070
  8 Li   -0.00070   -0.00639   -0.29758
  9 Li    0.01500    0.06948    0.35783
 10 Li    0.08140    0.05146    0.28308
 11 Li    0.13096    0.08415    0.31734
 12 Li    0.02091   -0.04381    0.26567
 13 Li    0.07153   -0.02850    0.32549
 14 Li    0.14440   -0.05775    0.33296
 15 Li    0.01793    0.02204    0.31378
 16 Li    0.04341   -0.02068    0.29892
 17 Li    0.06342    0.06416    0.26098
 18 Li    0.00293   -0.04471    0.01651
 19 Li   -0.00992   -0.02470   -0.02859
 20 Li   -0.05947   -0.01658   -0.06956
 21 Li   -0.00398    0.02026   -0.03929
 22 Li   -0.00623   -0.00627    0.00795
 23 Li    0.00181   -0.01968    0.04431
 24 Li   -0.01029    0.03275   -0.02962
 25 Li    0.00392    0.00762   -0.00366
 26 Li    0.00740    0.00540   -0.04624
 27 Li   -0.02028    0.03697    0.04057
 28 Li    0.00512    0.00595    0.02329
 29 Li   -0.09411   -0.02516   -0.04964
 30 Li   -0.07180   -0.03823    0.02524
 31 Li   -0.01727    0.01048    0.01007
 32 Li    0.07228   -0.05761    0.02429
 33 Li   -0.00628    0.02139   -0.00678
 34 Li   -0.00258   -0.00686    0.02506
 35 Li    0.00425   -0.02149    0.01839
 36 O    -0.25209    0.20047    0.07047
 37 C    -0.04565    0.05217   -0.19345
 38 C    -0.00539   -0.04296   -0.11288
 39 H     0.00564    0.01670   -0.01225
 40 H    -0.02868    0.09973    0.10282
 41 H     0.02491   -0.04428    0.05769
 42 H     0.08208    0.03888    0.06327
 43 H     0.00263   -0.06289   -0.00638
 44 H     0.25237   -0.26176    0.07930
 45 N    -0.20478    0.08944   -0.07503
 46 N    -0.14071   -0.14710   -0.08863

System changes: positions 

Initializing position-dependent things.

Density initialized from wave functions
       .-----------------------.  
      /|                       |  
     / |                       |  
    /  |                       |  
   /   |                       |  
  /    |                       |  
 *     H  H                   H|  
 |     |                       |  
 |     C                       |  
 |     OH                   H H|  
 |     |                       |  
 |     |Li                     |  
 |     |        Li             |  
 |     |                       |  
 |   Li|     Li      Li        |  
 |     |  Li      LiLi    Li   |  
 | Li  |   Li         N N      |  
 |     |Li      Li Li   Li     |  
 |     |                       |  
 |   LLi     LiLi    LiLi      |  
 |     |  Li      Li      Li   |  
 | Li  |   Li      Li          |  
 |     |Li      Li      Li     |  
 Li    | Li      Li            |  
 |    Li      Li      Li       |  
 |     |                       |  
 |     |                       |  
 |     |                       |  
 |     |                       |  
 |     |                       |  
 |     |                       |  
 |     .-----------------------.  
 |    /                       /   
[...]
iter:  21 08:06:35  -310.107243c -5.86  -4.31c
iter:  22 08:07:19  -310.107240c -6.10  -4.40c
iter:  23 08:08:02  -310.107236c -6.37  -4.46c
iter:  24 08:08:45  -310.107236c -6.42  -4.66c
Writing to output.gpw (mode='')

iter:  25 08:09:32  -310.107236c -6.72  -4.80c
iter:  26 08:10:15  -310.107237c -6.62  -4.86c
iter:  27 08:10:59  -310.107237c -6.80  -5.01c
iter:  28 08:11:42  -310.107237c -7.07  -5.10c
iter:  29 08:12:26  -310.107237c -6.98  -5.13c
Writing to output.gpw (mode='')

iter:  30 08:13:10  -310.107237c -7.17  -5.18c
iter:  31 08:13:53  -310.107237c -7.41c -5.26c

Converged after 31 iterations.

Dipole moment: (-33.962800, 7.424282, 0.373500) |e|*Ang

Energy contributions relative to reference atoms: (reference = -14434.854043)

Kinetic:       +147.497922
Potential:     -140.024408
External:        +0.000000
XC:            -318.280376
Entropy (-ST):   -0.158663
Local:           +0.778957
--------------------------
Free energy:   -310.186569
Extrapolated:  -310.107237

Dipole-layer corrected work functions: 3.392746, 2.674750 eV

Showing only first 2 kpts
 Kpt  Band  Eigenvalues  Occupancy
  0    31     -3.23559    1.96530
  0    32     -3.05987    1.25549
  0    33     -3.01797    0.84352
  0    34     -2.91490    0.16990

  1    31     -3.33576    1.99525
  1    32     -2.96662    0.41419
  1    33     -2.94379    0.28392
  1    34     -2.89482    0.11699


Fermi level: -3.03375

No gap
Writing to output.gpw (mode='')


Forces in eV/Ang:
  0 Li   -0.02385   -0.00364   -0.29604
  1 Li   -0.01004    0.00695   -0.29153
  2 Li   -0.00734   -0.00364   -0.25892
  3 Li   -0.00025    0.00732   -0.29335
  4 Li   -0.01980    0.00342   -0.28645
  5 Li   -0.01159   -0.01001   -0.29339
  6 Li   -0.00139   -0.01026   -0.29346
  7 Li   -0.01881   -0.01395   -0.27531
  8 Li   -0.00016    0.00163   -0.29731
  9 Li    0.03872    0.05435    0.30469
 10 Li    0.08396    0.05042    0.24535
 11 Li    0.09289    0.06988    0.26380
 12 Li    0.03539   -0.03240    0.25117
 13 Li    0.05196   -0.03934    0.32044
 14 Li    0.11418   -0.03941    0.31941
 15 Li    0.00459    0.00142    0.31481
 16 Li    0.05929   -0.01720    0.27673
 17 Li    0.04653    0.03743    0.25732
 18 Li   -0.04460    0.01524   -0.01879
 19 Li   -0.06509    0.01542   -0.00781
 20 Li    0.00469    0.01188    0.01940
 21 Li    0.00490    0.00386    0.02117
 22 Li   -0.00394   -0.00030    0.00273
 23 Li    0.00271    0.01610   -0.04494
 24 Li    0.01224   -0.02830    0.01190
 25 Li   -0.00309   -0.00604    0.02492
 26 Li    0.00190   -0.02656    0.03168
 27 Li   -0.01699    0.00238    0.03273
 28 Li   -0.03414    0.00376   -0.01951
 29 Li    0.01983   -0.06224    0.00651
 30 Li   -0.05164   -0.01852   -0.01581
 31 Li   -0.01449   -0.01598    0.00355
 32 Li   -0.02212   -0.06967    0.04182
 33 Li   -0.00865   -0.02182    0.00601
 34 Li    0.00357    0.01690   -0.03325
 35 Li    0.00941   -0.00084   -0.03369
 36 O    -0.02733    0.03035    0.06487
 37 C    -0.03789    0.03610   -0.05185
 38 C     0.07947    0.03525   -0.05264
 39 H     0.01236   -0.00205   -0.00922
 40 H    -0.00021   -0.01044    0.03662
 41 H    -0.03066    0.02660   -0.03992
 42 H     0.13255    0.00767    0.05697
 43 H    -0.08273   -0.09637    0.05883
 44 H    -0.05142    0.02833   -0.01094
 45 N    -0.16632    0.05751    0.09546
 46 N    -0.04220   -0.03906   -0.12594

System changes: positions 

Initializing position-dependent things.

Density initialized from wave functions
       .-----------------------.  
      /|                       |  
     / |                       |  
    /  |                       |  
   /   |                       |  
  /    |                       |  
 *     H  H                   H|  
 |     C                       |  
 |     |                       |  
 |     CH                   H H|  
 |     O                       |  
 |     |                       |  
 |     |Li      Li             |  
 |     |                       |  
 |   Li|     Li      Li        |  
 |     |  Li      Li      Li   |  
 | Li  |   Li       LiN        |  
 |     |Li      LiLi    Ni     |  
 |     |                       |  
 |   LLi     LLi     LiLi      |  
 |     |  Li      Li      Li   |  
 | Li  |   Li      Li          |  
 |     |Li      Li      Li     |  
 Li    | Li      Li            |  
 |    Li      Li      Li       |  
 |     |                       |  
 |     |                       |  
 |     |                       |  
 |     |                       |  
 |     |                       |  
 |     |                       |  
 |     .-----------------------.  
 |    /                       /   
 |   /                       /    
 |  /                       /     
 | /                       /      
 |/                       /       
 *-----------------------*        

Positions:
   0 Li     1.617037    1.617037   10.000000    ( 0.0000,  0.0000,  0.0000)
   1 Li     4.851111    1.617037   10.000000    ( 0.0000,  0.0000,  0.0000)
   2 Li     8.085185    1.617037   10.000000    ( 0.0000,  0.0000,  0.0000)
   3 Li     1.617037    4.851111   10.000000    ( 0.0000,  0.0000,  0.0000)
   4 Li     4.851111    4.851111   10.000000    ( 0.0000,  0.0000,  0.0000)
   5 Li     8.085185    4.851111   10.000000    ( 0.0000,  0.0000,  0.0000)
   6 Li     1.617037    8.085185   10.000000    ( 0.0000,  0.0000,  0.0000)
   7 Li     4.851111    8.085185   10.000000    ( 0.0000,  0.0000,  0.0000)
   8 Li     8.085185    8.085185   10.000000    ( 0.0000,  0.0000,  0.0000)
   9 Li     0.000000    0.000000   11.617037    ( 0.0000,  0.0000,  0.0000)
  10 Li     3.234074    0.000000   11.617037    ( 0.0000,  0.0000,  0.0000)
  11 Li     6.468148    0.000000   11.617037    ( 0.0000,  0.0000,  0.0000)
  12 Li     0.000000    3.234074   11.617037    ( 0.0000,  0.0000,  0.0000)
  13 Li     3.234074    3.234074   11.617037    ( 0.0000,  0.0000,  0.0000)
  14 Li     6.468148    3.234074   11.617037    ( 0.0000,  0.0000,  0.0000)
  15 Li     0.000000    6.468148   11.617037    ( 0.0000,  0.0000,  0.0000)
  16 Li     3.234074    6.468148   11.617037    ( 0.0000,  0.0000,  0.0000)
  17 Li     6.468148    6.468148   11.617037    ( 0.0000,  0.0000,  0.0000)
  18 Li     1.778262    1.513705   13.584430    ( 0.0000,  0.0000,  0.0000)
  19 Li     5.036218    1.661561   13.513595    ( 0.0000,  0.0000,  0.0000)
  20 Li     8.281617    1.653997   13.602759    ( 0.0000,  0.0000,  0.0000)
  21 Li     1.623604    4.767288   13.479914    ( 0.0000,  0.0000,  0.0000)
  22 Li     4.918468    4.895334   13.490718    ( 0.0000,  0.0000,  0.0000)
  23 Li     8.085336    4.862290   13.489797    ( 0.0000,  0.0000,  0.0000)
  24 Li     1.702278    8.072865   13.447029    ( 0.0000,  0.0000,  0.0000)
  25 Li     4.937067    8.167927   13.457000    ( 0.0000,  0.0000,  0.0000)
  26 Li     8.137536    8.156103   13.480188    ( 0.0000,  0.0000,  0.0000)
  27 Li     0.375032   -0.225682   15.664431    ( 0.0000,  0.0000,  0.0000)
  28 Li     3.716996   -0.089411   15.509403    ( 0.0000,  0.0000,  0.0000)
  29 Li     6.926635    0.416569   15.555308    ( 0.0000,  0.0000,  0.0000)
  30 Li     0.094749    3.041246   15.576900    ( 0.0000,  0.0000,  0.0000)
  31 Li     3.371770    3.285727   15.426284    ( 0.0000,  0.0000,  0.0000)
  32 Li     6.701932    3.438264   15.499989    ( 0.0000,  0.0000,  0.0000)
  33 Li     0.024112    6.300142   15.330108    ( 0.0000,  0.0000,  0.0000)
  34 Li     3.205884    6.423674   15.416606    ( 0.0000,  0.0000,  0.0000)
  35 Li     6.374197    6.712737   15.466719    ( 0.0000,  0.0000,  0.0000)
  36 O      9.911233    8.978658   17.592616    ( 0.0000,  0.0000,  0.0000)
  37 C      9.922656    8.092885   18.735488    ( 0.0000,  0.0000,  0.0000)
  38 C     10.044913    8.879385   20.028675    ( 0.0000,  0.0000,  0.0000)
  39 H      9.014534    7.478287   18.731774    ( 0.0000,  0.0000,  0.0000)
  40 H     10.774766    7.431911   18.574125    ( 0.0000,  0.0000,  0.0000)
  41 H     10.028270    8.217715   20.899906    ( 0.0000,  0.0000,  0.0000)
  42 H     10.969492    9.454587   20.038387    ( 0.0000,  0.0000,  0.0000)
  43 H      9.225089    9.596473   20.126361    ( 0.0000,  0.0000,  0.0000)
  44 H      9.210400    9.633455   17.730111    ( 0.0000,  0.0000,  0.0000)
  45 N      8.859694   10.904847   15.625546    ( 0.0000,  0.0000,  0.0000)
  46 N      7.996408   11.826327   15.646150    ( 0.0000,  0.0000,  0.0000)

Unit cell:
           periodic     x           y           z      points  spacing
  1. axis:    yes    9.702222    0.000000    0.000000    60     0.1617
  2. axis:    yes    0.000000    9.702222    0.000000    60     0.1617
  3. axis:    no     0.000000    0.000000   24.851111   156     0.1593

  Lengths:   9.702222   9.702222  24.851111
  Angles:   90.000000  90.000000  90.000000

Effective grid spacing dv^(1/3) = 0.1609

     iter     time        total  log10-change:
                         energy  eigst   dens
iter:   1 08:14:53  -310.120175  -1.19
iter:   2 08:15:36  -310.116231  -1.97  -2.07
iter:   3 08:16:20  -310.113813c -2.60  -2.23
iter:   4 08:17:03  -310.112478c -2.95  -2.34
Writing to output.gpw (mode='')

iter:   5 08:17:49  -310.110966c -2.32  -2.48
iter:   6 08:18:33  -310.111104c -2.70  -2.68
iter:   7 08:19:16  -310.110492c -3.47  -2.66
iter:   8 08:19:59  -310.110602c -2.96  -2.94
iter:   9 08:20:43  -310.110490c -3.76  -2.95
Writing to output.gpw (mode='')

iter:  10 08:21:27  -310.110333c -4.13  -3.01
iter:  11 08:22:11  -310.110191c -3.79  -3.17
iter:  12 08:22:54  -310.110231c -4.29  -3.34
iter:  13 08:23:37  -310.110230c -4.56  -3.42
iter:  14 08:24:21  -310.110303c -4.41  -3.47
Writing to output.gpw (mode='')

iter:  15 08:25:06  -310.110297c -5.03  -3.64
iter:  16 08:25:49  -310.110284c -5.36  -3.75
iter:  17 08:26:33  -310.110270c -5.43  -3.83
iter:  18 08:27:16  -310.110276c -5.40  -3.99
iter:  19 08:28:00  -310.110278c -5.68  -4.12c
Writing to output.gpw (mode='')

iter:  20 08:28:48  -310.110284c -5.97  -4.13c
iter:  21 08:29:31  -310.110272c -6.02  -4.15c
iter:  22 08:30:14  -310.110271c -6.02  -4.37c
iter:  23 08:30:58  -310.110271c -6.56  -4.46c
iter:  24 08:31:41  -310.110271c -6.53  -4.56c
Writing to output.gpw (mode='')

iter:  25 08:32:26  -310.110269c -6.45  -4.63c
iter:  26 08:33:10  -310.110269c -7.08  -4.70c
iter:  27 08:33:53  -310.110270c -6.91  -4.79c
iter:  28 08:34:37  -310.110270c -7.24  -4.94c
iter:  29 08:35:21  -310.110270c -7.38  -5.01c
Writing to output.gpw (mode='')

iter:  30 08:36:24  -310.110271c -7.42c -5.27c

Converged after 30 iterations.

Dipole moment: (-33.734953, 7.726706, 0.373524) |e|*Ang

Energy contributions relative to reference atoms: (reference = -14434.854043)

Kinetic:       +147.860405
Potential:     -140.306002
External:        +0.000000
XC:            -318.364119
Entropy (-ST):   -0.158674
Local:           +0.778782
--------------------------
Free energy:   -310.189608
Extrapolated:  -310.110271

Dipole-layer corrected work functions: 3.392659, 2.674618 eV

Showing only first 2 kpts
 Kpt  Band  Eigenvalues  Occupancy
  0    31     -3.23530    1.96518
  0    32     -3.05919    1.25005
  0    33     -3.01739    0.83890
  0    34     -2.91468    0.16956

  1    31     -3.33397    1.99509
  1    32     -2.96630    0.41282
  1    33     -2.94433    0.28710
  1    34     -2.89478    0.11713


Fermi level: -3.03364

No gap

Forces in eV/Ang:
  0 Li   -0.02317   -0.00381   -0.29640
  1 Li   -0.00949    0.00687   -0.29165
  2 Li   -0.00713   -0.00356   -0.25895
  3 Li   -0.00034    0.00725   -0.29448
  4 Li   -0.01973    0.00326   -0.28624
  5 Li   -0.01139   -0.00987   -0.29314
  6 Li   -0.00163   -0.01032   -0.29309
  7 Li   -0.01836   -0.01363   -0.27610
  8 Li   -0.00019    0.00185   -0.29749
  9 Li    0.03728    0.05755    0.30219
 10 Li    0.07999    0.05067    0.24618
 11 Li    0.09118    0.06958    0.26298
 12 Li    0.03454   -0.03449    0.25536
 13 Li    0.04597   -0.03829    0.32231
 14 Li    0.11269   -0.03920    0.31684
 15 Li    0.00509   -0.00110    0.31596
 16 Li    0.05857   -0.01588    0.28370
 17 Li    0.04643    0.03521    0.26021
 18 Li   -0.04113    0.01796   -0.02897
 19 Li   -0.06118    0.01291   -0.00184
 20 Li    0.01840    0.01303   -0.00263
 21 Li    0.00688    0.00155    0.01868
 22 Li   -0.00817    0.00240   -0.00227
 23 Li    0.00419    0.01941   -0.04909
 24 Li    0.01772   -0.03738    0.00636
 25 Li   -0.00541   -0.00788    0.02294
 26 Li   -0.00088   -0.02779    0.03512
 27 Li    0.00752   -0.01267    0.00655
 28 Li   -0.03941    0.00498   -0.02063
 29 Li    0.02699   -0.06905    0.01314
 30 Li   -0.07278   -0.02669   -0.01447
 31 Li   -0.01196   -0.01088    0.00308
 32 Li   -0.02518   -0.06985    0.03703
 33 Li   -0.00611   -0.02052    0.00386
 34 Li    0.00500    0.01346   -0.03203
 35 Li    0.00782   -0.00246   -0.03142
 36 O    -0.02424    0.02232    0.05389
 37 C    -0.02415    0.04510   -0.04229
 38 C     0.06110    0.05374    0.02740
 39 H    -0.01995   -0.00118   -0.01134
 40 H     0.04221   -0.00635    0.03188
 41 H    -0.00525    0.02479   -0.08209
 42 H     0.13755   -0.02294    0.03099
 43 H    -0.09692   -0.07685    0.04001
 44 H    -0.05305    0.03784   -0.00484
 45 N    -0.15435    0.02190    0.07797
 46 N    -0.06036    0.12083   -0.12605

System changes: positions 

Initializing position-dependent things.

Density initialized from wave functions
       .-----------------------.  
      /|                       |  
     / |                       |  
    /  |                       |  
   /   |                       |  
  /    |                       |  
 *     H  H                   H|  
 |     C                       |  
 |     |                       |  
 |     CH                   H H|  
 |     O                       |  
 |     |                       |  
 |     |Li      Li             |  
 |     |                       |  
 |   Li|     Li      Li        |  
 |     |  Li      Li      Li   |  
 | Li  |   Li       LiN        |  
 |     |Li      LiLi    Ni     |  
 |     |                       |  
 |   LLi     LLi     LLi       |  
 |     |  Li      Li      Li   |  
 | Li  |   Li      Li          |  
 |     |Li      Li      Li     |  
 Li    | Li      Li            |  
 |    Li      Li      Li       |  
 |     |                       |  
 |     |                       |  
 |     |                       |  
 |     |                       |  
 |     |                       |  
 |     |                       |  
 |     .-----------------------.  
 |    /                       /   
 |   /                       /    
 |  /                       /     
 | /                       /      
 |/                       /       
 *-----------------------*        

Positions:
   0 Li     1.617037    1.617037   10.000000    ( 0.0000,  0.0000,  0.0000)
   1 Li     4.851111    1.617037   10.000000    ( 0.0000,  0.0000,  0.0000)
   2 Li     8.085185    1.617037   10.000000    ( 0.0000,  0.0000,  0.0000)
   3 Li     1.617037    4.851111   10.000000    ( 0.0000,  0.0000,  0.0000)
   4 Li     4.851111    4.851111   10.000000    ( 0.0000,  0.0000,  0.0000)
   5 Li     8.085185    4.851111   10.000000    ( 0.0000,  0.0000,  0.0000)
   6 Li     1.617037    8.085185   10.000000    ( 0.0000,  0.0000,  0.0000)
   7 Li     4.851111    8.085185   10.000000    ( 0.0000,  0.0000,  0.0000)
   8 Li     8.085185    8.085185   10.000000    ( 0.0000,  0.0000,  0.0000)
   9 Li     0.000000    0.000000   11.617037    ( 0.0000,  0.0000,  0.0000)
  10 Li     3.234074    0.000000   11.617037    ( 0.0000,  0.0000,  0.0000)
  11 Li     6.468148    0.000000   11.617037    ( 0.0000,  0.0000,  0.0000)
  12 Li     0.000000    3.234074   11.617037    ( 0.0000,  0.0000,  0.0000)
  13 Li     3.234074    3.234074   11.617037    ( 0.0000,  0.0000,  0.0000)
  14 Li     6.468148    3.234074   11.617037    ( 0.0000,  0.0000,  0.0000)
  15 Li     0.000000    6.468148   11.617037    ( 0.0000,  0.0000,  0.0000)
  16 Li     3.234074    6.468148   11.617037    ( 0.0000,  0.0000,  0.0000)
  17 Li     6.468148    6.468148   11.617037    ( 0.0000,  0.0000,  0.0000)
  18 Li     1.771615    1.508175   13.589008    ( 0.0000,  0.0000,  0.0000)
  19 Li     5.023664    1.664423   13.506244    ( 0.0000,  0.0000,  0.0000)
  20 Li     8.265830    1.647903   13.597594    ( 0.0000,  0.0000,  0.0000)
  21 Li     1.623463    4.769669   13.480587    ( 0.0000,  0.0000,  0.0000)
  22 Li     4.920145    4.893139   13.496808    ( 0.0000,  0.0000,  0.0000)
  23 Li     8.083027    4.857741   13.491537    ( 0.0000,  0.0000,  0.0000)
  24 Li     1.700353    8.077468   13.447637    ( 0.0000,  0.0000,  0.0000)
  25 Li     4.938378    8.169790   13.459041    ( 0.0000,  0.0000,  0.0000)
  26 Li     8.141043    8.153730   13.476169    ( 0.0000,  0.0000,  0.0000)
  27 Li     0.366653   -0.223685   15.657447    ( 0.0000,  0.0000,  0.0000)
  28 Li     3.721673   -0.089018   15.513303    ( 0.0000,  0.0000,  0.0000)
  29 Li     6.912448    0.407800   15.541746    ( 0.0000,  0.0000,  0.0000)
  30 Li     0.090164    3.035687   15.569405    ( 0.0000,  0.0000,  0.0000)
  31 Li     3.362353    3.280098   15.427387    ( 0.0000,  0.0000,  0.0000)
  32 Li     6.694494    3.427612   15.496323    ( 0.0000,  0.0000,  0.0000)
  33 Li     0.019580    6.291605   15.330010    ( 0.0000,  0.0000,  0.0000)
  34 Li     3.204688    6.428692   15.413698    ( 0.0000,  0.0000,  0.0000)
  35 Li     6.378788    6.714332   15.464199    ( 0.0000,  0.0000,  0.0000)
  36 O      9.911888    8.981070   17.573421    ( 0.0000,  0.0000,  0.0000)
  37 C      9.927466    8.090255   18.710713    ( 0.0000,  0.0000,  0.0000)
  38 C     10.055505    8.870161   20.007338    ( 0.0000,  0.0000,  0.0000)
  39 H      9.021627    7.471015   18.709033    ( 0.0000,  0.0000,  0.0000)
  40 H     10.776197    7.427073   18.546699    ( 0.0000,  0.0000,  0.0000)
  41 H     10.033679    8.204539   20.875449    ( 0.0000,  0.0000,  0.0000)
  42 H     10.978743    9.449985   20.026531    ( 0.0000,  0.0000,  0.0000)
  43 H      9.231497    9.580178   20.117431    ( 0.0000,  0.0000,  0.0000)
  44 H      9.204566    9.629418   17.712319    ( 0.0000,  0.0000,  0.0000)
  45 N      8.847310   10.900987   15.614702    ( 0.0000,  0.0000,  0.0000)
  46 N      7.987080   11.822665   15.628265    ( 0.0000,  0.0000,  0.0000)

Unit cell:
           periodic     x           y           z      points  spacing
  1. axis:    yes    9.702222    0.000000    0.000000    60     0.1617
  2. axis:    yes    0.000000    9.702222    0.000000    60     0.1617
  3. axis:    no     0.000000    0.000000   24.851111   156     0.1593

  Lengths:   9.702222   9.702222  24.851111
  Angles:   90.000000  90.000000  90.000000

Effective grid spacing dv^(1/3) = 0.1609

     iter     time        total  log10-change:
                         energy  eigst   dens
iter:   1 08:39:28  -310.126733  -0.85
iter:   2 08:42:07  -310.124764  -1.72  -2.07
iter:   3 08:44:40  -310.123493c -2.29  -2.15
iter:   4 08:47:10  -310.120884c -2.78  -2.21
Writing to output.gpw (mode='')

iter:   5 08:49:43  -310.116753c -1.83  -2.27
iter:   6 08:52:17  -310.117285c -2.42  -2.45
iter:   7 08:54:59  -310.121384c -1.84  -2.42
iter:   8 08:57:42  -310.116886c -2.96  -2.29
iter:   9 09:00:09  -310.116100c -3.07  -2.51
Writing to output.gpw (mode='')

iter:  10 09:02:47  -310.115795c -3.23  -2.61
iter:  11 09:05:17  -310.114591c -2.68  -2.66
iter:  12 09:07:45  -310.114641c -3.43  -2.99
iter:  13 09:10:27  -310.114691c -3.66  -3.08
iter:  14 09:12:54  -310.114725c -3.80  -3.21
Writing to output.gpw (mode='')

iter:  15 09:15:27  -310.114798c -4.24  -3.24
iter:  16 09:17:57  -310.114842c -4.29  -3.51
iter:  17 09:20:40  -310.114786c -4.38  -3.59
iter:  18 09:23:21  -310.114791c -4.85  -3.78
iter:  19 09:25:54  -310.114780c -5.12  -3.81
Writing to output.gpw (mode='')

iter:  20 09:28:34  -310.114788c -5.07  -3.97
iter:  21 09:31:15  -310.114787c -5.48  -4.01c
iter:  22 09:33:50  -310.114793c -5.71  -4.07c
iter:  23 09:36:28  -310.114795c -6.03  -4.27c
