
  ___ ___ ___ _ _ _  
 |   |   |_  | | | | 
 | | | | | . | | | | 
 |__ |  _|___|_____|  22.8.0
 |___|_|             

User:   vazumah@d002
Date:   Fri Mar  3 11:26:10 2023
Arch:   x86_64
Pid:    36319
CWD:    /home/vazumah/Research_Projects/LiMEAS/LiNRR_proton_donors/on_pure_surface/Li_BCC100/adsorbates/butanol_z/bridge/0.0_1.617
Python: 3.10.6
gpaw:   /home/vazumah/anaconda3/envs/NAME/lib/python3.10/site-packages/gpaw
_gpaw:  /home/vazumah/anaconda3/envs/NAME/lib/python3.10/site-packages/
        _gpaw.cpython-310-x86_64-linux-gnu.so
ase:    /home/vazumah/anaconda3/envs/NAME/lib/python3.10/site-packages/ase (version 3.22.1)
numpy:  /home/vazumah/anaconda3/envs/NAME/lib/python3.10/site-packages/numpy (version 1.23.3)
scipy:  /home/vazumah/anaconda3/envs/NAME/lib/python3.10/site-packages/scipy (version 1.9.1)
libxc:  5.2.3
units:  Angstrom and eV
cores: 32
OpenMP: True
OMP_NUM_THREADS: 1

Input parameters:
  h: 0.16
  kpts: {size: [4, 4, 1]}
  occupations: {name: fermi-dirac,
                width: 0.05}
  poissonsolver: {dipolelayer: xy}
  xc: BEEF-vdW

System changes: positions, numbers, cell, pbc, initial_charges, initial_magmoms 

Initialize ...

species:
  Li:
    name: Lithium
    id: 830b4218f175192f93f959cfc0aad614
    Z: 3.0
    valence: 1
    core: 2
    charge: 0.0
    file: /home/vazumah/anaconda3/envs/NAME/share/gpaw/Li.PBE.gz
    compensation charges: {type: gauss,
                           rc: 0.33,
                           lmax: 2}
    cutoffs: {filter: 1.91,
              core: 2.55}
    valence states:
      #              energy  rcut
      - 2s(1.00)    -2.874   1.058
      - 2p(0.00)    -1.090   1.058
      -  s          24.337   1.058
  
    # Using partial waves for Li as LCAO basis

  O:
    name: Oxygen
    id: 32ecd46bf208036f09c70b0ec9a88b78
    Z: 8.0
    valence: 6
    core: 2
    charge: 0.0
    file: /home/vazumah/anaconda3/envs/NAME/share/gpaw/O.PBE.gz
    compensation charges: {type: gauss,
                           rc: 0.21,
                           lmax: 2}
    cutoffs: {filter: 1.17,
              core: 0.83}
    valence states:
      #              energy  rcut
      - 2s(2.00)   -23.961   0.688
      - 2p(4.00)    -9.029   0.598
      -  s           3.251   0.688
      -  p          18.182   0.598
      -  d           0.000   0.619
  
    # Using partial waves for O as LCAO basis

  C:
    name: Carbon
    id: 4aa54d4b901d75f77cc0ea3eec22967b
    Z: 6.0
    valence: 4
    core: 2
    charge: 0.0
    file: /home/vazumah/anaconda3/envs/NAME/share/gpaw/C.PBE.gz
    compensation charges: {type: gauss,
                           rc: 0.20,
                           lmax: 2}
    cutoffs: {filter: 1.14,
              core: 1.14}
    valence states:
      #              energy  rcut
      - 2s(2.00)   -13.751   0.635
      - 2p(2.00)    -5.284   0.635
      -  s          13.461   0.635
      -  p          21.927   0.635
      -  d           0.000   0.635
  
    # Using partial waves for C as LCAO basis

  H:
    name: Hydrogen
    id: d65de229564ff8ea4db303e23b6d1ecf
    Z: 1.0
    valence: 1
    core: 0
    charge: 0.0
    file: /home/vazumah/anaconda3/envs/NAME/share/gpaw/H.PBE.gz
    compensation charges: {type: gauss,
                           rc: 0.15,
                           lmax: 2}
    cutoffs: {filter: 0.85,
              core: 0.53}
    valence states:
      #              energy  rcut
      - 1s(1.00)    -6.494   0.476
      -  s          20.717   0.476
      -  p           0.000   0.476
  
    # Using partial waves for H as LCAO basis

Reference energy: -13576.627914  # eV

Spin-paired calculation

Convergence criteria:
 Maximum [total energy] change in last 3 cyles: 0.0005 eV / electron
 Maximum integral of absolute [dens]ity change: 0.0001 electrons / valence electron
 Maximum integral of absolute [eigenst]ate change: 4e-08 eV^2 / valence electron
 Maximum number of scf [iter]ations: 333
 (Square brackets indicate name in SCF output, whereas a 'c' in
 the SCF output indicates the quantity has converged.)

Symmetries present (total): 1

  ( 1  0  0)
  ( 0  1  0)
  ( 0  0  1)

16 k-points: 4 x 4 x 1 Monkhorst-Pack grid
8 k-points in the irreducible part of the Brillouin zone
       k-points in crystal coordinates                weights
   0:     0.12500000   -0.37500000    0.00000000          2/16
   1:     0.12500000   -0.12500000    0.00000000          2/16
   2:     0.12500000    0.12500000    0.00000000          2/16
   3:     0.12500000    0.37500000    0.00000000          2/16
   4:     0.37500000   -0.37500000    0.00000000          2/16
   5:     0.37500000   -0.12500000    0.00000000          2/16
   6:     0.37500000    0.12500000    0.00000000          2/16
   7:     0.37500000    0.37500000    0.00000000          2/16

Wave functions: Uniform real-space grid
  Kinetic energy operator: 6*3+1=19 point O(h^6) finite-difference Laplacian
  ScaLapack parameters: grid=1x1, blocksize=None
  Wavefunction extrapolation:
    Improved wavefunction reuse through dual PAW basis 

Occupation numbers: Fermi-Dirac:
  width: 0.0500  # eV
 

Eigensolver
   Davidson(niter=2) 

Densities:
  Coarse grid: 60*60*168 grid
  Fine grid: 120*120*336 grid
  Total Charge: 0.000000 

Density mixing:
  Method: separate
  Backend: pulay
  Linear mixing parameter: 0.05
  old densities: 5
  Damping of long wavelength oscillations: 50 

Hamiltonian:
  XC and Coulomb potentials evaluated on a 120*120*336 grid
  Using the BEEF-vdW Exchange-Correlation functional
  Interpolation: tri-quintic (5. degree polynomial)
  Poisson solver: FastPoissonSolver using
    Stencil: 6*3+1=19 point O(h^6) finite-difference Laplacian
    FFT axes: [0, 1]
    FST axes: [2]

Dipole correction along z-axis 

XC parameters: BEEF-vdW with 2 nearest neighbor stencil

Memory estimate:
  Process memory now: 223.49 MiB
  Calculator: 332.02 MiB
    Density: 91.69 MiB
      Arrays: 29.61 MiB
      Localized functions: 50.83 MiB
      Mixer: 11.26 MiB
    Hamiltonian: 23.38 MiB
      Arrays: 19.36 MiB
      XC: 0.00 MiB
      Poisson: 0.00 MiB
      vbar: 4.01 MiB
    Wavefunctions: 216.94 MiB
      Arrays psit_nG: 101.35 MiB
      Eigensolver: 112.92 MiB
      Projections: 0.05 MiB
      Projectors: 2.62 MiB

Total number of cores used: 32
Parallelization over k-points: 8
Domain decomposition: 1 x 1 x 4

Number of atoms: 51
Number of atomic orbitals: 174
Number of bands in calculation: 45
Number of valence electrons: 68
Bands to converge: occupied

... initialized

Initializing position-dependent things.

Density initialized from atomic densities
Creating initial wave functions:
  45 bands from LCAO basis set

       .-----------------------.  
      /|                       |  
     / |                       |  
    /  |                       |  
   /   |                       |  
  /    |                       |  
 *     |                       |  
 |     |                       |  
 |     |                  H    |  
 |   H |                H C    |  
 |     |                       |  
 |     |                 C     |  
 | HH  |               HH C    |  
 |     |                       |  
 |     |                 C     |  
 |OHH  |               H       |  
 |   Li|     Li      Li        |  
 |     |  Li      Li      Li   |  
 | Li  |   Li      Li          |  
 |     |Li      Li      Li     |  
 Li    | Li      Li            |  
 |   LLi     LLi     LLi       |  
 |     |  Li      Li      Li   |  
 | Li  |   Li      Li          |  
 |     |Li      Li      Li     |  
 Li    | Li      Li            |  
 |    Li      Li      Li       |  
 |     |                       |  
 |     |                       |  
 |     |                       |  
 |     |                       |  
 |     |                       |  
 |     |                       |  
 |     .-----------------------.  
 |    /                       /   
 |   /                       /    
 |  /                       /     
 | /                       /      
 |/                       /       
 *-----------------------*        

Positions:
   0 Li     1.617037    1.617037   10.000000    ( 0.0000,  0.0000,  0.0000)
   1 Li     4.851111    1.617037   10.000000    ( 0.0000,  0.0000,  0.0000)
   2 Li     8.085185    1.617037   10.000000    ( 0.0000,  0.0000,  0.0000)
   3 Li     1.617037    4.851111   10.000000    ( 0.0000,  0.0000,  0.0000)
   4 Li     4.851111    4.851111   10.000000    ( 0.0000,  0.0000,  0.0000)
   5 Li     8.085185    4.851111   10.000000    ( 0.0000,  0.0000,  0.0000)
   6 Li     1.617037    8.085185   10.000000    ( 0.0000,  0.0000,  0.0000)
   7 Li     4.851111    8.085185   10.000000    ( 0.0000,  0.0000,  0.0000)
   8 Li     8.085185    8.085185   10.000000    ( 0.0000,  0.0000,  0.0000)
   9 Li     0.000000    0.000000   11.617037    ( 0.0000,  0.0000,  0.0000)
  10 Li     3.234074    0.000000   11.617037    ( 0.0000,  0.0000,  0.0000)
  11 Li     6.468148    0.000000   11.617037    ( 0.0000,  0.0000,  0.0000)
  12 Li     0.000000    3.234074   11.617037    ( 0.0000,  0.0000,  0.0000)
  13 Li     3.234074    3.234074   11.617037    ( 0.0000,  0.0000,  0.0000)
  14 Li     6.468148    3.234074   11.617037    ( 0.0000,  0.0000,  0.0000)
  15 Li     0.000000    6.468148   11.617037    ( 0.0000,  0.0000,  0.0000)
  16 Li     3.234074    6.468148   11.617037    ( 0.0000,  0.0000,  0.0000)
  17 Li     6.468148    6.468148   11.617037    ( 0.0000,  0.0000,  0.0000)
  18 Li     1.617038    1.617038   13.469728    ( 0.0000,  0.0000,  0.0000)
  19 Li     4.851111    1.617038   13.469729    ( 0.0000,  0.0000,  0.0000)
  20 Li     8.085184    1.617038   13.469728    ( 0.0000,  0.0000,  0.0000)
  21 Li     1.617038    4.851111   13.469729    ( 0.0000,  0.0000,  0.0000)
  22 Li     4.851111    4.851111   13.469730    ( 0.0000,  0.0000,  0.0000)
  23 Li     8.085184    4.851111   13.469729    ( 0.0000,  0.0000,  0.0000)
  24 Li     1.617038    8.085184   13.469728    ( 0.0000,  0.0000,  0.0000)
  25 Li     4.851111    8.085184   13.469729    ( 0.0000,  0.0000,  0.0000)
  26 Li     8.085184    8.085184   13.469728    ( 0.0000,  0.0000,  0.0000)
  27 Li    -0.000000   -0.000000   15.445939    ( 0.0000,  0.0000,  0.0000)
  28 Li     3.234074    0.000000   15.445939    ( 0.0000,  0.0000,  0.0000)
  29 Li     6.468148    0.000000   15.445939    ( 0.0000,  0.0000,  0.0000)
  30 Li     0.000000    3.234074   15.445939    ( 0.0000,  0.0000,  0.0000)
  31 Li     3.234076    3.234076   15.445938    ( 0.0000,  0.0000,  0.0000)
  32 Li     6.468146    3.234076   15.445938    ( 0.0000,  0.0000,  0.0000)
  33 Li     0.000000    6.468148   15.445939    ( 0.0000,  0.0000,  0.0000)
  34 Li     3.234076    6.468146   15.445938    ( 0.0000,  0.0000,  0.0000)
  35 Li     6.468146    6.468146   15.445938    ( 0.0000,  0.0000,  0.0000)
  36 O      0.000000    1.617037   18.445939    ( 0.0000,  0.0000,  0.0000)
  37 C     -0.035826    1.629378   20.912999    ( 0.0000,  0.0000,  0.0000)
  38 C     -0.022415    0.774326   22.182560    ( 0.0000,  0.0000,  0.0000)
  39 C     -0.000207    0.806558   19.630422    ( 0.0000,  0.0000,  0.0000)
  40 C     -0.006786    1.625311   23.455270    ( 0.0000,  0.0000,  0.0000)
  41 H     -0.929319    2.262547   20.898200    ( 0.0000,  0.0000,  0.0000)
  42 H      0.835530    2.299566   20.926315    ( 0.0000,  0.0000,  0.0000)
  43 H      0.853794    0.115250   22.169599    ( 0.0000,  0.0000,  0.0000)
  44 H     -0.900386    0.118162   22.187463    ( 0.0000,  0.0000,  0.0000)
  45 H      0.873932    0.140991   19.636976    ( 0.0000,  0.0000,  0.0000)
  46 H     -0.894826    0.183243   19.545907    ( 0.0000,  0.0000,  0.0000)
  47 H      0.877257    2.267792   23.482857    ( 0.0000,  0.0000,  0.0000)
  48 H     -0.884238    2.275325   23.500588    ( 0.0000,  0.0000,  0.0000)
  49 H     -0.000642    1.011586   24.358445    ( 0.0000,  0.0000,  0.0000)
  50 H      0.762179    2.206136   18.495250    ( 0.0000,  0.0000,  0.0000)

Unit cell:
           periodic     x           y           z      points  spacing
  1. axis:    yes    9.702222    0.000000    0.000000    60     0.1617
  2. axis:    yes    0.000000    9.702222    0.000000    60     0.1617
  3. axis:    no     0.000000    0.000000   26.851111   168     0.1598

  Lengths:   9.702222   9.702222  26.851111
  Angles:   90.000000  90.000000  90.000000

Effective grid spacing dv^(1/3) = 0.1611

     iter     time        total  log10-change:
                         energy  eigst   dens
iter:   1 11:26:59  -739.826070
iter:   2 11:27:27   126.727210  +2.68  +0.06
iter:   3 11:27:56   469.320326  +3.35  -0.07
iter:   4 11:28:24    55.066636  +3.73  -0.08
Writing to output.gpw (mode='')

iter:   5 11:28:55  -207.209784  +3.22  -0.07
iter:   6 11:29:24  -234.005498  +2.83  -0.22
iter:   7 11:29:54  -317.403097  +2.54  -0.48
iter:   8 11:30:27  -444.713949  +2.51  -0.45
iter:   9 11:30:55  -786.011305  +3.25  -0.26
Writing to output.gpw (mode='')

iter:  10 11:31:24  -583.236699  +2.49  -0.06
iter:  11 11:31:56  -319.521193  +2.32  -0.11
iter:  12 11:32:28  -335.311099  +1.69  -0.48
iter:  13 11:33:00  -350.268309  +2.03  -0.49
iter:  14 11:33:29  -324.361275  +2.26  -0.40
Writing to output.gpw (mode='')

iter:  15 11:33:58  -323.534156  +1.57  -0.66
iter:  16 11:34:26  -338.963006  +2.28  -0.72
iter:  17 11:34:59  -335.486124  +1.53  -0.68
iter:  18 11:35:30  -331.781253  +0.94  -0.66
iter:  19 11:36:01  -408.232329  +2.40  -0.67
Writing to output.gpw (mode='')

iter:  20 11:36:35  -329.641072  +1.45  -0.32
iter:  21 11:37:04  -336.754112  +0.31  -0.87
iter:  22 11:37:35  -342.002559  +1.74  -0.54
iter:  23 11:38:07  -341.527812  +1.25  -0.67
iter:  24 11:38:37  -340.377339  +1.20  -0.65
Writing to output.gpw (mode='')

iter:  25 11:39:07  -327.511257  +0.51  -0.66
iter:  26 11:39:39  -325.835505  +0.31  -0.89
iter:  27 11:40:10  -323.559518  +0.05  -0.98
iter:  28 11:40:40  -323.452947  -0.00  -1.33
iter:  29 11:41:11  -323.454689  -0.48  -1.39
Writing to output.gpw (mode='')

iter:  30 11:41:40  -323.369971  -0.31  -1.44
iter:  31 11:42:11  -323.370737  -0.27  -1.53
iter:  32 11:42:41  -323.314730  -0.40  -1.64
iter:  33 11:43:10  -323.329260  -0.85  -1.93
iter:  34 11:43:42  -323.338736c -1.08  -1.96
Writing to output.gpw (mode='')

iter:  35 11:44:13  -323.339842c -1.22  -2.00
iter:  36 11:44:42  -323.342241c -1.34  -2.12
iter:  37 11:45:13  -323.339566c -1.48  -2.18
iter:  38 11:45:43  -323.340308c -1.54  -2.30
iter:  39 11:46:12  -323.343417c -1.68  -2.39
Writing to output.gpw (mode='')

iter:  40 11:46:40  -323.347636c -1.65  -2.44
iter:  41 11:47:11  -323.349337c -1.88  -2.56
iter:  42 11:47:42  -323.351435c -1.89  -2.76
iter:  43 11:48:11  -323.352929c -2.16  -2.88
iter:  44 11:48:42  -323.354228c -2.21  -2.94
Writing to output.gpw (mode='')

iter:  45 11:49:11  -323.355540c -2.22  -3.00
iter:  46 11:49:43  -323.356553c -2.43  -3.25
iter:  47 11:50:12  -323.357498c -2.34  -3.27
iter:  48 11:50:41  -323.358537c -2.32  -3.29
iter:  49 11:51:10  -323.359248c -2.59  -3.43
Writing to output.gpw (mode='')

iter:  50 11:51:38  -323.359868c -2.61  -3.53
iter:  51 11:52:07  -323.360418c -2.64  -3.56
iter:  52 11:52:35  -323.361004c -2.61  -3.44
iter:  53 11:53:04  -323.361407c -2.88  -3.48
iter:  54 11:53:34  -323.361865c -2.70  -3.43
Writing to output.gpw (mode='')

iter:  55 11:54:03  -323.362210c -2.80  -3.45
iter:  56 11:54:34  -323.362496c -2.88  -3.41
iter:  57 11:55:06  -323.362769c -2.85  -3.38
iter:  58 11:55:34  -323.363000c -3.07  -3.36
iter:  59 11:56:03  -323.363209c -3.04  -3.32
Writing to output.gpw (mode='')

iter:  60 11:56:33  -323.363383c -3.12  -3.33
iter:  61 11:57:04  -323.363532c -3.19  -3.31
iter:  62 11:57:34  -323.363682c -3.14  -3.35
iter:  63 11:58:05  -323.363803c -3.09  -3.42
iter:  64 11:58:36  -323.363925c -3.11  -3.46
Writing to output.gpw (mode='')

iter:  65 11:59:07  -323.363995c -3.43  -3.55
iter:  66 11:59:37  -323.364057c -3.52  -3.59
iter:  67 12:00:08  -323.364106c -3.63  -3.66
iter:  68 12:00:40  -323.364148c -3.65  -3.77
iter:  69 12:01:11  -323.364176c -3.81  -3.85
Writing to output.gpw (mode='')

iter:  70 12:01:43  -323.364206c -3.81  -3.96
iter:  71 12:02:16  -323.364231c -3.71  -4.05c
iter:  72 12:02:45  -323.364249c -4.02  -4.22c
iter:  73 12:03:13  -323.364267c -3.93  -4.27c
iter:  74 12:03:42  -323.364284c -4.09  -4.30c
Writing to output.gpw (mode='')

iter:  75 12:04:11  -323.364295c -4.16  -4.39c
iter:  76 12:04:41  -323.364304c -4.35  -4.48c
iter:  77 12:05:10  -323.364312c -4.36  -4.58c
iter:  78 12:05:39  -323.364320c -4.31  -4.59c
iter:  79 12:06:08  -323.364325c -4.41  -4.61c
Writing to output.gpw (mode='')

iter:  80 12:06:38  -323.364330c -4.48  -4.63c
iter:  81 12:07:11  -323.364334c -4.70  -4.64c
iter:  82 12:07:43  -323.364337c -4.75  -4.70c
iter:  83 12:08:15  -323.364339c -4.89  -4.89c
iter:  84 12:08:46  -323.364341c -4.91  -4.88c
Writing to output.gpw (mode='')

iter:  85 12:09:15  -323.364343c -5.02  -4.76c
iter:  86 12:09:44  -323.364344c -5.01  -5.07c
iter:  87 12:10:13  -323.364345c -5.07  -5.04c
iter:  88 12:10:42  -323.364346c -5.01  -4.98c
iter:  89 12:11:13  -323.364347c -5.07  -4.87c
Writing to output.gpw (mode='')

iter:  90 12:11:42  -323.364347c -5.14  -4.82c
iter:  91 12:12:16  -323.364348c -5.26  -4.78c
iter:  92 12:12:49  -323.364348c -5.17  -4.76c
iter:  93 12:13:23  -323.364349c -5.28  -4.72c
iter:  94 12:13:56  -323.364349c -5.48  -4.64c
Writing to output.gpw (mode='')

iter:  95 12:14:30  -323.364349c -5.66  -4.59c
iter:  96 12:15:08  -323.364350c -5.58  -4.59c
iter:  97 12:15:58  -323.364350c -5.80  -4.80c
iter:  98 12:16:58  -323.364350c -5.46  -4.77c
iter:  99 12:17:51  -323.364350c -5.79  -4.87c
Writing to output.gpw (mode='')

iter: 100 12:18:46  -323.364350c -5.81  -4.84c
iter: 101 12:19:38  -323.364350c -5.96  -4.90c
iter: 102 12:20:29  -323.364350c -5.81  -4.91c
iter: 103 12:21:22  -323.364350c -6.06  -4.90c
iter: 104 12:22:17  -323.364350c -6.17  -4.90c
Writing to output.gpw (mode='')

iter: 105 12:23:10  -323.364350c -6.16  -4.97c
iter: 106 12:24:01  -323.364350c -6.06  -5.00c
iter: 107 12:24:53  -323.364350c -6.24  -5.07c
iter: 108 12:25:45  -323.364350c -6.27  -5.16c
iter: 109 12:27:26  -323.364350c -6.35  -5.22c
Writing to output.gpw (mode='')

iter: 110 12:28:08  -323.364350c -6.54  -5.28c
iter: 111 12:29:54  -323.364350c -6.46  -5.33c
iter: 112 12:30:41  -323.364350c -6.63  -5.43c
iter: 113 12:31:50  -323.364350c -6.42  -5.57c
iter: 114 12:34:04  -323.364350c -6.76  -5.69c
Writing to output.gpw (mode='')

iter: 115 12:35:15  -323.364350c -6.74  -5.74c
iter: 116 12:36:16  -323.364350c -6.75  -5.82c
iter: 117 12:37:18  -323.364350c -6.82  -5.85c
iter: 118 12:38:51  -323.364350c -6.76  -5.89c
iter: 119 12:39:53  -323.364350c -6.87  -5.95c
Writing to output.gpw (mode='')

iter: 120 12:40:56  -323.364350c -6.97  -5.97c
iter: 121 12:42:00  -323.364350c -6.94  -5.99c
iter: 122 12:43:04  -323.364350c -7.06  -6.03c
iter: 123 12:44:07  -323.364350c -7.14  -6.11c
iter: 124 12:45:07  -323.364350c -7.19  -6.15c
Writing to output.gpw (mode='')

iter: 125 12:46:10  -323.364350c -7.24  -6.21c
iter: 126 12:47:22  -323.364350c -7.33  -6.40c
iter: 127 12:48:33  -323.364350c -7.36  -6.43c
iter: 128 12:49:45  -323.364350c -7.35  -6.53c
iter: 129 12:50:54  -323.364350c -7.40c -6.69c

Converged after 129 iterations.

Dipole moment: (-16.185543, -16.550938, 0.297622) |e|*Ang

Energy contributions relative to reference atoms: (reference = -13576.627914)

Kinetic:       +160.992659
Potential:     -155.963299
External:        +0.000000
XC:            -328.652290
Entropy (-ST):   -0.152520
Local:           +0.334840
--------------------------
Free energy:   -323.440610
Extrapolated:  -323.364350

Dipole-layer corrected work functions: 3.378368, 2.806237 eV

Showing only first 2 kpts
 Kpt  Band  Eigenvalues  Occupancy
  0    32     -3.34572    1.98749
  0    33     -3.25746    1.92907
  0    34     -2.92998    0.07491
  0    35     -2.83923    0.01259

  1    32     -3.12261    1.29410
  1    33     -3.08794    0.95645
  1    34     -3.04826    0.58600
  1    35     -3.03988    0.51903


Fermi level: -3.09230

No gap
Writing to output.gpw (mode='')


Forces in eV/Ang:
  0 Li    0.00435    0.00163   -0.27276
  1 Li   -0.00160   -0.00057   -0.27282
  2 Li   -0.00281   -0.00068   -0.27224
  3 Li   -0.00123   -0.00072   -0.27224
  4 Li    0.00031   -0.00182   -0.27351
  5 Li    0.00087    0.00326   -0.27203
  6 Li   -0.00131   -0.00075   -0.27096
  7 Li    0.00218    0.00218   -0.27266
  8 Li   -0.00087   -0.00265   -0.27133
  9 Li    0.00097    0.00255    0.26893
 10 Li    0.00329    0.00115    0.25918
 11 Li   -0.00427   -0.00425    0.25633
 12 Li   -0.00041   -0.00088    0.26527
 13 Li    0.00399    0.00073    0.25659
 14 Li   -0.00348    0.00066    0.26091
 15 Li   -0.00052   -0.00204    0.25554
 16 Li   -0.00535   -0.00204    0.26669
 17 Li    0.00596    0.00367    0.25972
 18 Li    0.00476    0.00248    0.02428
 19 Li    0.00287   -0.00058    0.04204
 20 Li   -0.00735   -0.00130    0.00365
 21 Li   -0.00357   -0.00686    0.04530
 22 Li    0.00337    0.00348    0.03149
 23 Li    0.00027   -0.00413    0.03775
 24 Li   -0.00321    0.00413    0.03861
 25 Li   -0.00108   -0.00259    0.03542
 26 Li    0.00426    0.00543    0.04464
 27 Li    0.00582    0.03192    0.08938
 28 Li    0.01036    0.00144   -0.02458
 29 Li   -0.01586   -0.01094   -0.02759
 30 Li   -0.00961   -0.00182    0.00832
 31 Li    0.00687    0.00542   -0.03210
 32 Li   -0.01332    0.00721   -0.01983
 33 Li    0.00128   -0.00356   -0.01852
 34 Li   -0.00535   -0.00315   -0.01617
 35 Li    0.00384    0.00341   -0.02190
 36 O    -0.11414   -0.03364   -0.16675
 37 C     0.01296    0.01614   -0.01828
 38 C    -0.00488   -0.00955    0.03692
 39 C    -0.02418   -0.08272    0.03806
 40 C     0.00074   -0.00903    0.00418
 41 H     0.02176    0.03654    0.01258
 42 H    -0.05101    0.00142   -0.01597
 43 H    -0.01398    0.02545    0.01941
 44 H    -0.00353    0.00607    0.01763
 45 H     0.00383   -0.02432   -0.02893
 46 H     0.02551   -0.02279    0.01974
 47 H     0.01176   -0.00834    0.00574
 48 H    -0.01446   -0.00605   -0.00054
 49 H     0.00118   -0.01684   -0.05167
 50 H     0.15262    0.08861   -0.05721

System changes: positions 

Initializing position-dependent things.

Density initialized from wave functions
       .-----------------------.  
      /|                       |  
     / |                       |  
    /  |                       |  
   /   |                       |  
  /    |                       |  
 *     |                       |  
 |     |                       |  
 |     |                  H    |  
 |   H |                H C    |  
 |     |                       |  
 |     |                 C     |  
 | HH  |               HH C    |  
 |     |                       |  
 |     |               LiC     |  
 | HH  |               H  O    |  
 |   Li|     Li      Li        |  
 |     |  Li      Li      Li   |  
 |     |   Li      Li      Li  |  
 |     |Li      Li      Li     |  
 Li    | Li                    |  
 |   LLi     LLi     LLi       |  
 |     |  Li      Li      Li   |  
 | Li  |   Li      Li          |  
 |     |Li      Li      Li     |  
 Li    | Li      Li            |  
 |    Li      Li      Li       |  
 |     |                       |  
 |     |                       |  
 |     |                       |  
 |     |                       |  
 |     |                       |  
 |     |                       |  
 |     .-----------------------.  
 |    /                       /   
 |   /                       /    
 |  /                       /     
 | /                       /      
 |/                       /       
 *-----------------------*        

Positions:
   0 Li     1.617037    1.617037   10.000000    ( 0.0000,  0.0000,  0.0000)
   1 Li     4.851111    1.617037   10.000000    ( 0.0000,  0.0000,  0.0000)
   2 Li     8.085185    1.617037   10.000000    ( 0.0000,  0.0000,  0.0000)
   3 Li     1.617037    4.851111   10.000000    ( 0.0000,  0.0000,  0.0000)
   4 Li     4.851111    4.851111   10.000000    ( 0.0000,  0.0000,  0.0000)
   5 Li     8.085185    4.851111   10.000000    ( 0.0000,  0.0000,  0.0000)
   6 Li     1.617037    8.085185   10.000000    ( 0.0000,  0.0000,  0.0000)
   7 Li     4.851111    8.085185   10.000000    ( 0.0000,  0.0000,  0.0000)
   8 Li     8.085185    8.085185   10.000000    ( 0.0000,  0.0000,  0.0000)
   9 Li     0.000000    0.000000   11.617037    ( 0.0000,  0.0000,  0.0000)
  10 Li     3.234074    0.000000   11.617037    ( 0.0000,  0.0000,  0.0000)
  11 Li     6.468148    0.000000   11.617037    ( 0.0000,  0.0000,  0.0000)
  12 Li     0.000000    3.234074   11.617037    ( 0.0000,  0.0000,  0.0000)
  13 Li     3.234074    3.234074   11.617037    ( 0.0000,  0.0000,  0.0000)
  14 Li     6.468148    3.234074   11.617037    ( 0.0000,  0.0000,  0.0000)
  15 Li     0.000000    6.468148   11.617037    ( 0.0000,  0.0000,  0.0000)
  16 Li     3.234074    6.468148   11.617037    ( 0.0000,  0.0000,  0.0000)
  17 Li     6.468148    6.468148   11.617037    ( 0.0000,  0.0000,  0.0000)
  18 Li     1.617106    1.617073   13.470075    ( 0.0000,  0.0000,  0.0000)
  19 Li     4.851152    1.617030   13.470330    ( 0.0000,  0.0000,  0.0000)
  20 Li     8.085079    1.617020   13.469780    ( 0.0000,  0.0000,  0.0000)
  21 Li     1.616987    4.851013   13.470377    ( 0.0000,  0.0000,  0.0000)
  22 Li     4.851159    4.851161   13.470180    ( 0.0000,  0.0000,  0.0000)
  23 Li     8.085187    4.851052   13.470269    ( 0.0000,  0.0000,  0.0000)
  24 Li     1.616992    8.085243   13.470279    ( 0.0000,  0.0000,  0.0000)
  25 Li     4.851096    8.085147   13.470235    ( 0.0000,  0.0000,  0.0000)
  26 Li     8.085245    8.085262   13.470366    ( 0.0000,  0.0000,  0.0000)
  27 Li     0.000083    0.000456   15.447216    ( 0.0000,  0.0000,  0.0000)
  28 Li     3.234222    0.000021   15.445588    ( 0.0000,  0.0000,  0.0000)
  29 Li     6.467922   -0.000156   15.445545    ( 0.0000,  0.0000,  0.0000)
  30 Li    -0.000137    3.234048   15.446058    ( 0.0000,  0.0000,  0.0000)
  31 Li     3.234175    3.234154   15.445479    ( 0.0000,  0.0000,  0.0000)
  32 Li     6.467955    3.234179   15.445655    ( 0.0000,  0.0000,  0.0000)
  33 Li     0.000018    6.468097   15.445674    ( 0.0000,  0.0000,  0.0000)
  34 Li     3.234000    6.468101   15.445707    ( 0.0000,  0.0000,  0.0000)
  35 Li     6.468200    6.468194   15.445625    ( 0.0000,  0.0000,  0.0000)
  36 O     -0.001631    1.616556   18.443557    ( 0.0000,  0.0000,  0.0000)
  37 C     -0.035641    1.629608   20.912738    ( 0.0000,  0.0000,  0.0000)
  38 C     -0.022485    0.774189   22.183087    ( 0.0000,  0.0000,  0.0000)
  39 C     -0.000553    0.805376   19.630966    ( 0.0000,  0.0000,  0.0000)
  40 C     -0.006776    1.625182   23.455330    ( 0.0000,  0.0000,  0.0000)
  41 H     -0.929008    2.263069   20.898380    ( 0.0000,  0.0000,  0.0000)
  42 H      0.834802    2.299586   20.926087    ( 0.0000,  0.0000,  0.0000)
  43 H      0.853595    0.115614   22.169876    ( 0.0000,  0.0000,  0.0000)
  44 H     -0.900436    0.118249   22.187715    ( 0.0000,  0.0000,  0.0000)
  45 H      0.873986    0.140644   19.636563    ( 0.0000,  0.0000,  0.0000)
  46 H     -0.894461    0.182918   19.546189    ( 0.0000,  0.0000,  0.0000)
  47 H      0.877425    2.267673   23.482939    ( 0.0000,  0.0000,  0.0000)
  48 H     -0.884444    2.275239   23.500580    ( 0.0000,  0.0000,  0.0000)
  49 H     -0.000625    1.011346   24.357707    ( 0.0000,  0.0000,  0.0000)
  50 H      0.764360    2.207402   18.494432    ( 0.0000,  0.0000,  0.0000)

Unit cell:
           periodic     x           y           z      points  spacing
  1. axis:    yes    9.702222    0.000000    0.000000    60     0.1617
  2. axis:    yes    0.000000    9.702222    0.000000    60     0.1617
  3. axis:    no     0.000000    0.000000   26.851111   168     0.1598

  Lengths:   9.702222   9.702222  26.851111
  Angles:   90.000000  90.000000  90.000000

Effective grid spacing dv^(1/3) = 0.1611

     iter     time        total  log10-change:
                         energy  eigst   dens
iter:   1 12:53:01  -323.366264  -2.99
iter:   2 12:54:11  -323.366063  -3.77  -2.90
iter:   3 12:55:51  -323.365987c -4.32  -3.13
iter:   4 12:57:02  -323.365933c -2.96  -3.16
Writing to output.gpw (mode='')

iter:   5 12:58:10  -323.365611c -3.46  -3.01
iter:   6 12:59:25  -323.365647c -4.64  -3.34
iter:   7 13:00:24  -323.365585c -3.81  -3.27
iter:   8 13:01:13  -323.365574c -4.40  -3.80
iter:   9 13:02:04  -323.365575c -4.86  -3.83
Writing to output.gpw (mode='')

iter:  10 13:02:50  -323.365576c -5.58  -3.86
iter:  11 13:03:40  -323.365584c -5.20  -4.04c
iter:  12 13:04:33  -323.365578c -5.71  -4.03c
iter:  13 13:05:20  -323.365579c -5.81  -4.18c
iter:  14 13:06:11  -323.365582c -5.98  -4.27c
Writing to output.gpw (mode='')

iter:  15 13:08:17  -323.365577c -5.75  -4.13c
iter:  16 13:09:39  -323.365577c -6.13  -4.54c
iter:  17 13:12:37  -323.365578c -6.94  -4.56c
iter:  18 13:15:14  -323.365578c -6.69  -4.77c
iter:  19 13:17:02  -323.365578c -7.31  -4.97c
Writing to output.gpw (mode='')

iter:  20 13:19:02  -323.365578c -7.22  -4.99c
iter:  21 13:21:50  -323.365578c -7.48c -4.99c

Converged after 21 iterations.

Dipole moment: (-16.026482, -16.565123, 0.299325) |e|*Ang

Energy contributions relative to reference atoms: (reference = -13576.627914)

Kinetic:       +160.762331
Potential:     -155.797668
External:        +0.000000
XC:            -328.588703
Entropy (-ST):   -0.152528
Local:           +0.334726
--------------------------
Free energy:   -323.441842
Extrapolated:  -323.365578

Dipole-layer corrected work functions: 3.378308, 2.802903 eV

Showing only first 2 kpts
 Kpt  Band  Eigenvalues  Occupancy
  0    32     -3.34388    1.98746
  0    33     -3.25574    1.92904
  0    34     -2.92823    0.07483
  0    35     -2.83737    0.01255

  1    32     -3.12094    1.29434
  1    33     -3.08618    0.95578
  1    34     -3.04670    0.58714
  1    35     -3.03822    0.51934


Fermi level: -3.09061

No gap
Writing to output.gpw (mode='')


Forces in eV/Ang:
  0 Li    0.00439    0.00165   -0.27279
  1 Li   -0.00160   -0.00056   -0.27285
  2 Li   -0.00286   -0.00067   -0.27226
  3 Li   -0.00119   -0.00072   -0.27230
  4 Li    0.00031   -0.00181   -0.27355
  5 Li    0.00083    0.00327   -0.27208
  6 Li   -0.00127   -0.00077   -0.27098
  7 Li    0.00218    0.00215   -0.27271
  8 Li   -0.00089   -0.00266   -0.27134
  9 Li    0.00102    0.00249    0.26918
 10 Li    0.00339    0.00114    0.25960
 11 Li   -0.00441   -0.00440    0.25667
 12 Li   -0.00037   -0.00078    0.26560
 13 Li    0.00407    0.00077    0.25702
 14 Li   -0.00360    0.00073    0.26123
 15 Li   -0.00053   -0.00209    0.25599
 16 Li   -0.00546   -0.00206    0.26720
 17 Li    0.00607    0.00375    0.26020
 18 Li    0.00445    0.00234    0.02376
 19 Li    0.00280   -0.00055    0.04083
 20 Li   -0.00701   -0.00139    0.00363
 21 Li   -0.00360   -0.00681    0.04419
 22 Li    0.00330    0.00348    0.03052
 23 Li    0.00031   -0.00411    0.03677
 24 Li   -0.00341    0.00432    0.03796
 25 Li   -0.00111   -0.00260    0.03434
 26 Li    0.00449    0.00560    0.04383
 27 Li    0.00568    0.03196    0.08970
 28 Li    0.01033    0.00142   -0.02398
 29 Li   -0.01568   -0.01074   -0.02692
 30 Li   -0.00958   -0.00182    0.00897
 31 Li    0.00679    0.00535   -0.03141
 32 Li   -0.01320    0.00705   -0.01922
 33 Li    0.00125   -0.00343   -0.01793
 34 Li   -0.00519   -0.00309   -0.01557
 35 Li    0.00373    0.00333   -0.02119
 36 O     0.04156    0.04923   -0.09187
 37 C    -0.01133   -0.00922   -0.00810
 38 C    -0.00758    0.00884    0.01399
 39 C    -0.00656   -0.02244   -0.01102
 40 C    -0.00168    0.00785   -0.00503
 41 H     0.02156    0.03241    0.00994
 42 H    -0.02847    0.01198   -0.01660
 43 H    -0.00547    0.01667    0.02039
 44 H    -0.00612    0.00353    0.01769
 45 H     0.00441   -0.02436   -0.02963
 46 H     0.00125   -0.04099    0.02092
 47 H     0.00786   -0.01044    0.00597
 48 H    -0.00878   -0.00911    0.00037
 49 H     0.00103   -0.02487   -0.03302
 50 H    -0.00600   -0.03016   -0.07100

System changes: positions 

Initializing position-dependent things.

Density initialized from wave functions
       .-----------------------.  
      /|                       |  
     / |                       |  
    /  |                       |  
   /   |                       |  
  /    |                       |  
 *     |                       |  
 |     |                       |  
 |     |                  H    |  
 |   H |                H C    |  
 |     |                       |  
 |     |                 C     |  
 | HH  |               HH C    |  
 |     |                       |  
 |     |               LiC     |  
 | HH  |               H  O    |  
 |   Li|     Li      Li        |  
 |     |  Li      Li      Li   |  
 |     |   Li      Li      Li  |  
 |     |Li      Li      Li     |  
 Li    | Li                    |  
 |   LLi     LLi     LLi       |  
 |     |  Li      Li      Li   |  
 | Li  |   Li      Li          |  
 |     |Li      Li      Li     |  
 Li    | Li      Li            |  
 |    Li      Li      Li       |  
 |     |                       |  
 |     |                       |  
 |     |                       |  
 |     |                       |  
 |     |                       |  
 |     |                       |  
 |     .-----------------------.  
 |    /                       /   
 |   /                       /    
 |  /                       /     
 | /                       /      
 |/                       /       
 *-----------------------*        

Positions:
   0 Li     1.617037    1.617037   10.000000    ( 0.0000,  0.0000,  0.0000)
   1 Li     4.851111    1.617037   10.000000    ( 0.0000,  0.0000,  0.0000)
   2 Li     8.085185    1.617037   10.000000    ( 0.0000,  0.0000,  0.0000)
   3 Li     1.617037    4.851111   10.000000    ( 0.0000,  0.0000,  0.0000)
   4 Li     4.851111    4.851111   10.000000    ( 0.0000,  0.0000,  0.0000)
   5 Li     8.085185    4.851111   10.000000    ( 0.0000,  0.0000,  0.0000)
   6 Li     1.617037    8.085185   10.000000    ( 0.0000,  0.0000,  0.0000)
   7 Li     4.851111    8.085185   10.000000    ( 0.0000,  0.0000,  0.0000)
   8 Li     8.085185    8.085185   10.000000    ( 0.0000,  0.0000,  0.0000)
   9 Li     0.000000    0.000000   11.617037    ( 0.0000,  0.0000,  0.0000)
  10 Li     3.234074    0.000000   11.617037    ( 0.0000,  0.0000,  0.0000)
  11 Li     6.468148    0.000000   11.617037    ( 0.0000,  0.0000,  0.0000)
  12 Li     0.000000    3.234074   11.617037    ( 0.0000,  0.0000,  0.0000)
  13 Li     3.234074    3.234074   11.617037    ( 0.0000,  0.0000,  0.0000)
  14 Li     6.468148    3.234074   11.617037    ( 0.0000,  0.0000,  0.0000)
  15 Li     0.000000    6.468148   11.617037    ( 0.0000,  0.0000,  0.0000)
  16 Li     3.234074    6.468148   11.617037    ( 0.0000,  0.0000,  0.0000)
  17 Li     6.468148    6.468148   11.617037    ( 0.0000,  0.0000,  0.0000)
  18 Li     1.617258    1.617153   13.470873    ( 0.0000,  0.0000,  0.0000)
  19 Li     4.851246    1.617012   13.471705    ( 0.0000,  0.0000,  0.0000)
  20 Li     8.084841    1.616974   13.469901    ( 0.0000,  0.0000,  0.0000)
  21 Li     1.616868    4.850785   13.471862    ( 0.0000,  0.0000,  0.0000)
  22 Li     4.851270    4.851277   13.471208    ( 0.0000,  0.0000,  0.0000)
  23 Li     8.085197    4.850915   13.471505    ( 0.0000,  0.0000,  0.0000)
  24 Li     1.616881    8.085385   13.471552    ( 0.0000,  0.0000,  0.0000)
  25 Li     4.851059    8.085060   13.471392    ( 0.0000,  0.0000,  0.0000)
  26 Li     8.085392    8.085447   13.471836    ( 0.0000,  0.0000,  0.0000)
  27 Li     0.000274    0.001522   15.450205    ( 0.0000,  0.0000,  0.0000)
  28 Li     3.234566    0.000068   15.444781    ( 0.0000,  0.0000,  0.0000)
  29 Li     6.467397   -0.000517   15.444640    ( 0.0000,  0.0000,  0.0000)
  30 Li    -0.000457    3.233987   15.446350    ( 0.0000,  0.0000,  0.0000)
  31 Li     3.234402    3.234333   15.444425    ( 0.0000,  0.0000,  0.0000)
  32 Li     6.467514    3.234416   15.445007    ( 0.0000,  0.0000,  0.0000)
  33 Li     0.000060    6.467981   15.445070    ( 0.0000,  0.0000,  0.0000)
  34 Li     3.233825    6.467997   15.445181    ( 0.0000,  0.0000,  0.0000)
  35 Li     6.468326    6.468306   15.444911    ( 0.0000,  0.0000,  0.0000)
  36 O     -0.001904    1.617315   18.439695    ( 0.0000,  0.0000,  0.0000)
  37 C     -0.035760    1.629571   20.912359    ( 0.0000,  0.0000,  0.0000)
  38 C     -0.022709    0.774288   22.183798    ( 0.0000,  0.0000,  0.0000)
  39 C     -0.000959    0.803985   19.631122    ( 0.0000,  0.0000,  0.0000)
  40 C     -0.006806    1.625264   23.455260    ( 0.0000,  0.0000,  0.0000)
  41 H     -0.928287    2.264194   20.898739    ( 0.0000,  0.0000,  0.0000)
  42 H      0.833612    2.299873   20.925540    ( 0.0000,  0.0000,  0.0000)
  43 H      0.853322    0.116264   22.170546    ( 0.0000,  0.0000,  0.0000)
  44 H     -0.900613    0.118394   22.188304    ( 0.0000,  0.0000,  0.0000)
  45 H      0.874127    0.139832   19.635582    ( 0.0000,  0.0000,  0.0000)
  46 H     -0.894161    0.181744   19.546874    ( 0.0000,  0.0000,  0.0000)
  47 H      0.877729    2.267347   23.483135    ( 0.0000,  0.0000,  0.0000)
  48 H     -0.884798    2.274967   23.500582    ( 0.0000,  0.0000,  0.0000)
  49 H     -0.000589    1.010601   24.356406    ( 0.0000,  0.0000,  0.0000)
  50 H      0.765850    2.207662   18.492211    ( 0.0000,  0.0000,  0.0000)

Unit cell:
           periodic     x           y           z      points  spacing
  1. axis:    yes    9.702222    0.000000    0.000000    60     0.1617
  2. axis:    yes    0.000000    9.702222    0.000000    60     0.1617
  3. axis:    no     0.000000    0.000000   26.851111   168     0.1598

  Lengths:   9.702222   9.702222  26.851111
  Angles:   90.000000  90.000000  90.000000

Effective grid spacing dv^(1/3) = 0.1611

     iter     time        total  log10-change:
                         energy  eigst   dens
iter:   1 13:23:58  -323.370136  -2.64
iter:   2 13:27:15  -323.367827  -3.16  -2.35
iter:   3 13:30:27  -323.367346c -4.16  -2.67
iter:   4 13:33:04  -323.367087c -3.00  -3.05
Writing to output.gpw (mode='')

iter:   5 13:36:43  -323.366960c -3.98  -3.06
iter:   6 13:40:22  -323.366953c -4.63  -3.38
iter:   7 13:43:19  -323.367009c -3.87  -3.47
iter:   8 13:47:40  -323.366935c -4.32  -3.35
iter:   9 13:53:36  -323.366924c -4.04  -3.58
Writing to output.gpw (mode='')

iter:  10 13:59:43  -323.366934c -4.67  -4.00
iter:  11 14:05:24  -323.366931c -5.95  -3.78
iter:  12 14:11:32  -323.366925c -5.06  -3.86
iter:  13 14:18:41  -323.366927c -5.94  -4.24c
iter:  14 14:24:43  -323.366926c -6.16  -4.32c
Writing to output.gpw (mode='')

iter:  15 14:32:18  -323.366927c -5.94  -4.42c
iter:  16 14:40:46  -323.366926c -6.62  -4.50c
iter:  17 14:48:17  -323.366927c -6.36  -4.53c
iter:  18 14:56:34  -323.366927c -6.00  -4.52c
iter:  19 15:03:51  -323.366927c -6.44  -4.53c
Writing to output.gpw (mode='')

iter:  20 15:11:58  -323.366927c -6.88  -4.64c
iter:  21 15:20:09  -323.366927c -6.71  -4.96c
iter:  22 15:27:29  -323.366927c -7.74c -5.04c

Converged after 22 iterations.

Dipole moment: (-15.941116, -16.589520, 0.302607) |e|*Ang

Energy contributions relative to reference atoms: (reference = -13576.627914)

Kinetic:       +160.567775
Potential:     -155.656223
External:        +0.000000
XC:            -328.536345
Entropy (-ST):   -0.152549
Local:           +0.334140
--------------------------
Free energy:   -323.443201
Extrapolated:  -323.366927

Dipole-layer corrected work functions: 3.378236, 2.796522 eV

Showing only first 2 kpts
 Kpt  Band  Eigenvalues  Occupancy
  0    32     -3.34029    1.98737
  0    33     -3.25246    1.92897
  0    34     -2.92490    0.07468
  0    35     -2.83374    0.01245

  1    32     -3.11772    1.29443
  1    33     -3.08284    0.95461
  1    34     -3.04382    0.58999
  1    35     -3.03511    0.52025


Fermi level: -3.08738

No gap
Writing to output.gpw (mode='')


Forces in eV/Ang:
  0 Li    0.00440    0.00167   -0.27281
  1 Li   -0.00160   -0.00055   -0.27293
  2 Li   -0.00287   -0.00067   -0.27226
  3 Li   -0.00120   -0.00075   -0.27240
  4 Li    0.00032   -0.00181   -0.27366
  5 Li    0.00082    0.00325   -0.27217
  6 Li   -0.00128   -0.00075   -0.27100
  7 Li    0.00219    0.00212   -0.27287
  8 Li   -0.00088   -0.00265   -0.27135
  9 Li    0.00113    0.00233    0.26970
 10 Li    0.00355    0.00111    0.26062
 11 Li   -0.00470   -0.00469    0.25752
 12 Li   -0.00027   -0.00059    0.26632
 13 Li    0.00421    0.00083    0.25809
 14 Li   -0.00382    0.00085    0.26206
 15 Li   -0.00052   -0.00217    0.25713
 16 Li   -0.00578   -0.00209    0.26849
 17 Li    0.00639    0.00394    0.26139
 18 Li    0.00370    0.00196    0.02263
 19 Li    0.00273   -0.00048    0.03791
 20 Li   -0.00631   -0.00166    0.00370
 21 Li   -0.00368   -0.00661    0.04151
 22 Li    0.00316    0.00348    0.02825
 23 Li    0.00040   -0.00403    0.03446
 24 Li   -0.00389    0.00473    0.03641
 25 Li   -0.00117   -0.00263    0.03187
 26 Li    0.00501    0.00599    0.04192
 27 Li    0.00546    0.03187    0.08950
 28 Li    0.01005    0.00145   -0.02256
 29 Li   -0.01512   -0.01022   -0.02555
 30 Li   -0.00953   -0.00181    0.01014
 31 Li    0.00636    0.00506   -0.02965
 32 Li   -0.01276    0.00663   -0.01798
 33 Li    0.00116   -0.00312   -0.01653
 34 Li   -0.00490   -0.00292   -0.01429
 35 Li    0.00356    0.00317   -0.01979
 36 O     0.07572    0.01867    0.00983
 37 C    -0.02323   -0.02304   -0.00581
 38 C    -0.01059    0.01989   -0.01752
 39 C     0.01814    0.04996   -0.07546
 40 C    -0.00386    0.01787   -0.00951
 41 H     0.01552    0.02526    0.00492
 42 H    -0.00671    0.01613   -0.01617
 43 H     0.00197    0.00779    0.02013
 44 H    -0.00690    0.00233    0.01799
 45 H    -0.00272   -0.01566   -0.03088
 46 H    -0.01572   -0.04540    0.00990
 47 H     0.00471   -0.00937    0.00594
 48 H    -0.00489   -0.00785    0.00258
 49 H     0.00030   -0.03024   -0.01289
 50 H    -0.04967   -0.06514   -0.07251

System changes: positions 

Initializing position-dependent things.

Density initialized from wave functions
       .-----------------------.  
      /|                       |  
     / |                       |  
    /  |                       |  
   /   |                       |  
  /    |                       |  
 *     |                       |  
 |     |                       |  
 |     |                  H    |  
 |   H |                H C    |  
 |     |                       |  
 |     |                 C     |  
 | HH  |               HH C    |  
 |     |                       |  
 |     |               LiC     |  
 | HH  |               H  O    |  
 |   Li|     Li      Li        |  
 |     |  Li      Li      Li   |  
 |     |   Li      Li      Li  |  
 |     |Li      Li      Li     |  
 Li    | Li                    |  
 |   LLi     LLi     LLi       |  
 |     |  Li      Li      Li   |  
 | Li  |   Li      Li          |  
 |     |Li      Li      Li     |  
 Li    | Li      Li            |  
 |    Li      Li      Li       |  
 |     |                       |  
 |     |                       |  
 |     |                       |  
 |     |                       |  
 |     |                       |  
 |     |                       |  
 |     .-----------------------.  
 |    /                       /   
 |   /                       /    
 |  /                       /     
 | /                       /      
 |/                       /       
 *-----------------------*        

Positions:
   0 Li     1.617037    1.617037   10.000000    ( 0.0000,  0.0000,  0.0000)
   1 Li     4.851111    1.617037   10.000000    ( 0.0000,  0.0000,  0.0000)
   2 Li     8.085185    1.617037   10.000000    ( 0.0000,  0.0000,  0.0000)
   3 Li     1.617037    4.851111   10.000000    ( 0.0000,  0.0000,  0.0000)
   4 Li     4.851111    4.851111   10.000000    ( 0.0000,  0.0000,  0.0000)
   5 Li     8.085185    4.851111   10.000000    ( 0.0000,  0.0000,  0.0000)
   6 Li     1.617037    8.085185   10.000000    ( 0.0000,  0.0000,  0.0000)
   7 Li     4.851111    8.085185   10.000000    ( 0.0000,  0.0000,  0.0000)
   8 Li     8.085185    8.085185   10.000000    ( 0.0000,  0.0000,  0.0000)
   9 Li     0.000000    0.000000   11.617037    ( 0.0000,  0.0000,  0.0000)
  10 Li     3.234074    0.000000   11.617037    ( 0.0000,  0.0000,  0.0000)
  11 Li     6.468148    0.000000   11.617037    ( 0.0000,  0.0000,  0.0000)
  12 Li     0.000000    3.234074   11.617037    ( 0.0000,  0.0000,  0.0000)
  13 Li     3.234074    3.234074   11.617037    ( 0.0000,  0.0000,  0.0000)
  14 Li     6.468148    3.234074   11.617037    ( 0.0000,  0.0000,  0.0000)
  15 Li     0.000000    6.468148   11.617037    ( 0.0000,  0.0000,  0.0000)
  16 Li     3.234074    6.468148   11.617037    ( 0.0000,  0.0000,  0.0000)
  17 Li     6.468148    6.468148   11.617037    ( 0.0000,  0.0000,  0.0000)
  18 Li     1.617616    1.617341   13.472850    ( 0.0000,  0.0000,  0.0000)
  19 Li     4.851481    1.616967   13.475079    ( 0.0000,  0.0000,  0.0000)
  20 Li     8.084265    1.616851   13.470210    ( 0.0000,  0.0000,  0.0000)
  21 Li     1.616563    4.850217   13.475525    ( 0.0000,  0.0000,  0.0000)
  22 Li     4.851545    4.851570   13.473730    ( 0.0000,  0.0000,  0.0000)
  23 Li     8.085225    4.850571   13.474552    ( 0.0000,  0.0000,  0.0000)
  24 Li     1.616584    8.085757   13.474715    ( 0.0000,  0.0000,  0.0000)
  25 Li     4.850964    8.084840   13.474232    ( 0.0000,  0.0000,  0.0000)
  26 Li     8.085781    8.085926   13.475485    ( 0.0000,  0.0000,  0.0000)
  27 Li     0.000749    0.004208   15.457740    ( 0.0000,  0.0000,  0.0000)
  28 Li     3.235428    0.000190   15.442793    ( 0.0000,  0.0000,  0.0000)
  29 Li     6.466090   -0.001409   15.442400    ( 0.0000,  0.0000,  0.0000)
  30 Li    -0.001263    3.233835   15.447126    ( 0.0000,  0.0000,  0.0000)
  31 Li     3.234961    3.234776   15.441820    ( 0.0000,  0.0000,  0.0000)
  32 Li     6.466414    3.235000   15.443413    ( 0.0000,  0.0000,  0.0000)
  33 Li     0.000164    6.467699   15.443590    ( 0.0000,  0.0000,  0.0000)
  34 Li     3.233394    6.467741   15.443896    ( 0.0000,  0.0000,  0.0000)
  35 Li     6.468637    6.468583   15.443153    ( 0.0000,  0.0000,  0.0000)
  36 O     -0.001669    1.618113   18.433206    ( 0.0000,  0.0000,  0.0000)
  37 C     -0.036421    1.629055   20.911466    ( 0.0000,  0.0000,  0.0000)
  38 C     -0.023371    0.774878   22.184583    ( 0.0000,  0.0000,  0.0000)
  39 C     -0.001193    0.802785   19.629452    ( 0.0000,  0.0000,  0.0000)
  40 C     -0.006951    1.625780   23.454949    ( 0.0000,  0.0000,  0.0000)
  41 H     -0.926666    2.266802   20.899485    ( 0.0000,  0.0000,  0.0000)
  42 H      0.831298    2.300720   20.924175    ( 0.0000,  0.0000,  0.0000)
  43 H      0.852867    0.117621   22.172226    ( 0.0000,  0.0000,  0.0000)
  44 H     -0.901080    0.118723   22.189802    ( 0.0000,  0.0000,  0.0000)
  45 H      0.874247    0.138070   19.633067    ( 0.0000,  0.0000,  0.0000)
  46 H     -0.893932    0.178662   19.548238    ( 0.0000,  0.0000,  0.0000)
  47 H      0.878396    2.266563   23.483630    ( 0.0000,  0.0000,  0.0000)
  48 H     -0.885569    2.274329   23.500661    ( 0.0000,  0.0000,  0.0000)
  49 H     -0.000522    1.008557   24.353765    ( 0.0000,  0.0000,  0.0000)
  50 H      0.768377    2.207319   18.486574    ( 0.0000,  0.0000,  0.0000)

Unit cell:
           periodic     x           y           z      points  spacing
  1. axis:    yes    9.702222    0.000000    0.000000    60     0.1617
  2. axis:    yes    0.000000    9.702222    0.000000    60     0.1617
  3. axis:    no     0.000000    0.000000   26.851111   168     0.1598

  Lengths:   9.702222   9.702222  26.851111
  Angles:   90.000000  90.000000  90.000000

Effective grid spacing dv^(1/3) = 0.1611

     iter     time        total  log10-change:
                         energy  eigst   dens
iter:   1 15:36:05  -323.387041  -2.00
iter:   2 15:44:58  -323.373429  -2.48  -1.96
iter:   3 15:53:37  -323.370147c -3.70  -2.30
iter:   4 16:00:22  -323.369334c -3.11  -2.75
Writing to output.gpw (mode='')

iter:   5 16:08:56  -323.369255c -3.66  -3.01
iter:   6 16:16:59  -323.369196c -3.28  -3.19
iter:   7 16:23:42  -323.369190c -3.97  -3.30
iter:   8 16:29:32  -323.369210c -3.86  -3.30
iter:   9 16:37:02  -323.369167c -4.36  -3.43
Writing to output.gpw (mode='')

iter:  10 16:44:18  -323.369170c -4.18  -3.72
iter:  11 16:52:26  -323.369166c -5.15  -3.74
iter:  12 16:57:53  -323.369176c -4.81  -3.90
iter:  13 17:04:02  -323.369162c -4.97  -3.78
iter:  14 17:11:23  -323.369163c -4.91  -4.05c
Writing to output.gpw (mode='')

iter:  15 17:19:15  -323.369166c -5.60  -4.07c
iter:  16 17:27:54  -323.369166c -5.82  -4.12c
iter:  17 17:35:52  -323.369164c -5.77  -4.27c
iter:  18 17:45:14  -323.369165c -6.65  -4.46c
iter:  19 17:53:53  -323.369163c -6.51  -4.58c
Writing to output.gpw (mode='')

iter:  20 18:01:57  -323.369164c -6.60  -4.67c
iter:  21 18:10:30  -323.369164c -6.73  -4.77c
iter:  22 18:18:02  -323.369164c -7.30  -4.78c
iter:  23 18:24:36  -323.369164c -6.98  -4.85c
iter:  24 18:30:55  -323.369164c -7.18  -4.92c
Writing to output.gpw (mode='')

iter:  25 18:38:30  -323.369164c -7.31  -5.03c
iter:  26 18:44:53  -323.369164c -7.81c -5.14c

Converged after 26 iterations.

Dipole moment: (-15.824663, -16.634933, 0.306463) |e|*Ang

Energy contributions relative to reference atoms: (reference = -13576.627914)

Kinetic:       +160.246619
Potential:     -155.419467
External:        +0.000000
XC:            -328.454220
Entropy (-ST):   -0.152605
Local:           +0.334206
--------------------------
Free energy:   -323.445466
Extrapolated:  -323.369164

Dipole-layer corrected work functions: 3.378118, 2.788991 eV

Showing only first 2 kpts
 Kpt  Band  Eigenvalues  Occupancy
  0    32     -3.33556    1.98714
  0    33     -3.24851    1.92880
  0    34     -2.92084    0.07434
  0    35     -2.82892    0.01221

  1    32     -3.11390    1.29444
  1    33     -3.07872    0.95167
  1    34     -3.04084    0.59709
  1    35     -3.03160    0.52264


Fermi level: -3.08355

No gap
Writing to output.gpw (mode='')


Forces in eV/Ang:
  0 Li    0.00448    0.00171   -0.27282
  1 Li   -0.00161   -0.00054   -0.27318
  2 Li   -0.00294   -0.00066   -0.27225
  3 Li   -0.00112   -0.00079   -0.27269
  4 Li    0.00035   -0.00174   -0.27393
  5 Li    0.00072    0.00325   -0.27242
  6 Li   -0.00121   -0.00074   -0.27111
  7 Li    0.00219    0.00197   -0.27328
  8 Li   -0.00092   -0.00267   -0.27143
  9 Li    0.00141    0.00197    0.27100
 10 Li    0.00397    0.00102    0.26313
 11 Li   -0.00540   -0.00546    0.25963
 12 Li   -0.00001   -0.00012    0.26812
 13 Li    0.00459    0.00103    0.26075
 14 Li   -0.00439    0.00121    0.26409
 15 Li   -0.00051   -0.00238    0.26004
 16 Li   -0.00654   -0.00220    0.27163
 17 Li    0.00712    0.00438    0.26428
 18 Li    0.00176    0.00107    0.02025
 19 Li    0.00250   -0.00031    0.03067
 20 Li   -0.00445   -0.00228    0.00420
 21 Li   -0.00389   -0.00614    0.03500
 22 Li    0.00279    0.00346    0.02261
 23 Li    0.00065   -0.00383    0.02886
 24 Li   -0.00507    0.00576    0.03264
 25 Li   -0.00132   -0.00268    0.02571
 26 Li    0.00630    0.00695    0.03724
 27 Li    0.00483    0.03117    0.08785
 28 Li    0.00931    0.00157   -0.01905
 29 Li   -0.01363   -0.00885   -0.02199
 30 Li   -0.00941   -0.00131    0.01152
 31 Li    0.00527    0.00430   -0.02543
 32 Li   -0.01163    0.00556   -0.01493
 33 Li    0.00093   -0.00235   -0.01299
 34 Li   -0.00415   -0.00252   -0.01106
 35 Li    0.00313    0.00273   -0.01618
 36 O     0.10327   -0.02786    0.11130
 37 C    -0.01718   -0.01411   -0.01921
 38 C    -0.00835    0.02061   -0.05970
 39 C     0.02262    0.09388   -0.11790
 40 C    -0.00573    0.01488   -0.01019
 41 H    -0.00061    0.00911   -0.00653
 42 H     0.02063    0.01146   -0.01185
 43 H     0.00698   -0.00273    0.01396
 44 H    -0.00574    0.00247    0.01583
 45 H    -0.01908    0.00979   -0.03317
 46 H    -0.00654   -0.01795   -0.01688
 47 H     0.00052   -0.00309    0.00548
 48 H    -0.00207    0.00103    0.00801
 49 H    -0.00184   -0.02990    0.01080
 50 H    -0.09065   -0.10305   -0.07121

System changes: positions 

Initializing position-dependent things.

Density initialized from wave functions
       .-----------------------.  
      /|                       |  
     / |                       |  
    /  |                       |  
   /   |                       |  
  /    |                       |  
 *     |                       |  
 |     |                       |  
 |     |                  H    |  
 |   H |                H C    |  
 |     |                       |  
 |     |                 C     |  
 | HH  |               HH C    |  
 |     |                       |  
 |     |               LiC     |  
 | HH  |               H  O    |  
 |   Li|     Li      Li        |  
 |     |  Li      Li      Li   |  
 |     |   Li      Li      Li  |  
 |     |Li      Li      Li     |  
 Li    | Li                    |  
 |   LLi     LLi     LLi       |  
 |     |  Li      Li      Li   |  
 | Li  |   Li      Li          |  
 |     |Li      Li      Li     |  
 Li    | Li      Li            |  
 |    Li      Li      Li       |  
 |     |                       |  
 |     |                       |  
 |     |                       |  
 |     |                       |  
 |     |                       |  
 |     |                       |  
 |     .-----------------------.  
 |    /                       /   
 |   /                       /    
 |  /                       /     
 | /                       /      
 |/                       /       
 *-----------------------*        

Positions:
   0 Li     1.617037    1.617037   10.000000    ( 0.0000,  0.0000,  0.0000)
   1 Li     4.851111    1.617037   10.000000    ( 0.0000,  0.0000,  0.0000)
   2 Li     8.085185    1.617037   10.000000    ( 0.0000,  0.0000,  0.0000)
   3 Li     1.617037    4.851111   10.000000    ( 0.0000,  0.0000,  0.0000)
   4 Li     4.851111    4.851111   10.000000    ( 0.0000,  0.0000,  0.0000)
   5 Li     8.085185    4.851111   10.000000    ( 0.0000,  0.0000,  0.0000)
   6 Li     1.617037    8.085185   10.000000    ( 0.0000,  0.0000,  0.0000)
   7 Li     4.851111    8.085185   10.000000    ( 0.0000,  0.0000,  0.0000)
   8 Li     8.085185    8.085185   10.000000    ( 0.0000,  0.0000,  0.0000)
   9 Li     0.000000    0.000000   11.617037    ( 0.0000,  0.0000,  0.0000)
  10 Li     3.234074    0.000000   11.617037    ( 0.0000,  0.0000,  0.0000)
  11 Li     6.468148    0.000000   11.617037    ( 0.0000,  0.0000,  0.0000)
  12 Li     0.000000    3.234074   11.617037    ( 0.0000,  0.0000,  0.0000)
  13 Li     3.234074    3.234074   11.617037    ( 0.0000,  0.0000,  0.0000)
  14 Li     6.468148    3.234074   11.617037    ( 0.0000,  0.0000,  0.0000)
  15 Li     0.000000    6.468148   11.617037    ( 0.0000,  0.0000,  0.0000)
  16 Li     3.234074    6.468148   11.617037    ( 0.0000,  0.0000,  0.0000)
  17 Li     6.468148    6.468148   11.617037    ( 0.0000,  0.0000,  0.0000)
  18 Li     1.618170    1.617635   13.476156    ( 0.0000,  0.0000,  0.0000)
  19 Li     4.851876    1.616896   13.480624    ( 0.0000,  0.0000,  0.0000)
  20 Li     8.083336    1.616621   13.470751    ( 0.0000,  0.0000,  0.0000)
  21 Li     1.616036    4.849261   13.481584    ( 0.0000,  0.0000,  0.0000)
  22 Li     4.852004    4.852070   13.477866    ( 0.0000,  0.0000,  0.0000)
  23 Li     8.085281    4.849990   13.479586    ( 0.0000,  0.0000,  0.0000)
  24 Li     1.616040    8.086423   13.480003    ( 0.0000,  0.0000,  0.0000)
  25 Li     4.850798    8.084464   13.478895    ( 0.0000,  0.0000,  0.0000)
  26 Li     8.086484    8.086774   13.481577    ( 0.0000,  0.0000,  0.0000)
  27 Li     0.001541    0.008776   15.470564    ( 0.0000,  0.0000,  0.0000)
  28 Li     3.236876    0.000400   15.439502    ( 0.0000,  0.0000,  0.0000)
  29 Li     6.463903   -0.002892   15.438682    ( 0.0000,  0.0000,  0.0000)
  30 Li    -0.002636    3.233589   15.448493    ( 0.0000,  0.0000,  0.0000)
  31 Li     3.235884    3.235509   15.437497    ( 0.0000,  0.0000,  0.0000)
  32 Li     6.464569    3.235966   15.440782    ( 0.0000,  0.0000,  0.0000)
  33 Li     0.000333    6.467240   15.441169    ( 0.0000,  0.0000,  0.0000)
  34 Li     3.232679    6.467316   15.441799    ( 0.0000,  0.0000,  0.0000)
  35 Li     6.469156    6.469044   15.440261    ( 0.0000,  0.0000,  0.0000)
  36 O     -0.000330    1.618109   18.425271    ( 0.0000,  0.0000,  0.0000)
  37 C     -0.037389    1.628419   20.909543    ( 0.0000,  0.0000,  0.0000)
  38 C     -0.024436    0.775924   22.184623    ( 0.0000,  0.0000,  0.0000)
  39 C     -0.001435    0.802129   19.625259    ( 0.0000,  0.0000,  0.0000)
  40 C     -0.007257    1.626585   23.454389    ( 0.0000,  0.0000,  0.0000)
  41 H     -0.924386    2.270766   20.900409    ( 0.0000,  0.0000,  0.0000)
  42 H      0.828192    2.302036   20.921972    ( 0.0000,  0.0000,  0.0000)
  43 H      0.852249    0.119615   22.174911    ( 0.0000,  0.0000,  0.0000)
  44 H     -0.901846    0.119287   22.192295    ( 0.0000,  0.0000,  0.0000)
  45 H      0.873955    0.135830   19.628699    ( 0.0000,  0.0000,  0.0000)
  46 H     -0.893286    0.174209   19.549757    ( 0.0000,  0.0000,  0.0000)
  47 H      0.879407    2.265411   23.484462    ( 0.0000,  0.0000,  0.0000)
  48 H     -0.886796    2.273503   23.500960    ( 0.0000,  0.0000,  0.0000)
  49 H     -0.000473    1.005067   24.349988    ( 0.0000,  0.0000,  0.0000)
  50 H      0.771346    2.205503   18.476973    ( 0.0000,  0.0000,  0.0000)

Unit cell:
           periodic     x           y           z      points  spacing
  1. axis:    yes    9.702222    0.000000    0.000000    60     0.1617
  2. axis:    yes    0.000000    9.702222    0.000000    60     0.1617
  3. axis:    no     0.000000    0.000000   26.851111   168     0.1598

  Lengths:   9.702222   9.702222  26.851111
  Angles:   90.000000  90.000000  90.000000

Effective grid spacing dv^(1/3) = 0.1611

     iter     time        total  log10-change:
                         energy  eigst   dens
iter:   1 18:52:14  -323.424347  -1.58
iter:   2 18:58:08  -323.383229  -2.07  -1.73
iter:   3 19:04:56  -323.373240  -3.39  -2.07
iter:   4 19:12:34  -323.372061c -2.98  -2.58
Writing to output.gpw (mode='')

iter:   5 19:19:08  -323.371946c -3.41  -2.87
iter:   6 19:25:12  -323.371770c -3.10  -3.00
iter:   7 19:30:13  -323.371812c -3.49  -3.21
iter:   8 19:34:15  -323.371823c -3.75  -3.19
iter:   9 19:37:58  -323.371803c -4.35  -3.36
Writing to output.gpw (mode='')

iter:  10 19:42:19  -323.371788c -4.29  -3.49
iter:  11 19:46:51  -323.371791c -4.70  -3.70
iter:  12 19:51:15  -323.371784c -4.75  -3.81
iter:  13 19:56:06  -323.371783c -4.76  -3.92
iter:  14 20:02:29  -323.371788c -5.42  -3.86
Writing to output.gpw (mode='')

iter:  15 20:07:23  -323.371789c -5.32  -4.11c
iter:  16 20:10:41  -323.371787c -5.88  -4.21c
iter:  17 20:13:22  -323.371785c -5.69  -4.36c
iter:  18 20:15:47  -323.371787c -5.96  -4.42c
iter:  19 20:18:48  -323.371786c -6.30  -4.44c
Writing to output.gpw (mode='')

iter:  20 20:21:41  -323.371786c -6.10  -4.47c
iter:  21 20:25:00  -323.371787c -6.16  -4.41c
iter:  22 20:28:00  -323.371787c -6.49  -4.83c
iter:  23 20:30:26  -323.371787c -6.94  -4.86c
iter:  24 20:33:03  -323.371788c -6.88  -4.89c
Writing to output.gpw (mode='')

iter:  25 20:38:00  -323.371788c -6.74  -5.03c
iter:  26 20:43:56  -323.371788c -7.14  -5.07c
iter:  27 20:48:09  -323.371787c -7.03  -5.20c
iter:  28 20:51:58  -323.371787c -7.32  -5.36c
iter:  29 20:55:50  -323.371788c -7.34  -5.48c
Writing to output.gpw (mode='')

iter:  30 20:59:41  -323.371787c -7.32  -5.46c
iter:  31 21:03:33  -323.371787c -7.49c -5.59c

Converged after 31 iterations.

Dipole moment: (-15.730806, -16.697684, 0.309443) |e|*Ang

Energy contributions relative to reference atoms: (reference = -13576.627914)

Kinetic:       +159.931655
Potential:     -155.182031
External:        +0.000000
XC:            -328.378862
Entropy (-ST):   -0.152704
Local:           +0.333803
--------------------------
Free energy:   -323.448139
Extrapolated:  -323.371787

Dipole-layer corrected work functions: 3.378107, 2.783252 eV

Showing only first 2 kpts
 Kpt  Band  Eigenvalues  Occupancy
  0    32     -3.33119    1.98675
  0    33     -3.24541    1.92848
  0    34     -2.91759    0.07382
  0    35     -2.82440    0.01181

  1    32     -3.11101    1.29435
  1    33     -3.07535    0.94678
  1    34     -3.03938    0.60901
  1    35     -3.02924    0.52664


Fermi level: -3.08068

No gap
Writing to output.gpw (mode='')


Forces in eV/Ang:
  0 Li    0.00456    0.00178   -0.27298
  1 Li   -0.00162   -0.00053   -0.27370
  2 Li   -0.00302   -0.00063   -0.27236
  3 Li   -0.00105   -0.00090   -0.27329
  4 Li    0.00040   -0.00162   -0.27444
  5 Li    0.00059    0.00320   -0.27296
  6 Li   -0.00111   -0.00068   -0.27140
  7 Li    0.00218    0.00176   -0.27404
  8 Li   -0.00095   -0.00265   -0.27165
  9 Li    0.00187    0.00137    0.27293
 10 Li    0.00461    0.00089    0.26724
 11 Li   -0.00652   -0.00673    0.26308
 12 Li    0.00041    0.00063    0.27094
 13 Li    0.00514    0.00133    0.26513
 14 Li   -0.00527    0.00179    0.26740
 15 Li   -0.00049   -0.00269    0.26482
 16 Li   -0.00786   -0.00233    0.27681
 17 Li    0.00838    0.00515    0.26908
 18 Li   -0.00150   -0.00042    0.01653
 19 Li    0.00210   -0.00004    0.01865
 20 Li   -0.00136   -0.00326    0.00518
 21 Li   -0.00423   -0.00529    0.02424
 22 Li    0.00213    0.00343    0.01335
 23 Li    0.00106   -0.00346    0.01964
 24 Li   -0.00698    0.00741    0.02635
 25 Li   -0.00156   -0.00278    0.01560
 26 Li    0.00840    0.00848    0.02939
 27 Li    0.00378    0.02991    0.08444
 28 Li    0.00794    0.00183   -0.01307
 29 Li   -0.01101   -0.00649   -0.01585
 30 Li   -0.00918   -0.00016    0.01290
 31 Li    0.00328    0.00296   -0.01819
 32 Li   -0.00962    0.00376   -0.00974
 33 Li    0.00053   -0.00114   -0.00693
 34 Li   -0.00285   -0.00185   -0.00562
 35 Li    0.00238    0.00195   -0.01006
 36 O     0.08256   -0.09746    0.19051
 37 C    -0.00562    0.00459   -0.04048
 38 C    -0.00008    0.01617   -0.09140
 39 C     0.02931    0.10572   -0.09958
 40 C    -0.00712    0.00165   -0.01250
 41 H    -0.02226   -0.01595   -0.02536
 42 H     0.05502    0.00274   -0.00722
 43 H     0.01064   -0.01546   -0.00531
 44 H    -0.00283    0.00373    0.00525
 45 H    -0.03619    0.04356   -0.03211
 46 H     0.00851    0.02968   -0.05926
 47 H    -0.00793    0.00491    0.00462
 48 H     0.00337    0.01263    0.01563
 49 H    -0.00533   -0.02177    0.02975
 50 H    -0.08957   -0.11755   -0.05738

System changes: positions 

Initializing position-dependent things.

Density initialized from wave functions
       .-----------------------.  
      /|                       |  
     / |                       |  
    /  |                       |  
   /   |                       |  
  /    |                       |  
 *     |                       |  
 |     |                       |  
 |     |                  H    |  
 |   H |                H C    |  
 |     |                       |  
 |     |                 C     |  
 | HH  |               HH C    |  
 |     |                       |  
 |     |               LiC     |  
 |OHH  |               H       |  
 |   Li|     Li      Li        |  
 |     |  Li      Li      Li   |  
 |     |   Li      Li      Li  |  
 |     |Li      Li      Li     |  
 Li    | Li                    |  
 |   LLi     LLi     LLi       |  
 |     |  Li      Li      Li   |  
 | Li  |   Li      Li          |  
 |     |Li      Li      Li     |  
 Li    | Li      Li            |  
 |    Li      Li      Li       |  
 |     |                       |  
 |     |                       |  
 |     |                       |  
 |     |                       |  
 |     |                       |  
 |     |                       |  
 |     .-----------------------.  
 |    /                       /   
 |   /                       /    
 |  /                       /     
 | /                       /      
 |/                       /       
 *-----------------------*        

Positions:
   0 Li     1.617037    1.617037   10.000000    ( 0.0000,  0.0000,  0.0000)
   1 Li     4.851111    1.617037   10.000000    ( 0.0000,  0.0000,  0.0000)
   2 Li     8.085185    1.617037   10.000000    ( 0.0000,  0.0000,  0.0000)
   3 Li     1.617037    4.851111   10.000000    ( 0.0000,  0.0000,  0.0000)
   4 Li     4.851111    4.851111   10.000000    ( 0.0000,  0.0000,  0.0000)
   5 Li     8.085185    4.851111   10.000000    ( 0.0000,  0.0000,  0.0000)
   6 Li     1.617037    8.085185   10.000000    ( 0.0000,  0.0000,  0.0000)
   7 Li     4.851111    8.085185   10.000000    ( 0.0000,  0.0000,  0.0000)
   8 Li     8.085185    8.085185   10.000000    ( 0.0000,  0.0000,  0.0000)
   9 Li     0.000000    0.000000   11.617037    ( 0.0000,  0.0000,  0.0000)
  10 Li     3.234074    0.000000   11.617037    ( 0.0000,  0.0000,  0.0000)
  11 Li     6.468148    0.000000   11.617037    ( 0.0000,  0.0000,  0.0000)
  12 Li     0.000000    3.234074   11.617037    ( 0.0000,  0.0000,  0.0000)
  13 Li     3.234074    3.234074   11.617037    ( 0.0000,  0.0000,  0.0000)
  14 Li     6.468148    3.234074   11.617037    ( 0.0000,  0.0000,  0.0000)
  15 Li     0.000000    6.468148   11.617037    ( 0.0000,  0.0000,  0.0000)
  16 Li     3.234074    6.468148   11.617037    ( 0.0000,  0.0000,  0.0000)
  17 Li     6.468148    6.468148   11.617037    ( 0.0000,  0.0000,  0.0000)
  18 Li     1.618629    1.617886   13.479359    ( 0.0000,  0.0000,  0.0000)
  19 Li     4.852261    1.616833   13.485828    ( 0.0000,  0.0000,  0.0000)
  20 Li     8.082497    1.616361   13.471323    ( 0.0000,  0.0000,  0.0000)
  21 Li     1.615497    4.848326   13.487341    ( 0.0000,  0.0000,  0.0000)
  22 Li     4.852445    4.852571   13.481739    ( 0.0000,  0.0000,  0.0000)
  23 Li     8.085349    4.849418   13.484360    ( 0.0000,  0.0000,  0.0000)
  24 Li     1.615438    8.087142   13.485121    ( 0.0000,  0.0000,  0.0000)
  25 Li     4.850624    8.084083   13.483272    ( 0.0000,  0.0000,  0.0000)
  26 Li     8.087253    8.087672   13.487455    ( 0.0000,  0.0000,  0.0000)
  27 Li     0.002304    0.013323   15.483336    ( 0.0000,  0.0000,  0.0000)
  28 Li     3.238290    0.000619   15.436378    ( 0.0000,  0.0000,  0.0000)
  29 Li     6.461786   -0.004310   15.435134    ( 0.0000,  0.0000,  0.0000)
  30 Li    -0.004006    3.233374   15.449915    ( 0.0000,  0.0000,  0.0000)
  31 Li     3.236752    3.236206   15.433376    ( 0.0000,  0.0000,  0.0000)
  32 Li     6.462776    3.236881   15.438297    ( 0.0000,  0.0000,  0.0000)
  33 Li     0.000491    6.466816   15.438920    ( 0.0000,  0.0000,  0.0000)
  34 Li     3.232001    6.466909   15.439856    ( 0.0000,  0.0000,  0.0000)
  35 Li     6.469655    6.469483   15.437541    ( 0.0000,  0.0000,  0.0000)
  36 O      0.001421    1.616251   18.420654    ( 0.0000,  0.0000,  0.0000)
  37 C     -0.038162    1.628162   20.907042    ( 0.0000,  0.0000,  0.0000)
  38 C     -0.025311    0.776977   22.183368    ( 0.0000,  0.0000,  0.0000)
  39 C     -0.001335    0.802585   19.620729    ( 0.0000,  0.0000,  0.0000)
  40 C     -0.007629    1.627149   23.453719    ( 0.0000,  0.0000,  0.0000)
  41 H     -0.922767    2.273977   20.900769    ( 0.0000,  0.0000,  0.0000)
  42 H      0.826273    2.303162   20.919907    ( 0.0000,  0.0000,  0.0000)
  43 H      0.851814    0.121164   22.177100    ( 0.0000,  0.0000,  0.0000)
  44 H     -0.902548    0.119871   22.194530    ( 0.0000,  0.0000,  0.0000)
  45 H      0.873097    0.134625   19.624316    ( 0.0000,  0.0000,  0.0000)
  46 H     -0.892348    0.171019   19.550020    ( 0.0000,  0.0000,  0.0000)
  47 H      0.880162    2.264495   23.485273    ( 0.0000,  0.0000,  0.0000)
  48 H     -0.887842    2.273018   23.501497    ( 0.0000,  0.0000,  0.0000)
  49 H     -0.000527    1.001714   24.346980    ( 0.0000,  0.0000,  0.0000)
  50 H      0.773297    2.202482   18.467624    ( 0.0000,  0.0000,  0.0000)

Unit cell:
           periodic     x           y           z      points  spacing
  1. axis:    yes    9.702222    0.000000    0.000000    60     0.1617
  2. axis:    yes    0.000000    9.702222    0.000000    60     0.1617
  3. axis:    no     0.000000    0.000000   26.851111   168     0.1598

  Lengths:   9.702222   9.702222  26.851111
  Angles:   90.000000  90.000000  90.000000

Effective grid spacing dv^(1/3) = 0.1611

     iter     time        total  log10-change:
                         energy  eigst   dens
iter:   1 21:06:22  -323.427123  -1.61
iter:   2 21:10:01  -323.385248  -2.07  -1.73
iter:   3 21:15:12  -323.375097  -3.42  -2.07
iter:   4 21:20:20  -323.374279c -3.04  -2.64
Writing to output.gpw (mode='')

iter:   5 21:24:12  -323.374236c -3.63  -2.94
iter:   6 21:29:52  -323.374085c -3.23  -3.03
iter:   7 21:33:37  -323.374132c -3.30  -3.26
iter:   8 21:38:46  -323.374136c -3.95  -3.20
iter:   9 21:42:55  -323.374138c -4.33  -3.50
Writing to output.gpw (mode='')

iter:  10 21:46:35  -323.374121c -4.44  -3.55
iter:  11 21:49:23  -323.374130c -4.55  -3.82
iter:  12 21:52:37  -323.374130c -5.06  -3.89
iter:  13 21:56:08  -323.374130c -5.39  -3.93
iter:  14 22:00:04  -323.374134c -5.23  -3.96
Writing to output.gpw (mode='')

iter:  15 22:04:53  -323.374132c -5.56  -4.02c
iter:  16 22:09:28  -323.374129c -5.29  -4.24c
iter:  17 22:14:07  -323.374130c -5.99  -4.44c
iter:  18 22:18:24  -323.374132c -5.84  -4.46c
iter:  19 22:23:37  -323.374130c -5.85  -4.56c
Writing to output.gpw (mode='')

iter:  20 22:27:32  -323.374131c -6.35  -4.71c
iter:  21 22:32:47  -323.374131c -6.36  -4.81c
iter:  22 22:37:06  -323.374131c -6.44  -4.92c
iter:  23 22:41:54  -323.374131c -6.58  -5.00c
iter:  24 22:47:11  -323.374132c -6.86  -5.02c
Writing to output.gpw (mode='')

iter:  25 22:51:35  -323.374132c -6.88  -5.15c
iter:  26 22:56:37  -323.374132c -6.97  -5.32c
iter:  27 23:01:40  -323.374132c -6.95  -5.41c
iter:  28 23:08:22  -323.374132c -7.14  -5.48c
iter:  29 23:16:24  -323.374132c -7.42c -5.55c

Converged after 29 iterations.

Dipole moment: (-15.720549, -16.746768, 0.309018) |e|*Ang

Energy contributions relative to reference atoms: (reference = -13576.627914)

Kinetic:       +159.828170
Potential:     -155.097779
External:        +0.000000
XC:            -328.362110
Entropy (-ST):   -0.152808
Local:           +0.333992
--------------------------
Free energy:   -323.450536
Extrapolated:  -323.374132

Dipole-layer corrected work functions: 3.378091, 2.784052 eV

Showing only first 2 kpts
 Kpt  Band  Eigenvalues  Occupancy
  0    32     -3.33013    1.98636
  0    33     -3.24555    1.92814
  0    34     -2.91768    0.07338
  0    35     -2.82321    0.01145

  1    32     -3.11141    1.29440
  1    33     -3.07530    0.94231
  1    34     -3.04111    0.62035
  1    35     -3.03012    0.53040


Fermi level: -3.08107

No gap
Writing to output.gpw (mode='')


Forces in eV/Ang:
  0 Li    0.00462    0.00183   -0.27308
  1 Li   -0.00164   -0.00052   -0.27416
  2 Li   -0.00307   -0.00061   -0.27239
  3 Li   -0.00097   -0.00102   -0.27382
  4 Li    0.00045   -0.00150   -0.27485
  5 Li    0.00045    0.00314   -0.27343
  6 Li   -0.00101   -0.00060   -0.27162
  7 Li    0.00218    0.00154   -0.27472
  8 Li   -0.00099   -0.00262   -0.27184
  9 Li    0.00230    0.00084    0.27456
 10 Li    0.00516    0.00077    0.27111
 11 Li   -0.00752   -0.00793    0.26634
 12 Li    0.00079    0.00130    0.27350
 13 Li    0.00562    0.00158    0.26926
 14 Li   -0.00604    0.00230    0.27052
 15 Li   -0.00047   -0.00295    0.26938
 16 Li   -0.00917   -0.00242    0.28169
 17 Li    0.00964    0.00591    0.27360
 18 Li   -0.00463   -0.00182    0.01335
 19 Li    0.00171    0.00023    0.00721
 20 Li    0.00157   -0.00414    0.00633
 21 Li   -0.00453   -0.00440    0.01406
 22 Li    0.00149    0.00339    0.00463
 23 Li    0.00143   -0.00306    0.01096
 24 Li   -0.00873    0.00893    0.02041
 25 Li   -0.00178   -0.00287    0.00605
 26 Li    0.01031    0.00986    0.02192
 27 Li    0.00278    0.02847    0.08082
 28 Li    0.00645    0.00215   -0.00727
 29 Li   -0.00838   -0.00417   -0.00988
 30 Li   -0.00889    0.00131    0.01324
 31 Li    0.00121    0.00157   -0.01116
 32 Li   -0.00759    0.00202   -0.00483
 33 Li    0.00013    0.00001   -0.00107
 34 Li   -0.00159   -0.00121   -0.00051
 35 Li    0.00165    0.00117   -0.00425
 36 O     0.02416   -0.12076    0.17969
 37 C     0.01163    0.02531   -0.04101
 38 C     0.00707    0.00740   -0.08541
 39 C     0.02095    0.06482   -0.02973
 40 C    -0.00634   -0.01338   -0.01454
 41 H    -0.03696   -0.03451   -0.04350
 42 H     0.07215   -0.00708   -0.00584
 43 H     0.00895   -0.02129   -0.02881
 44 H     0.00232    0.00686   -0.01164
 45 H    -0.03184    0.05867   -0.02055
 46 H     0.02163    0.06940   -0.08804
 47 H    -0.01725    0.00898    0.00347
 48 H     0.00993    0.01833    0.02001
 49 H    -0.00840   -0.00967    0.02727
 50 H    -0.05376   -0.11100   -0.04341

System changes: positions 

Initializing position-dependent things.

Density initialized from wave functions
       .-----------------------.  
      /|                       |  
     / |                       |  
    /  |                       |  
   /   |                       |  
  /    |                       |  
 *     |                       |  
 |     |                       |  
 |     |                  H    |  
 |   H |                H C    |  
 |     |                       |  
 |     |                 C     |  
 | HH  |               HH C    |  
 |     |                       |  
 |     |               LiC     |  
 |OHH  |               H       |  
 |   Li|     Li      Li        |  
 |     |  Li      Li      Li   |  
 |     |   Li      Li      Li  |  
 |     |Li      Li      Li     |  
 Li    | Li                    |  
 |   LLi     LLi     LLi       |  
 |     |  Li      Li      Li   |  
 | Li  |   Li      Li          |  
 |     |Li      Li      Li     |  
 Li    | Li      Li            |  
 |    Li      Li      Li       |  
 |     |                       |  
 |     |                       |  
 |     |                       |  
 |     |                       |  
 |     |                       |  
 |     |                       |  
 |     .-----------------------.  
 |    /                       /   
 |   /                       /    
 |  /                       /     
 | /                       /      
 |/                       /       
 *-----------------------*        

Positions:
   0 Li     1.617037    1.617037   10.000000    ( 0.0000,  0.0000,  0.0000)
   1 Li     4.851111    1.617037   10.000000    ( 0.0000,  0.0000,  0.0000)
   2 Li     8.085185    1.617037   10.000000    ( 0.0000,  0.0000,  0.0000)
   3 Li     1.617037    4.851111   10.000000    ( 0.0000,  0.0000,  0.0000)
   4 Li     4.851111    4.851111   10.000000    ( 0.0000,  0.0000,  0.0000)
   5 Li     8.085185    4.851111   10.000000    ( 0.0000,  0.0000,  0.0000)
   6 Li     1.617037    8.085185   10.000000    ( 0.0000,  0.0000,  0.0000)
   7 Li     4.851111    8.085185   10.000000    ( 0.0000,  0.0000,  0.0000)
   8 Li     8.085185    8.085185   10.000000    ( 0.0000,  0.0000,  0.0000)
   9 Li     0.000000    0.000000   11.617037    ( 0.0000,  0.0000,  0.0000)
  10 Li     3.234074    0.000000   11.617037    ( 0.0000,  0.0000,  0.0000)
  11 Li     6.468148    0.000000   11.617037    ( 0.0000,  0.0000,  0.0000)
  12 Li     0.000000    3.234074   11.617037    ( 0.0000,  0.0000,  0.0000)
  13 Li     3.234074    3.234074   11.617037    ( 0.0000,  0.0000,  0.0000)
  14 Li     6.468148    3.234074   11.617037    ( 0.0000,  0.0000,  0.0000)
  15 Li     0.000000    6.468148   11.617037    ( 0.0000,  0.0000,  0.0000)
  16 Li     3.234074    6.468148   11.617037    ( 0.0000,  0.0000,  0.0000)
  17 Li     6.468148    6.468148   11.617037    ( 0.0000,  0.0000,  0.0000)
  18 Li     1.619098    1.618160   13.483688    ( 0.0000,  0.0000,  0.0000)
  19 Li     4.852782    1.616759   13.492525    ( 0.0000,  0.0000,  0.0000)
  20 Li     8.081479    1.615941   13.472187    ( 0.0000,  0.0000,  0.0000)
  21 Li     1.614718    4.847054   13.494889    ( 0.0000,  0.0000,  0.0000)
  22 Li     4.853033    4.853276   13.486706    ( 0.0000,  0.0000,  0.0000)
  23 Li     8.085467    4.848631   13.490605    ( 0.0000,  0.0000,  0.0000)
  24 Li     1.614483    8.088247   13.492010    ( 0.0000,  0.0000,  0.0000)
  25 Li     4.850366    8.083539   13.488904    ( 0.0000,  0.0000,  0.0000)
  26 Li     8.088452    8.089022   13.495333    ( 0.0000,  0.0000,  0.0000)
  27 Li     0.003326    0.019678   15.501205    ( 0.0000,  0.0000,  0.0000)
  28 Li     3.240209    0.000944   15.432293    ( 0.0000,  0.0000,  0.0000)
  29 Li     6.458939   -0.006185   15.430456    ( 0.0000,  0.0000,  0.0000)
  30 Li    -0.005929    3.233138   15.451990    ( 0.0000,  0.0000,  0.0000)
  31 Li     3.237868    3.237115   15.427949    ( 0.0000,  0.0000,  0.0000)
  32 Li     6.460355    3.238075   15.435068    ( 0.0000,  0.0000,  0.0000)
  33 Li     0.000692    6.466284   15.436074    ( 0.0000,  0.0000,  0.0000)
  34 Li     3.231113    6.466371   15.437406    ( 0.0000,  0.0000,  0.0000)
  35 Li     6.470317    6.470060   15.434030    ( 0.0000,  0.0000,  0.0000)
  36 O      0.003583    1.611563   18.417778    ( 0.0000,  0.0000,  0.0000)
  37 C     -0.038752    1.628527   20.903085    ( 0.0000,  0.0000,  0.0000)
  38 C     -0.026223    0.778370   22.180293    ( 0.0000,  0.0000,  0.0000)
  39 C     -0.000947    0.803824   19.615224    ( 0.0000,  0.0000,  0.0000)
  40 C     -0.008214    1.627461   23.452564    ( 0.0000,  0.0000,  0.0000)
  41 H     -0.921520    2.277267   20.900230    ( 0.0000,  0.0000,  0.0000)
  42 H      0.825312    2.304372   20.917158    ( 0.0000,  0.0000,  0.0000)
  43 H      0.851395    0.122705   22.179118    ( 0.0000,  0.0000,  0.0000)
  44 H     -0.903350    0.120785   22.196994    ( 0.0000,  0.0000,  0.0000)
  45 H      0.871482    0.134304   19.618440    ( 0.0000,  0.0000,  0.0000)
  46 H     -0.890596    0.168629   19.548437    ( 0.0000,  0.0000,  0.0000)
  47 H      0.880709    2.263522   23.486367    ( 0.0000,  0.0000,  0.0000)
  48 H     -0.888927    2.272788   23.502602    ( 0.0000,  0.0000,  0.0000)
  49 H     -0.000784    0.997363   24.343566    ( 0.0000,  0.0000,  0.0000)
  50 H      0.775102    2.196540   18.454948    ( 0.0000,  0.0000,  0.0000)

Unit cell:
           periodic     x           y           z      points  spacing
  1. axis:    yes    9.702222    0.000000    0.000000    60     0.1617
  2. axis:    yes    0.000000    9.702222    0.000000    60     0.1617
  3. axis:    no     0.000000    0.000000   26.851111   168     0.1598

  Lengths:   9.702222   9.702222  26.851111
  Angles:   90.000000  90.000000  90.000000

Effective grid spacing dv^(1/3) = 0.1611

     iter     time        total  log10-change:
                         energy  eigst   dens
iter:   1 23:24:46  -323.478305  -1.32
iter:   2 23:29:10  -323.397856  -1.79  -1.60
iter:   3 23:35:07  -323.378903  -3.11  -1.94
iter:   4 23:41:08  -323.377207c -2.69  -2.50
Writing to output.gpw (mode='')

iter:   5 23:45:06  -323.377185c -3.27  -2.84
iter:   6 23:48:16  -323.376890c -2.95  -2.91
iter:   7 23:51:22  -323.376985c -2.99  -3.15
iter:   8 23:55:28  -323.376959c -3.84  -3.06
iter:   9 23:59:23  -323.376987c -3.69  -3.30
Writing to output.gpw (mode='')

iter:  10 00:04:01  -323.376997c -4.21  -3.38
iter:  11 00:08:48  -323.376968c -4.08  -3.45
iter:  12 00:12:42  -323.376976c -4.75  -3.58
iter:  13 00:17:24  -323.376986c -4.75  -3.62
iter:  14 00:20:28  -323.376974c -4.54  -3.69
Writing to output.gpw (mode='')

iter:  15 00:25:15  -323.376982c -4.88  -3.69
iter:  16 00:29:38  -323.376982c -5.46  -3.92
[...]

Converged after 28 iterations.

Dipole moment: (-25.970425, -12.285717, 0.454980) |e|*Ang

Energy contributions relative to reference atoms: (reference = -13576.627914)

Kinetic:       +157.568466
Potential:     -153.816457
External:        +0.000000
XC:            -327.700006
Entropy (-ST):   -0.160882
Local:           +0.340872
--------------------------
Free energy:   -323.768008
Extrapolated:  -323.687567

Dipole-layer corrected work functions: 3.370286, 2.495657 eV

Showing only first 2 kpts
 Kpt  Band  Eigenvalues  Occupancy
  0    32     -3.13644    1.96640
  0    33     -3.06646    1.87044
  0    34     -2.80224    0.13641
  0    35     -2.63246    0.00490

  1    32     -2.99929    1.58051
  1    33     -2.94978    1.16650
  1    34     -2.88981    0.59336
  1    35     -2.87657    0.48908


Fermi level: -2.93297

No gap
Writing to output.gpw (mode='')


Forces in eV/Ang:
  0 Li    0.00257   -0.00188   -0.27511
  1 Li   -0.00144   -0.00571   -0.28485
  2 Li    0.00231   -0.00648   -0.27394
  3 Li   -0.00163   -0.00402   -0.28155
  4 Li    0.00359   -0.00388   -0.25868
  5 Li    0.00036    0.00063   -0.28162
  6 Li    0.00112   -0.00252   -0.26806
  7 Li    0.00233   -0.00059   -0.28415
  8 Li   -0.00133   -0.00496   -0.27084
  9 Li    0.00285    0.02559    0.23444
 10 Li   -0.02513    0.02318    0.31512
 11 Li   -0.00173    0.00687    0.32101
 12 Li   -0.00828    0.01022    0.34374
 13 Li   -0.03337   -0.01575    0.33385
 14 Li    0.02048   -0.02680    0.33945
 15 Li   -0.00986    0.06762    0.31222
 16 Li   -0.00986    0.04518    0.28917
 17 Li    0.00986    0.08095    0.29722
 18 Li   -0.00761    0.01213   -0.01382
 19 Li    0.01083   -0.00498   -0.02038
 20 Li    0.00318    0.02166   -0.01498
 21 Li   -0.00876   -0.00211    0.01200
 22 Li   -0.00858   -0.00847   -0.00343
 23 Li    0.01196   -0.00572    0.00636
 24 Li    0.00695   -0.01108   -0.01857
 25 Li    0.00759    0.00445   -0.00463
 26 Li   -0.01765   -0.01921   -0.02444
 27 Li   -0.01873   -0.09028   -0.02476
 28 Li    0.01486    0.01660   -0.01412
 29 Li    0.00720    0.01532   -0.00120
 30 Li    0.01610   -0.00559    0.01973
 31 Li   -0.00341   -0.01835   -0.00372
 32 Li   -0.00691   -0.00310   -0.01282
 33 Li   -0.00284   -0.04317    0.00503
 34 Li   -0.00062    0.00463   -0.01326
 35 Li    0.00813    0.00194   -0.00901
 36 O     0.07377   -0.01382    0.11205
 37 C     0.00030    0.03084   -0.05175
 38 C    -0.00777   -0.05367   -0.12150
 39 C     0.01837   -0.05332   -0.04391
 40 C    -0.00831    0.01446   -0.07877
 41 H    -0.05221    0.05326   -0.02073
 42 H     0.01780    0.00086   -0.01103
 43 H    -0.00233    0.02696    0.03237
 44 H     0.00356   -0.00252    0.01522
 45 H    -0.00030   -0.01184   -0.00515
 46 H     0.01098    0.00932    0.03498
 47 H     0.00357   -0.02759   -0.00906
 48 H    -0.02075    0.02918   -0.02115
 49 H     0.02205   -0.05144    0.01322
 50 H    -0.03409   -0.03766   -0.05424

System changes: positions 

Initializing position-dependent things.

Density initialized from wave functions
       .-----------------------.  
      /|                       |  
     / |                       |  
    /  |                       |  
   /   |                       |  
  /    |                       |  
 *     |                       |  
 |     |                       |  
 |     |                       |  
 |   H | H              H H  H |  
 |     |                  C    |  
 |     |                       |  
 | H   |               H C     |  
 |C  H |                H      |  
 |     |       Li      Li      |  
 C     |                       |  
 |O HLi|     Li      Li        |  
 |     |  Li      Li      Li   |  
 |     |   Li      Li      Li  |  
 |     |Li      Li      LLi    |  
 |     |                       |  
 |   LLi     LLi     LLi       |  
 |     |  Li      Li      Li   |  
 | Li  |   Li      Li          |  
 |     |Li      Li      Li     |  
 Li    | Li      Li            |  
 |    Li      Li      Li       |  
 |     |                       |  
 |     |                       |  
 |     |                       |  
 |     |                       |  
 |     |                       |  
 |     |                       |  
 |     .-----------------------.  
 |    /                       /   
 |   /                       /    
 |  /                       /     
 | /                       /      
 |/                       /       
 *-----------------------*        

Positions:
   0 Li     1.617037    1.617037   10.000000    ( 0.0000,  0.0000,  0.0000)
   1 Li     4.851111    1.617037   10.000000    ( 0.0000,  0.0000,  0.0000)
   2 Li     8.085185    1.617037   10.000000    ( 0.0000,  0.0000,  0.0000)
   3 Li     1.617037    4.851111   10.000000    ( 0.0000,  0.0000,  0.0000)
   4 Li     4.851111    4.851111   10.000000    ( 0.0000,  0.0000,  0.0000)
   5 Li     8.085185    4.851111   10.000000    ( 0.0000,  0.0000,  0.0000)
   6 Li     1.617037    8.085185   10.000000    ( 0.0000,  0.0000,  0.0000)
   7 Li     4.851111    8.085185   10.000000    ( 0.0000,  0.0000,  0.0000)
   8 Li     8.085185    8.085185   10.000000    ( 0.0000,  0.0000,  0.0000)
   9 Li     0.000000    0.000000   11.617037    ( 0.0000,  0.0000,  0.0000)
  10 Li     3.234074    0.000000   11.617037    ( 0.0000,  0.0000,  0.0000)
  11 Li     6.468148    0.000000   11.617037    ( 0.0000,  0.0000,  0.0000)
  12 Li     0.000000    3.234074   11.617037    ( 0.0000,  0.0000,  0.0000)
  13 Li     3.234074    3.234074   11.617037    ( 0.0000,  0.0000,  0.0000)
  14 Li     6.468148    3.234074   11.617037    ( 0.0000,  0.0000,  0.0000)
  15 Li     0.000000    6.468148   11.617037    ( 0.0000,  0.0000,  0.0000)
  16 Li     3.234074    6.468148   11.617037    ( 0.0000,  0.0000,  0.0000)
  17 Li     6.468148    6.468148   11.617037    ( 0.0000,  0.0000,  0.0000)
  18 Li     1.547423    1.624932   13.614167    ( 0.0000,  0.0000,  0.0000)
  19 Li     4.818176    1.602931   13.537368    ( 0.0000,  0.0000,  0.0000)
  20 Li     8.109688    1.609575   13.595459    ( 0.0000,  0.0000,  0.0000)
  21 Li     1.638918    4.944769   13.484394    ( 0.0000,  0.0000,  0.0000)
  22 Li     4.858104    4.855943   13.504419    ( 0.0000,  0.0000,  0.0000)
  23 Li     8.054788    4.950728   13.482905    ( 0.0000,  0.0000,  0.0000)
  24 Li     1.589677    8.186892   13.563297    ( 0.0000,  0.0000,  0.0000)
  25 Li     4.824736    8.068220   13.522761    ( 0.0000,  0.0000,  0.0000)
  26 Li     8.117452    8.218181   13.602446    ( 0.0000,  0.0000,  0.0000)
  27 Li    -0.096135    0.517082   16.153987    ( 0.0000,  0.0000,  0.0000)
  28 Li     3.197360   -0.018436   15.529389    ( 0.0000,  0.0000,  0.0000)
  29 Li     6.354566   -0.043327   15.504920    ( 0.0000,  0.0000,  0.0000)
  30 Li    -0.025917    3.606684   15.395674    ( 0.0000,  0.0000,  0.0000)
  31 Li     3.209149    3.260549   15.475050    ( 0.0000,  0.0000,  0.0000)
  32 Li     6.462584    3.234419   15.475314    ( 0.0000,  0.0000,  0.0000)
  33 Li     0.007798    6.744617   15.516697    ( 0.0000,  0.0000,  0.0000)
  34 Li     3.238158    6.458199   15.500922    ( 0.0000,  0.0000,  0.0000)
  35 Li     6.470689    6.453885   15.492992    ( 0.0000,  0.0000,  0.0000)
  36 O      0.178021    1.097899   18.005433    ( 0.0000,  0.0000,  0.0000)
  37 C      0.035530    1.410172   20.469264    ( 0.0000,  0.0000,  0.0000)
  38 C     -0.038989    0.727413   21.844043    ( 0.0000,  0.0000,  0.0000)
  39 C      0.089181    0.429597   19.300139    ( 0.0000,  0.0000,  0.0000)
  40 C     -0.046280    1.730998   23.001770    ( 0.0000,  0.0000,  0.0000)
  41 H     -0.827993    2.065713   20.333962    ( 0.0000,  0.0000,  0.0000)
  42 H      0.925749    2.051032   20.435231    ( 0.0000,  0.0000,  0.0000)
  43 H      0.807985    0.040765   21.950723    ( 0.0000,  0.0000,  0.0000)
  44 H     -0.940201    0.105691   21.889034    ( 0.0000,  0.0000,  0.0000)
  45 H      0.940913   -0.251879   19.408041    ( 0.0000,  0.0000,  0.0000)
  46 H     -0.820469   -0.171901   19.236402    ( 0.0000,  0.0000,  0.0000)
  47 H      0.853833    2.351387   22.995248    ( 0.0000,  0.0000,  0.0000)
  48 H     -0.907317    2.398276   22.932582    ( 0.0000,  0.0000,  0.0000)
  49 H     -0.104345    1.227611   23.967310    ( 0.0000,  0.0000,  0.0000)
  50 H      0.936587    1.707468   18.022328    ( 0.0000,  0.0000,  0.0000)

Unit cell:
           periodic     x           y           z      points  spacing
  1. axis:    yes    9.702222    0.000000    0.000000    60     0.1617
  2. axis:    yes    0.000000    9.702222    0.000000    60     0.1617
  3. axis:    no     0.000000    0.000000   26.851111   168     0.1598

  Lengths:   9.702222   9.702222  26.851111
  Angles:   90.000000  90.000000  90.000000

Effective grid spacing dv^(1/3) = 0.1611

     iter     time        total  log10-change:
                         energy  eigst   dens
iter:   1 08:44:07  -323.691670  -1.17
iter:   2 08:46:31  -323.692499  -2.09  -2.39
iter:   3 08:49:51  -323.692969c -2.63  -2.47
iter:   4 08:52:24  -323.693132c -3.06  -2.45
Writing to output.gpw (mode='')

iter:   5 08:56:41  -323.692026c -2.85  -2.45
iter:   6 09:00:52  -323.692297c -3.48  -2.55
iter:   7 09:04:43  -323.692437c -3.44  -2.57
iter:   8 09:09:05  -323.692828c -2.77  -2.54
iter:   9 09:12:36  -323.691249c -2.36  -2.35
Writing to output.gpw (mode='')

iter:  10 09:15:16  -323.690935c -3.24  -2.52
iter:  11 09:19:10  -323.689812c -2.86  -2.56
iter:  12 09:22:40  -323.689503c -2.55  -2.68
iter:  13 09:26:37  -323.689412c -3.42  -2.88
iter:  14 09:30:08  -323.689403c -4.05  -3.03
Writing to output.gpw (mode='')

iter:  15 09:32:57  -323.689567c -3.47  -3.09
iter:  16 09:36:23  -323.689473c -3.55  -3.10
iter:  17 09:38:33  -323.689444c -4.15  -3.37
iter:  18 09:41:58  -323.689435c -4.68  -3.43
iter:  19 09:45:10  -323.689401c -4.17  -3.49
Writing to output.gpw (mode='')

iter:  20 09:47:46  -323.689406c -5.11  -3.66
iter:  21 09:51:57  -323.689404c -5.30  -3.81
iter:  22 09:55:40  -323.689410c -5.20  -3.83
iter:  23 09:59:25  -323.689413c -5.41  -3.86
iter:  24 10:04:03  -323.689418c -5.53  -3.97
Writing to output.gpw (mode='')

iter:  25 10:07:04  -323.689416c -5.23  -4.13c
iter:  26 10:09:43  -323.689415c -5.81  -4.17c
iter:  27 10:12:23  -323.689414c -5.89  -4.24c
iter:  28 10:16:55  -323.689415c -6.38  -4.32c
iter:  29 10:20:12  -323.689414c -6.23  -4.40c
Writing to output.gpw (mode='')

iter:  30 10:23:34  -323.689413c -6.33  -4.53c
iter:  31 10:28:45  -323.689411c -6.44  -4.54c
iter:  32 10:32:06  -323.689413c -6.43  -4.60c
iter:  33 10:35:04  -323.689412c -7.01  -4.80c
iter:  34 10:37:41  -323.689413c -7.14  -4.88c
Writing to output.gpw (mode='')

iter:  35 10:41:31  -323.689413c -7.11  -5.06c
iter:  36 10:46:12  -323.689414c -7.25  -5.11c
iter:  37 10:51:13  -323.689414c -7.56c -5.11c

Converged after 37 iterations.

Dipole moment: (-25.971152, -12.370168, 0.455049) |e|*Ang

Energy contributions relative to reference atoms: (reference = -13576.627914)

Kinetic:       +157.623870
Potential:     -153.852368
External:        +0.000000
XC:            -327.721192
Entropy (-ST):   -0.160868
Local:           +0.340711
--------------------------
Free energy:   -323.769848
Extrapolated:  -323.689414

Dipole-layer corrected work functions: 3.370375, 2.495614 eV

Showing only first 2 kpts
 Kpt  Band  Eigenvalues  Occupancy
  0    32     -3.13665    1.96652
  0    33     -3.06665    1.87083
  0    34     -2.80177    0.13517
  0    35     -2.63267    0.00491

  1    32     -2.99919    1.57967
  1    33     -2.94906    1.15926
  1    34     -2.89009    0.59549
  1    35     -2.87739    0.49498


Fermi level: -2.93299

No gap
Writing to output.gpw (mode='')


Forces in eV/Ang:
  0 Li    0.00271   -0.00197   -0.27510
  1 Li   -0.00151   -0.00579   -0.28511
  2 Li    0.00216   -0.00657   -0.27382
  3 Li   -0.00170   -0.00407   -0.28159
  4 Li    0.00356   -0.00395   -0.25907
  5 Li    0.00041    0.00063   -0.28177
  6 Li    0.00123   -0.00273   -0.26816
  7 Li    0.00229   -0.00047   -0.28406
  8 Li   -0.00145   -0.00526   -0.27088
  9 Li    0.00275    0.02659    0.23586
 10 Li   -0.02382    0.02408    0.31505
 11 Li   -0.00276    0.00743    0.32024
 12 Li   -0.00829    0.01262    0.34385
 13 Li   -0.03232   -0.01490    0.33471
 14 Li    0.02021   -0.02542    0.34003
 15 Li   -0.01003    0.06825    0.31276
 16 Li   -0.00845    0.04505    0.28917
 17 Li    0.00906    0.08081    0.29744
 18 Li   -0.00788    0.01040   -0.01545
 19 Li    0.00996   -0.00509   -0.02200
 20 Li    0.00329    0.02006   -0.01532
 21 Li   -0.00868   -0.00280    0.00968
 22 Li   -0.00887   -0.00782   -0.00705
 23 Li    0.01164   -0.00701    0.00328
 24 Li    0.00450   -0.01237   -0.01871
 25 Li    0.00733    0.00409   -0.00725
 26 Li   -0.01522   -0.02030   -0.02409
 27 Li   -0.02129   -0.09457   -0.03355
 28 Li    0.01533    0.01743   -0.01387
 29 Li    0.00877    0.01616   -0.00119
 30 Li    0.01554   -0.01054    0.02140
 31 Li   -0.00323   -0.01681   -0.00157
 32 Li   -0.00713   -0.00257   -0.01157
 33 Li   -0.00346   -0.04333    0.00464
 34 Li    0.00025    0.00360   -0.01242
 35 Li    0.00778    0.00219   -0.00763
 36 O     0.04956    0.02844    0.18567
 37 C    -0.01393    0.03204   -0.09017
 38 C     0.00763   -0.04488   -0.13699
 39 C     0.02921   -0.04812   -0.03557
 40 C    -0.03354   -0.02338   -0.06929
 41 H    -0.07161    0.07523   -0.00285
 42 H     0.01788   -0.00548   -0.01227
 43 H     0.02616    0.02187    0.04357
 44 H    -0.01607    0.01322    0.01059
 45 H     0.01400   -0.01223   -0.01754
 46 H     0.00720    0.01817    0.03814
 47 H     0.00403   -0.03211    0.00848
 48 H    -0.02571    0.05001   -0.02918
 49 H     0.04443   -0.05244    0.01267
 50 H    -0.01970   -0.02882   -0.05684

System changes: positions 

Initializing position-dependent things.

Density initialized from wave functions
       .-----------------------.  
      /|                       |  
     / |                       |  
    /  |                       |  
   /   |                       |  
  /    |                       |  
 *     |                       |  
 |     |                       |  
 |     |                       |  
 |   H | H              HH   H |  
 |     |                  C    |  
 |     |                       |  
 | H   |               H C     |  
 |C  H |                H      |  
 |     |       Li      Li      |  
 C     |                       |  
 |O HLi|     Li      Li        |  
 |     |  Li      Li      Li   |  
 |     |   Li      Li      Li  |  
 |     |Li      Li      LLi    |  
 |     |                       |  
 |   LLi     LLi     LLi       |  
 |     |  Li      Li      Li   |  
 | Li  |   Li      Li          |  
 |     |Li      Li      Li     |  
 Li    | Li      Li            |  
 |    Li      Li      Li       |  
 |     |                       |  
 |     |                       |  
 |     |                       |  
 |     |                       |  
 |     |                       |  
 |     |                       |  
 |     .-----------------------.  
 |    /                       /   
 |   /                       /    
 |  /                       /     
 | /                       /      
 |/                       /       
 *-----------------------*        

Positions:
   0 Li     1.617037    1.617037   10.000000    ( 0.0000,  0.0000,  0.0000)
   1 Li     4.851111    1.617037   10.000000    ( 0.0000,  0.0000,  0.0000)
   2 Li     8.085185    1.617037   10.000000    ( 0.0000,  0.0000,  0.0000)
   3 Li     1.617037    4.851111   10.000000    ( 0.0000,  0.0000,  0.0000)
   4 Li     4.851111    4.851111   10.000000    ( 0.0000,  0.0000,  0.0000)
   5 Li     8.085185    4.851111   10.000000    ( 0.0000,  0.0000,  0.0000)
   6 Li     1.617037    8.085185   10.000000    ( 0.0000,  0.0000,  0.0000)
   7 Li     4.851111    8.085185   10.000000    ( 0.0000,  0.0000,  0.0000)
   8 Li     8.085185    8.085185   10.000000    ( 0.0000,  0.0000,  0.0000)
   9 Li     0.000000    0.000000   11.617037    ( 0.0000,  0.0000,  0.0000)
  10 Li     3.234074    0.000000   11.617037    ( 0.0000,  0.0000,  0.0000)
  11 Li     6.468148    0.000000   11.617037    ( 0.0000,  0.0000,  0.0000)
  12 Li     0.000000    3.234074   11.617037    ( 0.0000,  0.0000,  0.0000)
  13 Li     3.234074    3.234074   11.617037    ( 0.0000,  0.0000,  0.0000)
  14 Li     6.468148    3.234074   11.617037    ( 0.0000,  0.0000,  0.0000)
  15 Li     0.000000    6.468148   11.617037    ( 0.0000,  0.0000,  0.0000)
  16 Li     3.234074    6.468148   11.617037    ( 0.0000,  0.0000,  0.0000)
  17 Li     6.468148    6.468148   11.617037    ( 0.0000,  0.0000,  0.0000)
  18 Li     1.546679    1.626850   13.613134    ( 0.0000,  0.0000,  0.0000)
  19 Li     4.820558    1.602757   13.534258    ( 0.0000,  0.0000,  0.0000)
  20 Li     8.110546    1.612008   13.593707    ( 0.0000,  0.0000,  0.0000)
  21 Li     1.637856    4.943645   13.485804    ( 0.0000,  0.0000,  0.0000)
  22 Li     4.858077    4.855568   13.505310    ( 0.0000,  0.0000,  0.0000)
  23 Li     8.056410    4.949553   13.484950    ( 0.0000,  0.0000,  0.0000)
  24 Li     1.589703    8.187973   13.563026    ( 0.0000,  0.0000,  0.0000)
  25 Li     4.825457    8.067854   13.522220    ( 0.0000,  0.0000,  0.0000)
  26 Li     8.116426    8.218508   13.601154    ( 0.0000,  0.0000,  0.0000)
  27 Li    -0.094358    0.505656   16.148639    ( 0.0000,  0.0000,  0.0000)
  28 Li     3.199018   -0.017062   15.525541    ( 0.0000,  0.0000,  0.0000)
  29 Li     6.354199   -0.042422   15.503454    ( 0.0000,  0.0000,  0.0000)
  30 Li    -0.025124    3.604742   15.401032    ( 0.0000,  0.0000,  0.0000)
  31 Li     3.209835    3.257169   15.471793    ( 0.0000,  0.0000,  0.0000)
  32 Li     6.462213    3.233721   15.473317    ( 0.0000,  0.0000,  0.0000)
  33 Li     0.007921    6.739797   15.515685    ( 0.0000,  0.0000,  0.0000)
  34 Li     3.237084    6.459684   15.499692    ( 0.0000,  0.0000,  0.0000)
  35 Li     6.472172    6.454444   15.491542    ( 0.0000,  0.0000,  0.0000)
  36 O      0.176147    1.096140   18.000895    ( 0.0000,  0.0000,  0.0000)
  37 C      0.035565    1.410627   20.466231    ( 0.0000,  0.0000,  0.0000)
  38 C     -0.040024    0.727378   21.840255    ( 0.0000,  0.0000,  0.0000)
  39 C      0.089246    0.429550   19.297259    ( 0.0000,  0.0000,  0.0000)
  40 C     -0.046236    1.730885   22.998434    ( 0.0000,  0.0000,  0.0000)
  41 H     -0.827646    2.066523   20.329971    ( 0.0000,  0.0000,  0.0000)
  42 H      0.926105    2.051796   20.436138    ( 0.0000,  0.0000,  0.0000)
  43 H      0.806899    0.041811   21.949138    ( 0.0000,  0.0000,  0.0000)
  44 H     -0.938821    0.103009   21.889223    ( 0.0000,  0.0000,  0.0000)
  45 H      0.941431   -0.250462   19.407668    ( 0.0000,  0.0000,  0.0000)
  46 H     -0.819966   -0.173162   19.236759    ( 0.0000,  0.0000,  0.0000)
  47 H      0.855154    2.350352   22.992722    ( 0.0000,  0.0000,  0.0000)
  48 H     -0.907175    2.398623   22.929867    ( 0.0000,  0.0000,  0.0000)
  49 H     -0.106929    1.226067   23.963610    ( 0.0000,  0.0000,  0.0000)
  50 H      0.935632    1.702707   18.013098    ( 0.0000,  0.0000,  0.0000)

Unit cell:
           periodic     x           y           z      points  spacing
  1. axis:    yes    9.702222    0.000000    0.000000    60     0.1617
  2. axis:    yes    0.000000    9.702222    0.000000    60     0.1617
  3. axis:    no     0.000000    0.000000   26.851111   168     0.1598

  Lengths:   9.702222   9.702222  26.851111
  Angles:   90.000000  90.000000  90.000000

Effective grid spacing dv^(1/3) = 0.1611

     iter     time        total  log10-change:
                         energy  eigst   dens
iter:   1 10:54:54  -323.694822  -2.07
iter:   2 10:59:34  -323.693401  -2.70  -2.32
iter:   3 11:04:01  -323.692484c -3.46  -2.51
iter:   4 11:07:28  -323.692218c -3.75  -2.74
Writing to output.gpw (mode='')

iter:   5 11:12:43  -323.692183c -4.02  -3.03
iter:   6 11:18:24  -323.692103c -3.41  -3.07
iter:   7 11:23:47  -323.692142c -3.57  -3.32
