
  ___ ___ ___ _ _ _  
 |   |   |_  | | | | 
 | | | | | . | | | | 
 |__ |  _|___|_____|  22.8.0
 |___|_|             

User:   vazumah@r304.ib.bridges2.psc.edu
Date:   Fri Mar 10 18:33:13 2023
Arch:   x86_64
Pid:    103318
CWD:    /jet/home/vazumah/Calcs/LiMEAS/proton_donors/propan_1_ol_z/ontop/9.702_9.702/N2_z
Python: 3.11.0
gpaw:   /jet/home/vazumah/.conda/envs/GPAW_mpich/lib/python3.11/site-packages/gpaw
_gpaw:  /jet/home/vazumah/.conda/envs/GPAW_mpich/lib/python3.11/site-packages/
        _gpaw.cpython-311-x86_64-linux-gnu.so
ase:    /jet/home/vazumah/.conda/envs/GPAW_mpich/lib/python3.11/site-packages/ase (version 3.22.1)
numpy:  /jet/home/vazumah/.conda/envs/GPAW_mpich/lib/python3.11/site-packages/numpy (version 1.24.2)
scipy:  /jet/home/vazumah/.conda/envs/GPAW_mpich/lib/python3.11/site-packages/scipy (version 1.10.1)
libxc:  5.2.3
units:  Angstrom and eV
cores: 128
OpenMP: True
OMP_NUM_THREADS: 1

Input parameters:
  h: 0.16
  kpts: {size: [4, 4, 1]}
  occupations: {name: fermi-dirac,
                width: 0.05}
  poissonsolver: {dipolelayer: xy}
  xc: BEEF-vdW

System changes: positions, numbers, cell, pbc, initial_charges, initial_magmoms 

Initialize ...

species:
  Li:
    name: Lithium
    id: 830b4218f175192f93f959cfc0aad614
    Z: 3.0
    valence: 1
    core: 2
    charge: 0.0
    file: /jet/home/vazumah/datasets/gpaw-setups-0.9.20000/Li.PBE.gz
    compensation charges: {type: gauss,
                           rc: 0.33,
                           lmax: 2}
    cutoffs: {filter: 1.91,
              core: 2.55}
    valence states:
      #              energy  rcut
      - 2s(1.00)    -2.874   1.058
      - 2p(0.00)    -1.090   1.058
      -  s          24.337   1.058
  
    # Using partial waves for Li as LCAO basis

  O:
    name: Oxygen
    id: 32ecd46bf208036f09c70b0ec9a88b78
    Z: 8.0
    valence: 6
    core: 2
    charge: 0.0
    file: /jet/home/vazumah/datasets/gpaw-setups-0.9.20000/O.PBE.gz
    compensation charges: {type: gauss,
                           rc: 0.21,
                           lmax: 2}
    cutoffs: {filter: 1.17,
              core: 0.83}
    valence states:
      #              energy  rcut
      - 2s(2.00)   -23.961   0.688
      - 2p(4.00)    -9.029   0.598
      -  s           3.251   0.688
      -  p          18.182   0.598
      -  d           0.000   0.619
  
    # Using partial waves for O as LCAO basis

  C:
    name: Carbon
    id: 4aa54d4b901d75f77cc0ea3eec22967b
    Z: 6.0
    valence: 4
    core: 2
    charge: 0.0
    file: /jet/home/vazumah/datasets/gpaw-setups-0.9.20000/C.PBE.gz
    compensation charges: {type: gauss,
                           rc: 0.20,
                           lmax: 2}
    cutoffs: {filter: 1.14,
              core: 1.14}
    valence states:
      #              energy  rcut
      - 2s(2.00)   -13.751   0.635
      - 2p(2.00)    -5.284   0.635
      -  s          13.461   0.635
      -  p          21.927   0.635
      -  d           0.000   0.635
  
    # Using partial waves for C as LCAO basis

  H:
    name: Hydrogen
    id: d65de229564ff8ea4db303e23b6d1ecf
    Z: 1.0
    valence: 1
    core: 0
    charge: 0.0
    file: /jet/home/vazumah/datasets/gpaw-setups-0.9.20000/H.PBE.gz
    compensation charges: {type: gauss,
                           rc: 0.15,
                           lmax: 2}
    cutoffs: {filter: 0.85,
              core: 0.53}
    valence states:
      #              energy  rcut
      - 1s(1.00)    -6.494   0.476
      -  s          20.717   0.476
      -  p           0.000   0.476
  
    # Using partial waves for H as LCAO basis

  N:
    name: Nitrogen
    id: f7500608b86eaa90eef8b1d9a670dc53
    Z: 7.0
    valence: 5
    core: 2
    charge: 0.0
    file: /jet/home/vazumah/datasets/gpaw-setups-0.9.20000/N.PBE.gz
    compensation charges: {type: gauss,
                           rc: 0.18,
                           lmax: 2}
    cutoffs: {filter: 1.11,
              core: 0.96}
    valence states:
      #              energy  rcut
      - 2s(2.00)   -18.583   0.603
      - 2p(3.00)    -7.089   0.529
      -  s           8.629   0.603
      -  p          20.123   0.529
      -  d           0.000   0.577
  
    # Using partial waves for N as LCAO basis

Reference energy: -15487.462483  # eV

Spin-paired calculation

Convergence criteria:
 Maximum [total energy] change in last 3 cyles: 0.0005 eV / electron
 Maximum integral of absolute [dens]ity change: 0.0001 electrons / valence electron
 Maximum integral of absolute [eigenst]ate change: 4e-08 eV^2 / valence electron
 Maximum number of scf [iter]ations: 333
 (Square brackets indicate name in SCF output, whereas a 'c' in
 the SCF output indicates the quantity has converged.)

Symmetries present (total): 1

  ( 1  0  0)
  ( 0  1  0)
  ( 0  0  1)

16 k-points: 4 x 4 x 1 Monkhorst-Pack grid
8 k-points in the irreducible part of the Brillouin zone
       k-points in crystal coordinates                weights
   0:     0.12500000   -0.37500000    0.00000000          2/16
   1:     0.12500000   -0.12500000    0.00000000          2/16
   2:     0.12500000    0.12500000    0.00000000          2/16
   3:     0.12500000    0.37500000    0.00000000          2/16
   4:     0.37500000   -0.37500000    0.00000000          2/16
   5:     0.37500000   -0.12500000    0.00000000          2/16
   6:     0.37500000    0.12500000    0.00000000          2/16
   7:     0.37500000    0.37500000    0.00000000          2/16

Wave functions: Uniform real-space grid
  Kinetic energy operator: 6*3+1=19 point O(h^6) finite-difference Laplacian
  ScaLapack parameters: grid=1x1, blocksize=None
  Wavefunction extrapolation:
    Improved wavefunction reuse through dual PAW basis 

Occupation numbers: Fermi-Dirac:
  width: 0.0500  # eV
 

Eigensolver
   Davidson(niter=2) 

Densities:
  Coarse grid: 60*60*168 grid
  Fine grid: 120*120*336 grid
  Total Charge: 0.000000 

Density mixing:
  Method: separate
  Backend: pulay
  Linear mixing parameter: 0.05
  old densities: 5
  Damping of long wavelength oscillations: 50 

Hamiltonian:
  XC and Coulomb potentials evaluated on a 120*120*336 grid
  Using the BEEF-vdW Exchange-Correlation functional
  Interpolation: tri-quintic (5. degree polynomial)
  Poisson solver: FastPoissonSolver using
    Stencil: 6*3+1=19 point O(h^6) finite-difference Laplacian
    FFT axes: [0, 1]
    FST axes: [2]

Dipole correction along z-axis 

XC parameters: BEEF-vdW with 2 nearest neighbor stencil

Memory estimate:
  Process memory now: 129.54 MiB
  Calculator: 86.79 MiB
    Density: 23.03 MiB
      Arrays: 7.40 MiB
      Localized functions: 12.82 MiB
      Mixer: 2.82 MiB
    Hamiltonian: 5.85 MiB
      Arrays: 4.84 MiB
      XC: 0.00 MiB
      Poisson: 0.00 MiB
      vbar: 1.01 MiB
    Wavefunctions: 57.90 MiB
      Arrays psit_nG: 27.03 MiB
      Eigensolver: 30.19 MiB
      Projections: 0.01 MiB
      Projectors: 0.67 MiB

Total number of cores used: 128
Parallelization over k-points: 8
Domain decomposition: 2 x 2 x 4

Number of atoms: 50
Number of atomic orbitals: 176
Number of bands in calculation: 48
Number of valence electrons: 72
Bands to converge: occupied

... initialized

Initializing position-dependent things.

Density initialized from atomic densities
Creating initial wave functions:
  48 bands from LCAO basis set

       .-----------------------.  
      /|                       |  
     / |                       |  
    /  |                       H  
   /   |                       |  
  /    |                       |  
 *     C H                  H  |  
 |     |                       |  
 |     |                       |  
 |  H  | H             H       |  
 |     |                 C     N  
 |     |                       |  
 |  H  |                H      N  
 C     |                       |  
 |     |                       |  
 O     |                       |  
 |   Li|     Li      Li        |  
 |     |  Li      Li      Li   |  
 | Li  |   Li      Li          |  
 |     |Li      Li      Li     |  
 Li    | Li      Li            |  
 |   LLi     LLi     LLi       |  
 |     |  Li      Li      Li   |  
 | Li  |   Li      Li          |  
 |     |Li      Li      Li     |  
 Li    | Li      Li            |  
 |    Li      Li      Li       |  
 |     |                       |  
 |     |                       |  
 |     |                       |  
 |     |                       |  
 |     |                       |  
 |     |                       |  
 |     .-----------------------.  
 |    /                       /   
 |   /                       /    
 |  /                       /     
 | /                       /      
 |/                       /       
 *-----------------------*        

Positions:
   0 Li     1.617037    1.617037   10.000000    ( 0.0000,  0.0000,  0.0000)
   1 Li     4.851111    1.617037   10.000000    ( 0.0000,  0.0000,  0.0000)
   2 Li     8.085185    1.617037   10.000000    ( 0.0000,  0.0000,  0.0000)
   3 Li     1.617037    4.851111   10.000000    ( 0.0000,  0.0000,  0.0000)
   4 Li     4.851111    4.851111   10.000000    ( 0.0000,  0.0000,  0.0000)
   5 Li     8.085185    4.851111   10.000000    ( 0.0000,  0.0000,  0.0000)
   6 Li     1.617037    8.085185   10.000000    ( 0.0000,  0.0000,  0.0000)
   7 Li     4.851111    8.085185   10.000000    ( 0.0000,  0.0000,  0.0000)
   8 Li     8.085185    8.085185   10.000000    ( 0.0000,  0.0000,  0.0000)
   9 Li     0.000000    0.000000   11.617037    ( 0.0000,  0.0000,  0.0000)
  10 Li     3.234074    0.000000   11.617037    ( 0.0000,  0.0000,  0.0000)
  11 Li     6.468148    0.000000   11.617037    ( 0.0000,  0.0000,  0.0000)
  12 Li     0.000000    3.234074   11.617037    ( 0.0000,  0.0000,  0.0000)
  13 Li     3.234074    3.234074   11.617037    ( 0.0000,  0.0000,  0.0000)
  14 Li     6.468148    3.234074   11.617037    ( 0.0000,  0.0000,  0.0000)
  15 Li     0.000000    6.468148   11.617037    ( 0.0000,  0.0000,  0.0000)
  16 Li     3.234074    6.468148   11.617037    ( 0.0000,  0.0000,  0.0000)
  17 Li     6.468148    6.468148   11.617037    ( 0.0000,  0.0000,  0.0000)
  18 Li     1.617038    1.617038   13.469728    ( 0.0000,  0.0000,  0.0000)
  19 Li     4.851111    1.617038   13.469729    ( 0.0000,  0.0000,  0.0000)
  20 Li     8.085184    1.617038   13.469728    ( 0.0000,  0.0000,  0.0000)
  21 Li     1.617038    4.851111   13.469729    ( 0.0000,  0.0000,  0.0000)
  22 Li     4.851111    4.851111   13.469730    ( 0.0000,  0.0000,  0.0000)
  23 Li     8.085184    4.851111   13.469729    ( 0.0000,  0.0000,  0.0000)
  24 Li     1.617038    8.085184   13.469728    ( 0.0000,  0.0000,  0.0000)
  25 Li     4.851111    8.085184   13.469729    ( 0.0000,  0.0000,  0.0000)
  26 Li     8.085184    8.085184   13.469728    ( 0.0000,  0.0000,  0.0000)
  27 Li    -0.000000   -0.000000   15.445939    ( 0.0000,  0.0000,  0.0000)
  28 Li     3.234074    0.000000   15.445939    ( 0.0000,  0.0000,  0.0000)
  29 Li     6.468148    0.000000   15.445939    ( 0.0000,  0.0000,  0.0000)
  30 Li     0.000000    3.234074   15.445939    ( 0.0000,  0.0000,  0.0000)
  31 Li     3.234076    3.234076   15.445938    ( 0.0000,  0.0000,  0.0000)
  32 Li     6.468146    3.234076   15.445938    ( 0.0000,  0.0000,  0.0000)
  33 Li     0.000000    6.468148   15.445939    ( 0.0000,  0.0000,  0.0000)
  34 Li     3.234076    6.468146   15.445938    ( 0.0000,  0.0000,  0.0000)
  35 Li     6.468146    6.468146   15.445938    ( 0.0000,  0.0000,  0.0000)
  36 O      9.702222    9.702222   19.645939    ( 0.0000,  0.0000,  0.0000)
  37 C      9.702352    9.314601   22.080188    ( 0.0000,  0.0000,  0.0000)
  38 C      9.712905   10.325011   20.937999    ( 0.0000,  0.0000,  0.0000)
  39 C      9.695991    9.977014   23.460523    ( 0.0000,  0.0000,  0.0000)
  40 H      8.825051    8.671752   21.961575    ( 0.0000,  0.0000,  0.0000)
  41 H     10.588031    8.672843   21.986274    ( 0.0000,  0.0000,  0.0000)
  42 H      8.813013   10.944954   20.961807    ( 0.0000,  0.0000,  0.0000)
  43 H     10.580679   10.991914   21.031582    ( 0.0000,  0.0000,  0.0000)
  44 H      8.810312   10.603094   23.594060    ( 0.0000,  0.0000,  0.0000)
  45 H      9.695185    9.232239   24.257805    ( 0.0000,  0.0000,  0.0000)
  46 H     10.574252   10.612530   23.602072    ( 0.0000,  0.0000,  0.0000)
  47 H     10.473534    9.124664   19.597178    ( 0.0000,  0.0000,  0.0000)
  48 N      9.702000    9.702000   17.195939    ( 0.0000,  0.0000,  0.0000)
  49 N      9.702000    9.702000   18.292561    ( 0.0000,  0.0000,  0.0000)

Unit cell:
           periodic     x           y           z      points  spacing
  1. axis:    yes    9.702222    0.000000    0.000000    60     0.1617
  2. axis:    yes    0.000000    9.702222    0.000000    60     0.1617
  3. axis:    no     0.000000    0.000000   26.601111   168     0.1583

  Lengths:   9.702222   9.702222  26.601111
  Angles:   90.000000  90.000000  90.000000

Effective grid spacing dv^(1/3) = 0.1606

     iter     time        total  log10-change:
                         energy  eigst   dens
iter:   1 18:33:29  -778.789084
iter:   2 18:33:36   152.322784  +2.65  +0.06
iter:   3 18:33:44   475.833427  +3.32  -0.07
iter:   4 18:33:51    50.343634  +3.62  -0.11
Writing to output.gpw (mode='')

iter:   5 18:33:59  -190.013991  +3.17  -0.12
iter:   6 18:34:06  -306.656015  +2.88  -0.29
iter:   7 18:34:13  -382.677734  +2.58  -0.42
iter:   8 18:34:21  -457.527905  +2.49  -0.38
iter:   9 18:34:28  -736.796799  +2.93  -0.28
Writing to output.gpw (mode='')

iter:  10 18:34:36  -428.254598  +1.81  -0.11
iter:  11 18:34:49  -314.412953  +2.07  -0.26
iter:  12 18:34:56  -337.863262  +1.50  -0.75
iter:  13 18:35:04  -327.494846  +1.85  -0.62
iter:  14 18:35:11  -329.523505  +1.30  -0.75
Writing to output.gpw (mode='')

iter:  15 18:35:18  -328.247945  +1.15  -0.75
iter:  16 18:35:26  -326.373003  +1.63  -0.72
iter:  17 18:35:33  -326.710546  +1.31  -0.91
iter:  18 18:35:41  -325.797990  +0.81  -0.89
iter:  19 18:35:48  -327.894527  +0.66  -0.92
Writing to output.gpw (mode='')

iter:  20 18:35:58  -326.481359  +0.35  -0.86
iter:  21 18:36:06  -325.746715  +0.14  -0.88
iter:  22 18:36:13  -330.280576  +1.02  -0.92
iter:  23 18:36:21  -324.729516  +0.58  -0.82
iter:  24 18:36:28  -324.589721  -0.15  -1.26
Writing to output.gpw (mode='')

iter:  25 18:36:35  -324.692467  -0.32  -1.29
iter:  26 18:36:43  -324.485790  -0.41  -1.25
iter:  27 18:36:50  -324.359643  -0.12  -1.33
iter:  28 18:36:58  -324.574869  -0.18  -1.44
iter:  29 18:37:05  -324.391427  -0.55  -1.37
Writing to output.gpw (mode='')

iter:  30 18:37:12  -324.364606  -0.86  -1.59
iter:  31 18:37:20  -324.372545c -0.82  -1.75
iter:  32 18:37:27  -324.372635c -1.30  -1.82
iter:  33 18:37:35  -324.379544c -1.30  -1.87
iter:  34 18:37:42  -324.385265c -1.30  -1.92
Writing to output.gpw (mode='')

iter:  35 18:37:49  -324.389079c -1.55  -2.18
iter:  36 18:37:57  -324.391975c -1.64  -2.22
iter:  37 18:38:04  -324.394884c -1.64  -2.25
iter:  38 18:38:12  -324.394297c -1.81  -2.34
iter:  39 18:38:24  -324.395283c -1.97  -2.51
Writing to output.gpw (mode='')

iter:  40 18:38:35  -324.396958c -1.91  -2.61
iter:  41 18:38:43  -324.399108c -1.95  -2.68
iter:  42 18:38:50  -324.400430c -2.19  -2.81
iter:  43 18:38:57  -324.401559c -2.35  -2.89
iter:  44 18:39:05  -324.402776c -2.29  -2.95
Writing to output.gpw (mode='')

iter:  45 18:39:12  -324.403656c -2.39  -3.02
iter:  46 18:39:20  -324.404419c -2.47  -3.13
iter:  47 18:39:27  -324.404948c -2.62  -3.26
iter:  48 18:39:34  -324.405392c -2.74  -3.31
iter:  49 18:39:47  -324.405712c -2.89  -3.34
Writing to output.gpw (mode='')

iter:  50 18:39:54  -324.406071c -2.80  -3.32
iter:  51 18:40:01  -324.406350c -2.87  -3.23
iter:  52 18:40:09  -324.406624c -2.88  -3.21
iter:  53 18:40:16  -324.406819c -2.96  -3.18
iter:  54 18:40:24  -324.406963c -3.07  -3.16
Writing to output.gpw (mode='')

iter:  55 18:40:31  -324.407094c -2.97  -3.21
iter:  56 18:40:39  -324.407206c -3.45  -3.23
iter:  57 18:40:46  -324.407346c -3.53  -3.12
iter:  58 18:40:54  -324.407394c -3.65  -3.30
iter:  59 18:41:01  -324.407446c -3.38  -3.25
Writing to output.gpw (mode='')

iter:  60 18:41:09  -324.407473c -3.27  -3.34
iter:  61 18:41:16  -324.407510c -3.45  -3.42
iter:  62 18:41:24  -324.407548c -3.65  -3.47
iter:  63 18:41:31  -324.407572c -3.71  -3.64
iter:  64 18:41:38  -324.407592c -3.63  -3.81
Writing to output.gpw (mode='')

iter:  65 18:41:46  -324.407608c -3.86  -3.89
iter:  66 18:41:53  -324.407617c -3.74  -3.97
iter:  67 18:42:01  -324.407621c -3.84  -4.01c
iter:  68 18:42:08  -324.407629c -4.01  -4.18c
iter:  69 18:42:15  -324.407634c -4.03  -4.21c
Writing to output.gpw (mode='')

iter:  70 18:42:23  -324.407639c -4.12  -4.26c
iter:  71 18:42:30  -324.407640c -4.25  -4.30c
iter:  72 18:42:38  -324.407644c -4.27  -4.41c
iter:  73 18:42:45  -324.407646c -4.28  -4.47c
iter:  74 18:42:52  -324.407649c -4.18  -4.51c
Writing to output.gpw (mode='')

iter:  75 18:43:00  -324.407649c -4.38  -4.52c
iter:  76 18:43:07  -324.407650c -4.58  -4.53c
iter:  77 18:43:15  -324.407650c -4.47  -4.51c
iter:  78 18:43:22  -324.407650c -4.77  -4.44c
iter:  79 18:43:29  -324.407650c -4.79  -4.40c
Writing to output.gpw (mode='')

iter:  80 18:43:37  -324.407650c -4.64  -4.48c
iter:  81 18:43:44  -324.407650c -4.87  -4.55c
iter:  82 18:43:51  -324.407648c -4.98  -4.46c
iter:  83 18:43:59  -324.407648c -4.98  -4.75c
iter:  84 18:44:06  -324.407648c -4.94  -4.81c
Writing to output.gpw (mode='')

iter:  85 18:44:14  -324.407647c -4.95  -4.81c
iter:  86 18:44:21  -324.407647c -5.17  -4.83c
iter:  87 18:44:29  -324.407647c -5.19  -4.91c
iter:  88 18:44:38  -324.407647c -5.22  -4.95c
iter:  89 18:44:50  -324.407646c -5.27  -4.99c
Writing to output.gpw (mode='')

iter:  90 18:44:58  -324.407646c -5.26  -4.99c
iter:  91 18:45:05  -324.407646c -5.46  -4.91c
iter:  92 18:45:13  -324.407645c -5.40  -5.04c
iter:  93 18:45:20  -324.407645c -5.54  -5.28c
iter:  94 18:45:28  -324.407644c -5.50  -5.25c
Writing to output.gpw (mode='')

iter:  95 18:45:35  -324.407644c -5.48  -5.32c
iter:  96 18:45:42  -324.407644c -5.64  -5.47c
iter:  97 18:45:50  -324.407643c -5.54  -5.46c
iter:  98 18:45:57  -324.407643c -5.60  -5.63c
iter:  99 18:46:05  -324.407643c -5.67  -5.63c
Writing to output.gpw (mode='')

iter: 100 18:46:12  -324.407643c -5.82  -5.57c
iter: 101 18:46:19  -324.407643c -5.84  -5.48c
iter: 102 18:46:27  -324.407642c -5.83  -5.38c
iter: 103 18:46:34  -324.407642c -5.92  -5.35c
iter: 104 18:46:41  -324.407642c -5.91  -5.41c
Writing to output.gpw (mode='')

iter: 105 18:46:49  -324.407642c -6.01  -5.48c
iter: 106 18:46:56  -324.407642c -6.03  -5.37c
iter: 107 18:47:04  -324.407641c -6.16  -5.40c
iter: 108 18:47:11  -324.407641c -6.12  -5.45c
iter: 109 18:47:19  -324.407641c -6.22  -5.42c
Writing to output.gpw (mode='')

iter: 110 18:47:26  -324.407641c -6.33  -5.39c
iter: 111 18:47:34  -324.407641c -6.31  -5.32c
iter: 112 18:47:41  -324.407641c -6.35  -5.38c
iter: 113 18:47:48  -324.407641c -6.32  -5.42c
iter: 114 18:47:56  -324.407641c -6.44  -5.45c
Writing to output.gpw (mode='')

iter: 115 18:48:03  -324.407641c -6.48  -5.47c
iter: 116 18:48:11  -324.407640c -6.52  -5.62c
iter: 117 18:48:18  -324.407641c -6.62  -5.66c
iter: 118 18:48:25  -324.407640c -6.64  -5.69c
iter: 119 18:48:33  -324.407640c -6.74  -5.57c
Writing to output.gpw (mode='')

iter: 120 18:48:40  -324.407640c -6.75  -5.79c
iter: 121 18:48:48  -324.407640c -6.76  -5.82c
iter: 122 18:48:55  -324.407640c -6.82  -5.90c
iter: 123 18:49:02  -324.407640c -6.84  -6.16c
iter: 124 18:49:10  -324.407640c -6.89  -6.19c
Writing to output.gpw (mode='')

iter: 125 18:49:17  -324.407640c -6.96  -6.15c
iter: 126 18:49:25  -324.407640c -6.91  -6.17c
iter: 127 18:49:32  -324.407640c -6.97  -6.16c
iter: 128 18:49:45  -324.407640c -6.87  -6.03c
iter: 129 18:49:53  -324.407640c -6.97  -6.08c
Writing to output.gpw (mode='')

iter: 130 18:50:00  -324.407640c -7.08  -6.13c
iter: 131 18:50:08  -324.407640c -7.13  -6.30c
iter: 132 18:50:15  -324.407640c -7.14  -6.37c
iter: 133 18:50:22  -324.407640c -7.32  -6.43c
iter: 134 18:50:30  -324.407640c -7.40  -6.68c
Writing to output.gpw (mode='')

iter: 135 18:50:37  -324.407640c -7.33  -6.73c
iter: 136 18:50:44  -324.407640c -7.37  -6.73c
iter: 137 18:50:52  -324.407640c -7.36  -6.75c
iter: 138 18:50:59  -324.407640c -7.55c -6.78c

Converged after 138 iterations.

Dipole moment: (-26.136721, -16.994700, 0.501450) |e|*Ang

Energy contributions relative to reference atoms: (reference = -15487.462483)

Kinetic:       +208.177570
Potential:     -190.488303
External:        +0.000000
XC:            -342.747302
Entropy (-ST):   -0.150258
Local:           +0.725525
--------------------------
Free energy:   -324.482769
Extrapolated:  -324.407640

Dipole-layer corrected work functions: 3.388825, 2.424866 eV

Showing only first 2 kpts
 Kpt  Band  Eigenvalues  Occupancy
  0    34     -3.14319    1.98245
  0    35     -3.05711    1.90563
  0    36     -2.74086    0.06981
  0    37     -2.68037    0.02134

  1    34     -2.94543    1.36781
  1    35     -2.90207    0.95228
  1    36     -2.88235    0.75982
  1    37     -2.81182    0.26010


Fermi level: -2.90685

No gap
Writing to output.gpw (mode='')


Forces in eV/Ang:
  0 Li    0.01133    0.00562   -0.26833
  1 Li   -0.00012    0.00057   -0.26942
  2 Li   -0.01130    0.00840   -0.26834
  3 Li   -0.00054    0.00533   -0.27070
  4 Li    0.00119   -0.00094   -0.28789
  5 Li   -0.00068    0.00349   -0.27103
  6 Li    0.00742   -0.00987   -0.27060
  7 Li   -0.00199    0.00065   -0.27178
  8 Li   -0.00601   -0.01123   -0.26900
  9 Li   -0.00170    0.00451    0.31638
 10 Li    0.01493   -0.00172    0.25872
 11 Li   -0.01303   -0.00043    0.26325
 12 Li   -0.00040    0.00912    0.27008
 13 Li    0.00688    0.00097    0.25618
 14 Li   -0.00693    0.00495    0.25725
 15 Li    0.00112   -0.01388    0.25329
 16 Li   -0.00353   -0.00113    0.26090
 17 Li    0.00366   -0.00482    0.25534
 18 Li    0.01125    0.00381   -0.01060
 19 Li    0.00018   -0.00160    0.04635
 20 Li   -0.00906    0.00346   -0.00682
 21 Li   -0.00188   -0.00888    0.04225
 22 Li   -0.00144    0.00296    0.03293
 23 Li    0.00339   -0.00317    0.04573
 24 Li   -0.00580    0.00360    0.02122
 25 Li    0.00589   -0.00184    0.03988
 26 Li   -0.00028   -0.00439    0.00206
 27 Li   -0.00538    0.01566   -1.63332
 28 Li    0.01635   -0.00852   -0.01921
 29 Li   -0.01556    0.00193   -0.01948
 30 Li   -0.00308    0.00112   -0.01402
 31 Li    0.01376    0.00723   -0.02984
 32 Li   -0.01330    0.01005   -0.03076
 33 Li    0.00713   -0.01029   -0.01330
 34 Li   -0.00487    0.00323   -0.01755
 35 Li   -0.00231   -0.00742   -0.02587
 36 O     0.02369    0.50158   14.37462
 37 C    -0.00480    0.21793    0.09338
 38 C    -0.32237    2.60133    5.83659
 39 C    -0.02791   -0.03640    0.16045
 40 H     0.00607   -0.06841    0.06218
 41 H    -0.04122   -0.02696    0.05262
 42 H     0.00060   -0.01255    0.02774
 43 H    -0.05728   -0.06209   -0.11255
 44 H    -0.00161   -0.00914   -0.03881
 45 H     0.00898   -0.05373    0.03598
 46 H    -0.00234   -0.03082   -0.04739
 47 H     0.38639   -0.62342    0.69007
 48 N    -1.19705    3.26721   -5.59855
 49 N     1.24867   -5.72193  -13.90425

System changes: positions 

Initializing position-dependent things.

Density initialized from wave functions
       .-----------------------.  
      /|                       |  
     / |                       |  
    /  |                       H  
   /   |                       |  
  /    |                       |  
 *     C H                  H  |  
 |     |                       |  
 |     |                       |  
 |  H  | H             H       |  
 |     N                 C     |  
 |     |                       |  
 |  H  |                H      |  
 C     |                       |  
 |     |       Li              |  
 O     |                       |  
 |   Li|     Li      Li        |  
 |     |  Li      Li      Li   |  
 |     |   Li      Li    N Li  |  
 |     |Li      Li      Li     |  
 |     |         Li      Li    |  
 |   LLi     LLi     LLi       |  
 |     |  Li      Li      Li   |  
 | Li  |   Li      Li          |  
 |     |Li      Li      Li     |  
 Li    | Li      Li            |  
 |    Li      Li      Li       |  
 |     |                       |  
 |     |                       |  
 |     |                       |  
 |     |                       |  
 |     |                       |  
 |     |                       |  
 |     .-----------------------.  
 |    /                       /   
 |   /                       /    
 |  /                       /     
 | /                       /      
 |/                       /       
 *-----------------------*        

Positions:
   0 Li     1.617037    1.617037   10.000000    ( 0.0000,  0.0000,  0.0000)
   1 Li     4.851111    1.617037   10.000000    ( 0.0000,  0.0000,  0.0000)
   2 Li     8.085185    1.617037   10.000000    ( 0.0000,  0.0000,  0.0000)
   3 Li     1.617037    4.851111   10.000000    ( 0.0000,  0.0000,  0.0000)
   4 Li     4.851111    4.851111   10.000000    ( 0.0000,  0.0000,  0.0000)
   5 Li     8.085185    4.851111   10.000000    ( 0.0000,  0.0000,  0.0000)
   6 Li     1.617037    8.085185   10.000000    ( 0.0000,  0.0000,  0.0000)
   7 Li     4.851111    8.085185   10.000000    ( 0.0000,  0.0000,  0.0000)
   8 Li     8.085185    8.085185   10.000000    ( 0.0000,  0.0000,  0.0000)
   9 Li     0.000000    0.000000   11.617037    ( 0.0000,  0.0000,  0.0000)
  10 Li     3.234074    0.000000   11.617037    ( 0.0000,  0.0000,  0.0000)
  11 Li     6.468148    0.000000   11.617037    ( 0.0000,  0.0000,  0.0000)
  12 Li     0.000000    3.234074   11.617037    ( 0.0000,  0.0000,  0.0000)
  13 Li     3.234074    3.234074   11.617037    ( 0.0000,  0.0000,  0.0000)
  14 Li     6.468148    3.234074   11.617037    ( 0.0000,  0.0000,  0.0000)
  15 Li     0.000000    6.468148   11.617037    ( 0.0000,  0.0000,  0.0000)
  16 Li     3.234074    6.468148   11.617037    ( 0.0000,  0.0000,  0.0000)
  17 Li     6.468148    6.468148   11.617037    ( 0.0000,  0.0000,  0.0000)
  18 Li     1.617068    1.617048   13.469700    ( 0.0000,  0.0000,  0.0000)
  19 Li     4.851111    1.617034   13.469852    ( 0.0000,  0.0000,  0.0000)
  20 Li     8.085160    1.617047   13.469710    ( 0.0000,  0.0000,  0.0000)
  21 Li     1.617033    4.851087   13.469841    ( 0.0000,  0.0000,  0.0000)
  22 Li     4.851107    4.851119   13.469818    ( 0.0000,  0.0000,  0.0000)
  23 Li     8.085193    4.851103   13.469851    ( 0.0000,  0.0000,  0.0000)
  24 Li     1.617023    8.085193   13.469784    ( 0.0000,  0.0000,  0.0000)
  25 Li     4.851127    8.085179   13.469835    ( 0.0000,  0.0000,  0.0000)
  26 Li     8.085183    8.085172   13.469733    ( 0.0000,  0.0000,  0.0000)
  27 Li    -0.000014    0.000042   15.441609    ( 0.0000,  0.0000,  0.0000)
  28 Li     3.234117   -0.000023   15.445888    ( 0.0000,  0.0000,  0.0000)
  29 Li     6.468107    0.000005   15.445887    ( 0.0000,  0.0000,  0.0000)
  30 Li    -0.000008    3.234077   15.445902    ( 0.0000,  0.0000,  0.0000)
  31 Li     3.234113    3.234096   15.445859    ( 0.0000,  0.0000,  0.0000)
  32 Li     6.468110    3.234103   15.445857    ( 0.0000,  0.0000,  0.0000)
  33 Li     0.000019    6.468121   15.445904    ( 0.0000,  0.0000,  0.0000)
  34 Li     3.234064    6.468154   15.445892    ( 0.0000,  0.0000,  0.0000)
  35 Li     6.468139    6.468126   15.445869    ( 0.0000,  0.0000,  0.0000)
  36 O      9.702285    9.703552   19.684050    ( 0.0000,  0.0000,  0.0000)
  37 C      9.702339    9.315179   22.080436    ( 0.0000,  0.0000,  0.0000)
  38 C      9.712050   10.331908   20.953474    ( 0.0000,  0.0000,  0.0000)
  39 C      9.695917    9.976918   23.460949    ( 0.0000,  0.0000,  0.0000)
  40 H      8.825067    8.671570   21.961740    ( 0.0000,  0.0000,  0.0000)
  41 H     10.587922    8.672772   21.986413    ( 0.0000,  0.0000,  0.0000)
  42 H      8.813015   10.944921   20.961880    ( 0.0000,  0.0000,  0.0000)
  43 H     10.580527   10.991749   21.031283    ( 0.0000,  0.0000,  0.0000)
  44 H      8.810308   10.603070   23.593957    ( 0.0000,  0.0000,  0.0000)
  45 H      9.695208    9.232097   24.257900    ( 0.0000,  0.0000,  0.0000)
  46 H     10.574245   10.612449   23.601947    ( 0.0000,  0.0000,  0.0000)
  47 H     10.474558    9.123011   19.599007    ( 0.0000,  0.0000,  0.0000)
  48 N      9.698826    9.710662   17.181096    ( 0.0000,  0.0000,  0.0000)
  49 N      9.705311    9.686830   18.255698    ( 0.0000,  0.0000,  0.0000)

Unit cell:
           periodic     x           y           z      points  spacing
  1. axis:    yes    9.702222    0.000000    0.000000    60     0.1617
  2. axis:    yes    0.000000    9.702222    0.000000    60     0.1617
  3. axis:    no     0.000000    0.000000   26.601111   168     0.1583

  Lengths:   9.702222   9.702222  26.601111
  Angles:   90.000000  90.000000  90.000000

Effective grid spacing dv^(1/3) = 0.1606

     iter     time        total  log10-change:
                         energy  eigst   dens
iter:   1 18:51:08  -326.051510  -0.47
iter:   2 18:51:16  -325.937874  -0.66  -1.47
iter:   3 18:51:23  -325.881912  -1.15  -1.60
iter:   4 18:51:31  -325.821791  -0.90  -1.90
Writing to output.gpw (mode='')

iter:   5 18:51:38  -325.829351  -1.72  -2.08
iter:   6 18:51:46  -325.830751c -1.71  -2.11
iter:   7 18:51:56  -325.813689c -1.43  -2.06
iter:   8 18:52:04  -325.808921c -2.13  -2.40
iter:   9 18:52:11  -325.807975c -2.03  -2.42
Writing to output.gpw (mode='')

iter:  10 18:52:19  -325.808024c -2.29  -2.56
iter:  11 18:52:26  -325.807760c -2.68  -2.65
iter:  12 18:52:34  -325.807853c -2.66  -2.80
iter:  13 18:52:41  -325.807716c -3.40  -2.87
iter:  14 18:52:49  -325.807542c -3.32  -2.93
Writing to output.gpw (mode='')

iter:  15 18:52:56  -325.807574c -3.79  -3.17
iter:  16 18:53:04  -325.807721c -3.63  -3.26
iter:  17 18:53:11  -325.807583c -3.57  -3.17
iter:  18 18:53:19  -325.807591c -4.23  -3.29
iter:  19 18:53:26  -325.807607c -4.31  -3.56
Writing to output.gpw (mode='')

iter:  20 18:53:34  -325.807611c -4.45  -3.67
iter:  21 18:53:41  -325.807615c -4.60  -3.69
iter:  22 18:53:49  -325.807621c -4.60  -3.66
iter:  23 18:53:56  -325.807615c -4.67  -3.65
iter:  24 18:54:04  -325.807617c -4.89  -3.72
Writing to output.gpw (mode='')

iter:  25 18:54:11  -325.807618c -4.94  -3.74
iter:  26 18:54:19  -325.807623c -4.99  -3.73
iter:  27 18:54:26  -325.807624c -5.35  -3.73
iter:  28 18:54:34  -325.807620c -5.14  -3.75
iter:  29 18:54:48  -325.807622c -5.43  -4.12c
Writing to output.gpw (mode='')

iter:  30 18:54:55  -325.807621c -5.53  -4.15c
iter:  31 18:55:03  -325.807619c -5.43  -4.19c
iter:  32 18:55:10  -325.807621c -5.55  -4.43c
iter:  33 18:55:18  -325.807622c -5.72  -4.46c
iter:  34 18:55:25  -325.807622c -5.98  -4.49c
Writing to output.gpw (mode='')

iter:  35 18:55:33  -325.807622c -6.10  -4.53c
iter:  36 18:55:40  -325.807624c -5.92  -4.64c
iter:  37 18:55:48  -325.807624c -6.31  -4.75c
iter:  38 18:55:55  -325.807623c -6.26  -4.75c
iter:  39 18:56:03  -325.807624c -6.26  -4.77c
Writing to output.gpw (mode='')

iter:  40 18:56:10  -325.807623c -6.63  -4.83c
iter:  41 18:56:17  -325.807623c -6.61  -5.04c
iter:  42 18:56:25  -325.807623c -6.57  -5.12c
iter:  43 18:56:32  -325.807623c -7.04  -5.20c
iter:  44 18:56:40  -325.807623c -7.08  -5.33c
Writing to output.gpw (mode='')

iter:  45 18:56:47  -325.807623c -7.03  -5.43c
iter:  46 18:56:55  -325.807623c -7.30  -5.57c
iter:  47 18:57:02  -325.807623c -7.15  -5.58c
iter:  48 18:57:10  -325.807623c -7.56c -5.73c

Converged after 48 iterations.

Dipole moment: (-26.103983, -16.190426, 0.479097) |e|*Ang

Energy contributions relative to reference atoms: (reference = -15487.462483)

Kinetic:       +212.853786
Potential:     -195.319487
External:        +0.000000
XC:            -343.994285
Entropy (-ST):   -0.145194
Local:           +0.724959
--------------------------
Free energy:   -325.880220
Extrapolated:  -325.807623

Dipole-layer corrected work functions: 3.386048, 2.465059 eV

Showing only first 2 kpts
 Kpt  Band  Eigenvalues  Occupancy
  0    34     -3.17392    1.98617
  0    35     -3.09803    1.93843
  0    36     -2.75229    0.06063
  0    37     -2.67990    0.01459

  1    34     -2.96279    1.35606
  1    35     -2.91593    0.90404
  1    36     -2.89931    0.74344
  1    37     -2.83537    0.28282


Fermi level: -2.92555

No gap
Writing to output.gpw (mode='')


Forces in eV/Ang:
  0 Li    0.00907    0.00553   -0.26863
  1 Li   -0.00002   -0.00049   -0.26852
  2 Li   -0.00911    0.00759   -0.26871
  3 Li   -0.00107    0.00276   -0.26923
  4 Li    0.00077   -0.00101   -0.28587
  5 Li    0.00039    0.00132   -0.26907
  6 Li    0.00678   -0.00765   -0.26927
  7 Li   -0.00148    0.00130   -0.26960
  8 Li   -0.00564   -0.00850   -0.26839
  9 Li   -0.00095    0.00323    0.31202
 10 Li    0.01412   -0.00153    0.25664
 11 Li   -0.01290   -0.00074    0.26026
 12 Li   -0.00028    0.00987    0.26418
 13 Li    0.00598    0.00221    0.25710
 14 Li   -0.00587    0.00486    0.25610
 15 Li    0.00067   -0.01376    0.25449
 16 Li   -0.00163   -0.00154    0.26001
 17 Li    0.00154   -0.00432    0.25767
 18 Li    0.00979    0.00381   -0.00610
 19 Li    0.00090   -0.00047    0.04841
 20 Li   -0.00950    0.00525   -0.00715
 21 Li   -0.00068   -0.00596    0.04564
 22 Li   -0.00081    0.00286    0.02788
 23 Li    0.00139   -0.00359    0.04812
 24 Li   -0.00198    0.00118    0.01701
 25 Li    0.00325   -0.00218    0.04333
 26 Li   -0.00118   -0.00373    0.00352
 27 Li   -0.00632    0.01989   -1.86794
 28 Li    0.03704   -0.00580   -0.04004
 29 Li   -0.03687    0.00012   -0.03611
 30 Li   -0.00097    0.03064   -0.03588
 31 Li    0.01207    0.00783   -0.03202
 32 Li   -0.01258    0.01025   -0.03352
 33 Li    0.00482   -0.03272   -0.03158
 34 Li   -0.00012   -0.00005   -0.02452
 35 Li   -0.00521   -0.00746   -0.02811
 36 O    -0.07612    1.27737   15.45295
 37 C    -0.02578    0.30298    0.49334
 38 C    -0.07018    1.26716    4.37209
 39 C    -0.01800   -0.12793    0.19348
 40 H     0.01139   -0.03286    0.02900
 41 H    -0.03204    0.00408    0.01519
 42 H    -0.13190    0.09778    0.10566
 43 H     0.06776    0.08584    0.03203
 44 H    -0.00799   -0.00617   -0.03084
 45 H     0.00716   -0.02454    0.04712
 46 H     0.00130   -0.02708   -0.03893
 47 H     0.06127   -0.21856    0.63428
 48 N    -1.13554    3.00816   -7.04251
 49 N     1.37296   -5.64894  -12.30307

System changes: positions 

Initializing position-dependent things.

Density initialized from wave functions
       .-----------------------.  
      /|                       |  
     / |                       |  
    /  |                       H  
   /   |                       |  
  /    |                       |  
 *     C H                  H  |  
 |     |                       |  
 |     |                       |  
 |  H  | H             H       |  
 |     N                 C     |  
 |     |                       |  
 |  H  |                H      |  
 C     |                       |  
 |     |       Li              |  
 |     |                 O     |  
 |   Li|     Li      Li        |  
 |     |  Li      Li      Li   |  
 |     |   Li      Li    N Li  |  
 |     |Li      Li      Li     |  
 |     |         Li      Li    |  
 |   LLi     LLi     LLi       |  
 |     |  Li      Li      Li   |  
 | Li  |   Li      Li          |  
 |     |Li      Li      Li     |  
 Li    | Li      Li            |  
 |    Li      Li      Li       |  
 |     |                       |  
 |     |                       |  
 |     |                       |  
 |     |                       |  
 |     |                       |  
 |     |                       |  
 |     .-----------------------.  
 |    /                       /   
 |   /                       /    
 |  /                       /     
 | /                       /      
 |/                       /       
 *-----------------------*        

Positions:
   0 Li     1.617037    1.617037   10.000000    ( 0.0000,  0.0000,  0.0000)
   1 Li     4.851111    1.617037   10.000000    ( 0.0000,  0.0000,  0.0000)
   2 Li     8.085185    1.617037   10.000000    ( 0.0000,  0.0000,  0.0000)
   3 Li     1.617037    4.851111   10.000000    ( 0.0000,  0.0000,  0.0000)
   4 Li     4.851111    4.851111   10.000000    ( 0.0000,  0.0000,  0.0000)
   5 Li     8.085185    4.851111   10.000000    ( 0.0000,  0.0000,  0.0000)
   6 Li     1.617037    8.085185   10.000000    ( 0.0000,  0.0000,  0.0000)
   7 Li     4.851111    8.085185   10.000000    ( 0.0000,  0.0000,  0.0000)
   8 Li     8.085185    8.085185   10.000000    ( 0.0000,  0.0000,  0.0000)
   9 Li     0.000000    0.000000   11.617037    ( 0.0000,  0.0000,  0.0000)
  10 Li     3.234074    0.000000   11.617037    ( 0.0000,  0.0000,  0.0000)
  11 Li     6.468148    0.000000   11.617037    ( 0.0000,  0.0000,  0.0000)
  12 Li     0.000000    3.234074   11.617037    ( 0.0000,  0.0000,  0.0000)
  13 Li     3.234074    3.234074   11.617037    ( 0.0000,  0.0000,  0.0000)
  14 Li     6.468148    3.234074   11.617037    ( 0.0000,  0.0000,  0.0000)
  15 Li     0.000000    6.468148   11.617037    ( 0.0000,  0.0000,  0.0000)
  16 Li     3.234074    6.468148   11.617037    ( 0.0000,  0.0000,  0.0000)
  17 Li     6.468148    6.468148   11.617037    ( 0.0000,  0.0000,  0.0000)
  18 Li     1.617094    1.617058   13.469682    ( 0.0000,  0.0000,  0.0000)
  19 Li     4.851114    1.617033   13.469978    ( 0.0000,  0.0000,  0.0000)
  20 Li     8.085135    1.617060   13.469691    ( 0.0000,  0.0000,  0.0000)
  21 Li     1.617031    4.851071   13.469959    ( 0.0000,  0.0000,  0.0000)
  22 Li     4.851105    4.851126   13.469892    ( 0.0000,  0.0000,  0.0000)
  23 Li     8.085197    4.851093   13.469975    ( 0.0000,  0.0000,  0.0000)
  24 Li     1.617016    8.085197   13.469830    ( 0.0000,  0.0000,  0.0000)
  25 Li     4.851136    8.085173   13.469947    ( 0.0000,  0.0000,  0.0000)
  26 Li     8.085180    8.085162   13.469742    ( 0.0000,  0.0000,  0.0000)
  27 Li    -0.000030    0.000092   15.436822    ( 0.0000,  0.0000,  0.0000)
  28 Li     3.234207   -0.000039   15.445790    ( 0.0000,  0.0000,  0.0000)
  29 Li     6.468018    0.000006   15.445798    ( 0.0000,  0.0000,  0.0000)
  30 Li    -0.000011    3.234147   15.445815    ( 0.0000,  0.0000,  0.0000)
  31 Li     3.234145    3.234116   15.445776    ( 0.0000,  0.0000,  0.0000)
  32 Li     6.468077    3.234130   15.445770    ( 0.0000,  0.0000,  0.0000)
  33 Li     0.000032    6.468043   15.445827    ( 0.0000,  0.0000,  0.0000)
  34 Li     3.234062    6.468155   15.445830    ( 0.0000,  0.0000,  0.0000)
  35 Li     6.468127    6.468106   15.445797    ( 0.0000,  0.0000,  0.0000)
  36 O      9.702119    9.706628   19.723931    ( 0.0000,  0.0000,  0.0000)
  37 C      9.702279    9.315940   22.081591    ( 0.0000,  0.0000,  0.0000)
  38 C      9.711786   10.335636   20.965326    ( 0.0000,  0.0000,  0.0000)
  39 C      9.695866    9.976614   23.461442    ( 0.0000,  0.0000,  0.0000)
  40 H      8.825095    8.671473   21.961826    ( 0.0000,  0.0000,  0.0000)
  41 H     10.587835    8.672772   21.986465    ( 0.0000,  0.0000,  0.0000)
  42 H      8.812714   10.945140   20.962130    ( 0.0000,  0.0000,  0.0000)
  43 H     10.580663   10.991925   21.031320    ( 0.0000,  0.0000,  0.0000)
  44 H      8.810289   10.603053   23.593874    ( 0.0000,  0.0000,  0.0000)
  45 H      9.695228    9.232024   24.258019    ( 0.0000,  0.0000,  0.0000)
  46 H     10.574248   10.612377   23.601843    ( 0.0000,  0.0000,  0.0000)
  47 H     10.474822    9.122312   19.600677    ( 0.0000,  0.0000,  0.0000)
  48 N      9.695850    9.718576   17.163227    ( 0.0000,  0.0000,  0.0000)
  49 N      9.708845    9.672101   18.223155    ( 0.0000,  0.0000,  0.0000)

Unit cell:
           periodic     x           y           z      points  spacing
  1. axis:    yes    9.702222    0.000000    0.000000    60     0.1617
  2. axis:    yes    0.000000    9.702222    0.000000    60     0.1617
  3. axis:    no     0.000000    0.000000   26.601111   168     0.1583

  Lengths:   9.702222   9.702222  26.601111
  Angles:   90.000000  90.000000  90.000000

Effective grid spacing dv^(1/3) = 0.1606

     iter     time        total  log10-change:
                         energy  eigst   dens
iter:   1 18:57:19  -327.250623  -0.64
iter:   2 18:57:26  -327.129084  -0.79  -1.48
iter:   3 18:57:34  -327.080213  -1.42  -1.64
iter:   4 18:57:41  -327.059823  -1.20  -2.01
Writing to output.gpw (mode='')

iter:   5 18:57:49  -327.054917c -1.52  -2.24
iter:   6 18:57:56  -327.052989c -1.81  -2.28
iter:   7 18:58:03  -327.052084c -1.82  -2.39
iter:   8 18:58:11  -327.052329c -2.25  -2.61
iter:   9 18:58:18  -327.052548c -2.65  -2.59
Writing to output.gpw (mode='')

iter:  10 18:58:26  -327.052205c -2.71  -2.66
iter:  11 18:58:33  -327.052379c -2.96  -2.98
iter:  12 18:58:41  -327.052420c -3.29  -3.00
iter:  13 18:58:48  -327.052428c -3.51  -3.05
iter:  14 18:58:56  -327.052444c -3.60  -3.10
Writing to output.gpw (mode='')

iter:  15 18:59:03  -327.052545c -3.60  -3.16
iter:  16 18:59:10  -327.052560c -3.87  -3.23
iter:  17 18:59:18  -327.052495c -3.89  -3.28
iter:  18 18:59:25  -327.052509c -4.54  -3.61
iter:  19 18:59:33  -327.052513c -4.66  -3.71
Writing to output.gpw (mode='')

iter:  20 18:59:47  -327.052513c -4.43  -3.76
iter:  21 18:59:55  -327.052512c -4.91  -3.89
iter:  22 19:00:02  -327.052515c -4.99  -3.96
iter:  23 19:00:10  -327.052521c -4.94  -4.05c
iter:  24 19:00:17  -327.052522c -5.25  -4.15c
Writing to output.gpw (mode='')

iter:  25 19:00:24  -327.052522c -5.34  -4.16c
iter:  26 19:00:32  -327.052522c -5.52  -4.21c
iter:  27 19:00:39  -327.052521c -5.58  -4.28c
iter:  28 19:00:47  -327.052521c -5.72  -4.49c
iter:  29 19:00:54  -327.052522c -5.72  -4.52c
Writing to output.gpw (mode='')

iter:  30 19:01:02  -327.052522c -5.77  -4.61c
iter:  31 19:01:09  -327.052523c -5.87  -4.75c
iter:  32 19:01:16  -327.052523c -6.11  -4.87c
iter:  33 19:01:24  -327.052523c -6.28  -4.98c
iter:  34 19:01:31  -327.052523c -6.18  -5.01c
Writing to output.gpw (mode='')

iter:  35 19:01:39  -327.052523c -6.30  -5.20c
iter:  36 19:01:46  -327.052523c -6.37  -5.18c
iter:  37 19:01:54  -327.052524c -6.43  -5.29c
iter:  38 19:02:01  -327.052524c -6.72  -5.27c
iter:  39 19:02:09  -327.052524c -6.76  -5.33c
Writing to output.gpw (mode='')

iter:  40 19:02:16  -327.052524c -6.80  -5.38c
iter:  41 19:02:24  -327.052524c -7.03  -5.49c
iter:  42 19:02:31  -327.052524c -7.12  -5.53c
iter:  43 19:02:38  -327.052524c -7.24  -5.81c
iter:  44 19:02:46  -327.052524c -7.29  -5.73c
Writing to output.gpw (mode='')

iter:  45 19:02:53  -327.052524c -7.25  -5.79c
iter:  46 19:03:01  -327.052524c -7.44c -5.71c

Converged after 46 iterations.

Dipole moment: (-26.136626, -15.522335, 0.478973) |e|*Ang

Energy contributions relative to reference atoms: (reference = -15487.462483)

Kinetic:       +213.896559
Potential:     -196.893494
External:        +0.000000
XC:            -344.717067
Entropy (-ST):   -0.144971
Local:           +0.733963
--------------------------
Free energy:   -327.125009
Extrapolated:  -327.052524

Dipole-layer corrected work functions: 3.383122, 2.462371 eV

Showing only first 2 kpts
 Kpt  Band  Eigenvalues  Occupancy
  0    34     -3.17298    1.98668
  0    35     -3.09741    1.94099
  0    36     -2.74910    0.06019
  0    37     -2.67399    0.01372

  1    34     -2.96019    1.35785
  1    35     -2.91210    0.89395
  1    36     -2.89625    0.74110
  1    37     -2.83551    0.29740


Fermi level: -2.92275

No gap
Writing to output.gpw (mode='')


Forces in eV/Ang:
  0 Li    0.00790    0.00552   -0.26873
  1 Li   -0.00004   -0.00108   -0.26811
  2 Li   -0.00793    0.00710   -0.26877
  3 Li   -0.00138    0.00163   -0.26872
  4 Li    0.00063   -0.00076   -0.28460
  5 Li    0.00092    0.00062   -0.26837
  6 Li    0.00649   -0.00674   -0.26880
  7 Li   -0.00107    0.00148   -0.26892
  8 Li   -0.00563   -0.00741   -0.26824
  9 Li   -0.00059    0.00246    0.31012
 10 Li    0.01347   -0.00126    0.25649
 11 Li   -0.01256   -0.00063    0.25942
 12 Li   -0.00030    0.00995    0.26198
 13 Li    0.00535    0.00260    0.25780
 14 Li   -0.00512    0.00460    0.25616
 15 Li    0.00045   -0.01326    0.25558
 16 Li   -0.00063   -0.00175    0.25973
 17 Li    0.00044   -0.00410    0.25837
 18 Li    0.00935    0.00422   -0.00350
 19 Li    0.00101    0.00036    0.04822
 20 Li   -0.00968    0.00607   -0.00650
 21 Li   -0.00014   -0.00417    0.04634
 22 Li   -0.00042    0.00227    0.02594
 23 Li    0.00038   -0.00304    0.04836
 24 Li    0.00028   -0.00063    0.01429
 25 Li    0.00211   -0.00220    0.04440
 26 Li   -0.00226   -0.00418    0.00381
 27 Li   -0.00583    0.02052   -2.07746
 28 Li    0.04660   -0.00404   -0.05006
 29 Li   -0.04672   -0.00056   -0.04353
 30 Li    0.00016    0.04420   -0.04512
 31 Li    0.01021    0.00732   -0.03183
 32 Li   -0.01139    0.00979   -0.03357
 33 Li    0.00355   -0.04307   -0.04146
 34 Li    0.00215   -0.00165   -0.02754
 35 Li   -0.00623   -0.00717   -0.02895
 36 O     0.00909    1.12914   13.72061
 37 C    -0.03448    0.26817    0.77043
 38 C     0.10302    0.66058    3.41370
 39 C    -0.01135   -0.15080    0.21372
 40 H     0.02206   -0.00119    0.00921
 41 H    -0.03540    0.03209   -0.00658
 42 H    -0.19221    0.17309    0.19434
 43 H     0.14145    0.20189    0.17071
 44 H    -0.00865   -0.00603   -0.02240
 45 H     0.00603   -0.01168    0.05087
 46 H     0.00047   -0.02624   -0.03014
 47 H    -0.22489    0.11510    0.73854
 48 N    -1.04525    2.74206   -8.27859
 49 N     1.29274   -5.18059   -8.68635

System changes: positions 

Initializing position-dependent things.

Density initialized from wave functions
       .-----------------------.  
      /|                       |  
     / |                       |  
    /  |                       H  
   /   |                       |  
  /    |                       |  
 *     C H                  H  |  
 |     |                       |  
 |     |                       |  
 |  H  | H             H       |  
 |     N                 C     |  
 |     |                       |  
 |  H  |                H      |  
 C     |                       |  
 O     |       Li              |  
 |     |                       |  
 |   Li|     Li      Li        |  
 |     |  Li      Li      Li   |  
 |     |   Li      Li    N Li  |  
 |     |Li      Li      Li     |  
 |     |         Li      Li    |  
 |   LLi     LLi     LLi       |  
 |     |  Li      Li      Li   |  
 | Li  |   Li      Li          |  
 |     |Li      Li      Li     |  
 Li    | Li      Li            |  
 |    Li      Li      Li       |  
 |     |                       |  
 |     |                       |  
 |     |                       |  
 |     |                       |  
 |     |                       |  
 |     |                       |  
 |     .-----------------------.  
 |    /                       /   
 |   /                       /    
 |  /                       /     
 | /                       /      
 |/                       /       
 *-----------------------*        

Positions:
   0 Li     1.617037    1.617037   10.000000    ( 0.0000,  0.0000,  0.0000)
   1 Li     4.851111    1.617037   10.000000    ( 0.0000,  0.0000,  0.0000)
   2 Li     8.085185    1.617037   10.000000    ( 0.0000,  0.0000,  0.0000)
   3 Li     1.617037    4.851111   10.000000    ( 0.0000,  0.0000,  0.0000)
   4 Li     4.851111    4.851111   10.000000    ( 0.0000,  0.0000,  0.0000)
   5 Li     8.085185    4.851111   10.000000    ( 0.0000,  0.0000,  0.0000)
   6 Li     1.617037    8.085185   10.000000    ( 0.0000,  0.0000,  0.0000)
   7 Li     4.851111    8.085185   10.000000    ( 0.0000,  0.0000,  0.0000)
   8 Li     8.085185    8.085185   10.000000    ( 0.0000,  0.0000,  0.0000)
   9 Li     0.000000    0.000000   11.617037    ( 0.0000,  0.0000,  0.0000)
  10 Li     3.234074    0.000000   11.617037    ( 0.0000,  0.0000,  0.0000)
  11 Li     6.468148    0.000000   11.617037    ( 0.0000,  0.0000,  0.0000)
  12 Li     0.000000    3.234074   11.617037    ( 0.0000,  0.0000,  0.0000)
  13 Li     3.234074    3.234074   11.617037    ( 0.0000,  0.0000,  0.0000)
  14 Li     6.468148    3.234074   11.617037    ( 0.0000,  0.0000,  0.0000)
  15 Li     0.000000    6.468148   11.617037    ( 0.0000,  0.0000,  0.0000)
  16 Li     3.234074    6.468148   11.617037    ( 0.0000,  0.0000,  0.0000)
  17 Li     6.468148    6.468148   11.617037    ( 0.0000,  0.0000,  0.0000)
  18 Li     1.617146    1.617081   13.469650    ( 0.0000,  0.0000,  0.0000)
  19 Li     4.851113    1.617032   13.470181    ( 0.0000,  0.0000,  0.0000)
  20 Li     8.085093    1.617080   13.469669    ( 0.0000,  0.0000,  0.0000)
  21 Li     1.617025    4.851042   13.470150    ( 0.0000,  0.0000,  0.0000)
  22 Li     4.851101    4.851133   13.470038    ( 0.0000,  0.0000,  0.0000)
  23 Li     8.085207    4.851087   13.470180    ( 0.0000,  0.0000,  0.0000)
  24 Li     1.617004    8.085200   13.469909    ( 0.0000,  0.0000,  0.0000)
  25 Li     4.851158    8.085166   13.470131    ( 0.0000,  0.0000,  0.0000)
  26 Li     8.085169    8.085134   13.469750    ( 0.0000,  0.0000,  0.0000)
  27 Li    -0.000045    0.000156   15.427492    ( 0.0000,  0.0000,  0.0000)
  28 Li     3.234326   -0.000066   15.445652    ( 0.0000,  0.0000,  0.0000)
  29 Li     6.467901    0.000013   15.445677    ( 0.0000,  0.0000,  0.0000)
  30 Li    -0.000019    3.234214   15.445715    ( 0.0000,  0.0000,  0.0000)
  31 Li     3.234191    3.234140   15.445650    ( 0.0000,  0.0000,  0.0000)
  32 Li     6.468029    3.234169   15.445638    ( 0.0000,  0.0000,  0.0000)
  33 Li     0.000058    6.467948   15.445709    ( 0.0000,  0.0000,  0.0000)
  34 Li     3.234050    6.468162   15.445737    ( 0.0000,  0.0000,  0.0000)
  35 Li     6.468114    6.468076   15.445675    ( 0.0000,  0.0000,  0.0000)
  36 O      9.703704    9.704075   19.763818    ( 0.0000,  0.0000,  0.0000)
  37 C      9.702225    9.316173   22.084060    ( 0.0000,  0.0000,  0.0000)
  38 C      9.711565   10.344917   20.985498    ( 0.0000,  0.0000,  0.0000)
  39 C      9.695785    9.976501   23.462316    ( 0.0000,  0.0000,  0.0000)
  40 H      8.825240    8.671430   21.961985    ( 0.0000,  0.0000,  0.0000)
  41 H     10.587567    8.672890   21.986570    ( 0.0000,  0.0000,  0.0000)
  42 H      8.812447   10.945630   20.963102    ( 0.0000,  0.0000,  0.0000)
  43 H     10.580870   10.992567   21.032033    ( 0.0000,  0.0000,  0.0000)
  44 H      8.810298   10.603001   23.593774    ( 0.0000,  0.0000,  0.0000)
  45 H      9.695262    9.231830   24.258191    ( 0.0000,  0.0000,  0.0000)
  46 H     10.574212   10.612231   23.601705    ( 0.0000,  0.0000,  0.0000)
  47 H     10.474164    9.122184   19.605412    ( 0.0000,  0.0000,  0.0000)
  48 N      9.691258    9.731207   17.127026    ( 0.0000,  0.0000,  0.0000)
  49 N      9.713096    9.651463   18.199449    ( 0.0000,  0.0000,  0.0000)

Unit cell:
           periodic     x           y           z      points  spacing
  1. axis:    yes    9.702222    0.000000    0.000000    60     0.1617
  2. axis:    yes    0.000000    9.702222    0.000000    60     0.1617
  3. axis:    no     0.000000    0.000000   26.601111   168     0.1583

  Lengths:   9.702222   9.702222  26.601111
  Angles:   90.000000  90.000000  90.000000

Effective grid spacing dv^(1/3) = 0.1606

     iter     time        total  log10-change:
                         energy  eigst   dens
iter:   1 19:03:10  -328.256800  -0.67
iter:   2 19:03:17  -328.249771  -1.23  -1.86
iter:   3 19:03:25  -328.243201c -1.71  -1.99
iter:   4 19:03:32  -328.231104c -1.71  -2.23
Writing to output.gpw (mode='')

iter:   5 19:03:40  -328.228131c -1.44  -2.42
iter:   6 19:03:47  -328.226741c -2.27  -2.33
iter:   7 19:03:55  -328.224099c -2.21  -2.41
iter:   8 19:04:02  -328.224643c -2.54  -2.73
iter:   9 19:04:10  -328.225164c -2.68  -2.81
Writing to output.gpw (mode='')

iter:  10 19:04:17  -328.224636c -2.97  -2.82
iter:  11 19:04:25  -328.224569c -2.87  -2.80
iter:  12 19:04:33  -328.224527c -3.61  -2.89
iter:  13 19:04:45  -328.224514c -3.33  -2.95
iter:  14 19:04:54  -328.224413c -3.48  -3.12
Writing to output.gpw (mode='')

iter:  15 19:05:01  -328.224410c -3.97  -3.39
iter:  16 19:05:09  -328.224410c -4.13  -3.37
iter:  17 19:05:16  -328.224407c -4.43  -3.41
iter:  18 19:05:24  -328.224412c -4.37  -3.69
iter:  19 19:05:32  -328.224408c -4.69  -3.70
Writing to output.gpw (mode='')

iter:  20 19:05:39  -328.224393c -4.72  -3.79
iter:  21 19:05:47  -328.224394c -5.02  -3.97
iter:  22 19:05:54  -328.224401c -5.27  -4.07c
iter:  23 19:06:02  -328.224397c -5.35  -4.11c
iter:  24 19:06:09  -328.224399c -5.76  -4.33c
Writing to output.gpw (mode='')

iter:  25 19:06:17  -328.224398c -5.83  -4.49c
iter:  26 19:06:24  -328.224399c -5.64  -4.49c
iter:  27 19:06:32  -328.224398c -5.90  -4.55c
iter:  28 19:06:39  -328.224399c -6.02  -4.58c
iter:  29 19:06:47  -328.224399c -6.05  -4.69c
Writing to output.gpw (mode='')

iter:  30 19:06:54  -328.224399c -6.55  -4.67c
iter:  31 19:07:02  -328.224399c -6.49  -4.79c
iter:  32 19:07:09  -328.224400c -6.67  -5.09c
iter:  33 19:07:17  -328.224400c -6.57  -5.13c
iter:  34 19:07:24  -328.224400c -6.79  -5.23c
Writing to output.gpw (mode='')

iter:  35 19:07:32  -328.224400c -6.92  -5.50c
iter:  36 19:07:39  -328.224400c -7.01  -5.53c
iter:  37 19:07:47  -328.224400c -7.05  -5.53c
iter:  38 19:07:57  -328.224400c -7.07  -5.42c
iter:  39 19:08:05  -328.224400c -7.37  -5.50c
Writing to output.gpw (mode='')

iter:  40 19:08:14  -328.224400c -7.42c -5.51c

Converged after 40 iterations.

Dipole moment: (-26.231851, -14.129933, 0.475803) |e|*Ang

Energy contributions relative to reference atoms: (reference = -15487.462483)

Kinetic:       +209.311953
Potential:     -193.791023
External:        +0.000000
XC:            -344.417329
Entropy (-ST):   -0.144653
Local:           +0.744326
--------------------------
Free energy:   -328.296726
Extrapolated:  -328.224400

Dipole-layer corrected work functions: 3.382625, 2.467969 eV

Showing only first 2 kpts
 Kpt  Band  Eigenvalues  Occupancy
  0    34     -3.17582    1.98675
  0    35     -3.10001    1.94105
  0    36     -2.75088    0.05930
  0    37     -2.67706    0.01386

  1    34     -2.96167    1.34846
  1    35     -2.91378    0.88536
  1    36     -2.90120    0.76361
  1    37     -2.83582    0.28624


Fermi level: -2.92530

No gap

Forces in eV/Ang:
  0 Li    0.00781    0.00562   -0.26910
  1 Li   -0.00019   -0.00162   -0.26766
  2 Li   -0.00773    0.00691   -0.26915
  3 Li   -0.00156    0.00120   -0.26848
  4 Li    0.00060   -0.00067   -0.28452
  5 Li    0.00124    0.00062   -0.26798
  6 Li    0.00660   -0.00647   -0.26876
  7 Li   -0.00079    0.00167   -0.26869
  8 Li   -0.00595   -0.00717   -0.26850
  9 Li   -0.00053    0.00249    0.31071
 10 Li    0.01355   -0.00127    0.25654
 11 Li   -0.01255   -0.00072    0.25946
 12 Li   -0.00025    0.00941    0.26236
 13 Li    0.00566    0.00317    0.25782
 14 Li   -0.00543    0.00512    0.25601
 15 Li    0.00041   -0.01308    0.25623
 16 Li   -0.00059   -0.00207    0.25953
 17 Li    0.00026   -0.00453    0.25847
 18 Li    0.01159    0.00524   -0.00625
 19 Li    0.00118    0.00075    0.04833
 20 Li   -0.01219    0.00772   -0.01141
 21 Li   -0.00036   -0.00354    0.04703
 22 Li   -0.00027    0.00212    0.02553
 23 Li    0.00034   -0.00310    0.04887
 24 Li    0.00218   -0.00217    0.01054
 25 Li    0.00159   -0.00219    0.04487
 26 Li   -0.00369   -0.00561    0.00119
 27 Li   -0.00478    0.01951   -2.42285
 28 Li    0.04552   -0.00293   -0.05133
 29 Li   -0.04575   -0.00123   -0.04243
 30 Li    0.00104    0.04508   -0.04399
 31 Li    0.01025    0.00765   -0.03207
 32 Li   -0.01235    0.01073   -0.03397
 33 Li    0.00268   -0.04340   -0.04317
 34 Li    0.00422   -0.00326   -0.02969
 35 Li   -0.00734   -0.00747   -0.02964
 36 O    -0.08493    0.95612   10.91001
 37 C    -0.03962    0.27624    1.04262
 38 C     0.24278    0.13899    2.52682
 39 C    -0.00588   -0.19365    0.27618
 40 H     0.02843    0.03138   -0.00753
 41 H    -0.03537    0.05910   -0.02073
 42 H    -0.30246    0.30327    0.30142
 43 H     0.26430    0.37785    0.33107
 44 H    -0.01237   -0.00401   -0.01427
 45 H     0.00478   -0.00189    0.06974
 46 H     0.00218   -0.02423   -0.02142
 47 H    -0.28826    0.26030    0.85453
 48 N    -0.90148    2.44470   -5.03192
 49 N     1.18042   -4.70216   -8.67667

System changes: positions 

Initializing position-dependent things.

Density initialized from wave functions
       .-----------------------.  
      /|                       |  
     / |                       |  
    /  |                       H  
   /   |                       |  
  /    |                       |  
 *     | H                  H  C  
 |     |                       |  
 |     |                       |  
 |  H  | H             H       |  
 |     |                 C     |  
 |     N                       |  
 |  H  |                H      |  
 C     |                       |  
 O     |       Li              |  
 |     |                       |  
 |   Li|     Li      Li        |  
 |     |  Li      Li      Li   |  
 |     |   Li      Li    N Li  |  
 |     |Li      Li      Li     |  
 |     |         Li      Li    |  
 |   LLi     LLi     LLi       |  
 |     |  Li      Li      Li   |  
 | Li  |   Li      Li          |  
 |     |Li      Li      Li     |  
 Li    | Li      Li            |  
 |    Li      Li      Li       |  
 |     |                       |  
 |     |                       |  
 |     |                       |  
 |     |                       |  
 |     |                       |  
 |     |                       |  
 |     .-----------------------.  
 |    /                       /   
 |   /                       /    
 |  /                       /     
 | /                       /      
 |/                       /       
 *-----------------------*        

Positions:
   0 Li     1.617037    1.617037   10.000000    ( 0.0000,  0.0000,  0.0000)
   1 Li     4.851111    1.617037   10.000000    ( 0.0000,  0.0000,  0.0000)
   2 Li     8.085185    1.617037   10.000000    ( 0.0000,  0.0000,  0.0000)
   3 Li     1.617037    4.851111   10.000000    ( 0.0000,  0.0000,  0.0000)
   4 Li     4.851111    4.851111   10.000000    ( 0.0000,  0.0000,  0.0000)
   5 Li     8.085185    4.851111   10.000000    ( 0.0000,  0.0000,  0.0000)
   6 Li     1.617037    8.085185   10.000000    ( 0.0000,  0.0000,  0.0000)
   7 Li     4.851111    8.085185   10.000000    ( 0.0000,  0.0000,  0.0000)
   8 Li     8.085185    8.085185   10.000000    ( 0.0000,  0.0000,  0.0000)
   9 Li     0.000000    0.000000   11.617037    ( 0.0000,  0.0000,  0.0000)
  10 Li     3.234074    0.000000   11.617037    ( 0.0000,  0.0000,  0.0000)
  11 Li     6.468148    0.000000   11.617037    ( 0.0000,  0.0000,  0.0000)
  12 Li     0.000000    3.234074   11.617037    ( 0.0000,  0.0000,  0.0000)
  13 Li     3.234074    3.234074   11.617037    ( 0.0000,  0.0000,  0.0000)
  14 Li     6.468148    3.234074   11.617037    ( 0.0000,  0.0000,  0.0000)
  15 Li     0.000000    6.468148   11.617037    ( 0.0000,  0.0000,  0.0000)
  16 Li     3.234074    6.468148   11.617037    ( 0.0000,  0.0000,  0.0000)
  17 Li     6.468148    6.468148   11.617037    ( 0.0000,  0.0000,  0.0000)
  18 Li     1.617238    1.617125   13.469593    ( 0.0000,  0.0000,  0.0000)
  19 Li     4.851119    1.617040   13.470487    ( 0.0000,  0.0000,  0.0000)
  20 Li     8.085000    1.617138   13.469576    ( 0.0000,  0.0000,  0.0000)
  21 Li     1.617020    4.851022   13.470452    ( 0.0000,  0.0000,  0.0000)
  22 Li     4.851100    4.851141   13.470215    ( 0.0000,  0.0000,  0.0000)
  23 Li     8.085211    4.851074   13.470494    ( 0.0000,  0.0000,  0.0000)
  24 Li     1.617028    8.085174   13.469956    ( 0.0000,  0.0000,  0.0000)
  25 Li     4.851170    8.085153   13.470421    ( 0.0000,  0.0000,  0.0000)
  26 Li     8.085131    8.085081   13.469738    ( 0.0000,  0.0000,  0.0000)
  27 Li    -0.000061    0.000261   15.408963    ( 0.0000,  0.0000,  0.0000)
  28 Li     3.234595   -0.000078   15.445329    ( 0.0000,  0.0000,  0.0000)
  29 Li     6.467631    0.000005   15.445426    ( 0.0000,  0.0000,  0.0000)
  30 Li    -0.000009    3.234478   15.445467    ( 0.0000,  0.0000,  0.0000)
  31 Li     3.234250    3.234184   15.445451    ( 0.0000,  0.0000,  0.0000)
  32 Li     6.467949    3.234240   15.445427    ( 0.0000,  0.0000,  0.0000)
  33 Li     0.000072    6.467688   15.445424    ( 0.0000,  0.0000,  0.0000)
  34 Li     3.234084    6.468135   15.445540    ( 0.0000,  0.0000,  0.0000)
  35 Li     6.468066    6.468028   15.445481    ( 0.0000,  0.0000,  0.0000)
  36 O      9.704062    9.703528   19.797910    ( 0.0000,  0.0000,  0.0000)
  37 C      9.701972    9.317207   22.092779    ( 0.0000,  0.0000,  0.0000)
  38 C      9.714139   10.344893   20.996646    ( 0.0000,  0.0000,  0.0000)
  39 C      9.695783    9.975303   23.464477    ( 0.0000,  0.0000,  0.0000)
  40 H      8.825535    8.671912   21.961846    ( 0.0000,  0.0000,  0.0000)
  41 H     10.587247    8.673517   21.986363    ( 0.0000,  0.0000,  0.0000)
  42 H      8.810045   10.948418   20.966075    ( 0.0000,  0.0000,  0.0000)
  43 H     10.583261   10.996270   21.035586    ( 0.0000,  0.0000,  0.0000)
  44 H      8.810227   10.602969   23.593758    ( 0.0000,  0.0000,  0.0000)
  45 H      9.695286    9.231826   24.258723    ( 0.0000,  0.0000,  0.0000)
  46 H     10.574206   10.612068   23.601646    ( 0.0000,  0.0000,  0.0000)
  47 H     10.471008    9.125588   19.613018    ( 0.0000,  0.0000,  0.0000)
  48 N      9.686583    9.744700   17.107133    ( 0.0000,  0.0000,  0.0000)
  49 N      9.718801    9.627060   18.168273    ( 0.0000,  0.0000,  0.0000)

Unit cell:
           periodic     x           y           z      points  spacing
  1. axis:    yes    9.702222    0.000000    0.000000    60     0.1617
  2. axis:    yes    0.000000    9.702222    0.000000    60     0.1617
  3. axis:    no     0.000000    0.000000   26.601111   168     0.1583

  Lengths:   9.702222   9.702222  26.601111
  Angles:   90.000000  90.000000  90.000000

Effective grid spacing dv^(1/3) = 0.1606

     iter     time        total  log10-change:
                         energy  eigst   dens
iter:   1 19:08:26  -329.267127  -0.72
iter:   2 19:08:37  -329.180691  -0.95  -1.58
iter:   3 19:08:45  -329.145408  -1.66  -1.74
iter:   4 19:08:52  -329.130112  -1.00  -2.20
Writing to output.gpw (mode='')

iter:   5 19:09:00  -329.125527c -2.01  -2.09
iter:   6 19:09:07  -329.125105c -1.95  -2.31
iter:   7 19:09:15  -329.127503c -1.74  -2.52
iter:   8 19:09:22  -329.124312c -2.41  -2.56
iter:   9 19:09:29  -329.124160c -2.50  -2.74
Writing to output.gpw (mode='')

iter:  10 19:09:44  -329.124642c -2.97  -2.82
iter:  11 19:09:53  -329.124544c -3.12  -2.92
iter:  12 19:10:00  -329.124271c -3.19  -2.92
iter:  13 19:10:08  -329.124345c -3.53  -3.07
iter:  14 19:10:15  -329.124306c -3.68  -3.05
Writing to output.gpw (mode='')

iter:  15 19:10:23  -329.124275c -4.10  -3.14
iter:  16 19:10:30  -329.124251c -3.70  -3.19
iter:  17 19:10:37  -329.124258c -4.32  -3.71
iter:  18 19:10:45  -329.124260c -4.74  -3.73
iter:  19 19:10:52  -329.124264c -4.53  -3.76
Writing to output.gpw (mode='')

iter:  20 19:11:00  -329.124263c -4.86  -3.74
iter:  21 19:11:07  -329.124263c -4.91  -3.87
iter:  22 19:11:15  -329.124264c -5.17  -4.07c
iter:  23 19:11:22  -329.124264c -5.09  -4.13c
iter:  24 19:11:30  -329.124264c -5.33  -4.21c
Writing to output.gpw (mode='')

iter:  25 19:11:37  -329.124263c -5.50  -4.29c
iter:  26 19:11:45  -329.124262c -5.66  -4.52c
iter:  27 19:11:52  -329.124262c -6.13  -4.59c
iter:  28 19:11:59  -329.124263c -5.86  -4.63c
iter:  29 19:12:07  -329.124263c -6.13  -4.83c
Writing to output.gpw (mode='')

iter:  30 19:12:14  -329.124264c -6.35  -4.87c
iter:  31 19:12:22  -329.124263c -6.35  -4.89c
iter:  32 19:12:29  -329.124263c -6.58  -4.99c
iter:  33 19:12:37  -329.124263c -6.73  -5.11c
iter:  34 19:12:44  -329.124263c -6.61  -5.11c
Writing to output.gpw (mode='')

iter:  35 19:12:52  -329.124263c -6.82  -5.19c
iter:  36 19:12:59  -329.124263c -6.75  -5.37c
iter:  37 19:13:07  -329.124263c -7.12  -5.44c
iter:  38 19:13:14  -329.124263c -7.20  -5.45c
iter:  39 19:13:21  -329.124263c -7.04  -5.57c
Writing to output.gpw (mode='')

iter:  40 19:13:29  -329.124263c -7.01  -5.62c
iter:  41 19:13:36  -329.124263c -7.33  -5.65c
iter:  42 19:13:44  -329.124263c -7.34  -5.60c
iter:  43 19:13:51  -329.124263c -7.23  -5.59c
iter:  44 19:13:59  -329.124263c -7.67c -5.58c

Converged after 44 iterations.

Dipole moment: (-26.510684, -12.616413, 0.459668) |e|*Ang

Energy contributions relative to reference atoms: (reference = -15487.462483)

Kinetic:       +208.225188
Potential:     -193.380333
External:        +0.000000
XC:            -344.648418
Entropy (-ST):   -0.144424
Local:           +0.751511
--------------------------
Free energy:   -329.196475
Extrapolated:  -329.124263

Dipole-layer corrected work functions: 3.382206, 2.498566 eV

Showing only first 2 kpts
 Kpt  Band  Eigenvalues  Occupancy
  0    34     -3.19168    1.98695
  0    35     -3.11524    1.94121
  0    36     -2.76528    0.05850
  0    37     -2.69188    0.01379

  1    34     -2.97637    1.34505
  1    35     -2.92839    0.88062
  1    36     -2.91764    0.77640
  1    37     -2.85045    0.28399


Fermi level: -2.94039

No gap
Writing to output.gpw (mode='')


Forces in eV/Ang:
  0 Li    0.00761    0.00568   -0.26959
  1 Li   -0.00035   -0.00209   -0.26721
  2 Li   -0.00744    0.00670   -0.26962
  3 Li   -0.00172    0.00078   -0.26823
  4 Li    0.00058   -0.00057   -0.28451
  5 Li    0.00154    0.00064   -0.26762
  6 Li    0.00663   -0.00619   -0.26889
  7 Li   -0.00051    0.00179   -0.26848
  8 Li   -0.00617   -0.00690   -0.26887
  9 Li   -0.00046    0.00249    0.31212
 10 Li    0.01361   -0.00124    0.25665
 11 Li   -0.01255   -0.00079    0.25946
 12 Li   -0.00021    0.00901    0.26261
 13 Li    0.00605    0.00371    0.25782
 14 Li   -0.00577    0.00553    0.25587
 15 Li    0.00034   -0.01302    0.25669
 16 Li   -0.00048   -0.00235    0.25930
 17 Li   -0.00000   -0.00488    0.25853
 18 Li    0.01478    0.00753   -0.00899
 19 Li    0.00135    0.00136    0.04770
 20 Li   -0.01565    0.01048   -0.01600
 21 Li   -0.00023   -0.00289    0.04686
 22 Li   -0.00015    0.00190    0.02475
 23 Li   -0.00003   -0.00312    0.04855
 24 Li    0.00503   -0.00496    0.00667
 25 Li    0.00109   -0.00235    0.04466
 26 Li   -0.00612   -0.00819   -0.00131
 27 Li   -0.00413    0.02074   -2.44498
 28 Li    0.04827   -0.00185   -0.05526
 29 Li   -0.04858   -0.00177   -0.04460
 30 Li    0.00184    0.04927   -0.04550
 31 Li    0.00914    0.00690   -0.03149
 32 Li   -0.01206    0.01057   -0.03351
 33 Li    0.00189   -0.04742   -0.04817
 34 Li    0.00511   -0.00379   -0.03076
 35 Li   -0.00734   -0.00686   -0.02969
 36 O    -0.16944    0.52092    8.02291
 37 C    -0.01299    0.18138    0.97800
 38 C     0.18239    0.33607    2.33983
 39 C    -0.00964   -0.11401    0.34739
 40 H     0.04359    0.05942    0.01579
 41 H    -0.05075    0.07419    0.01416
 42 H    -0.15414    0.23977    0.38023
 43 H     0.23989    0.38499    0.42697
 44 H    -0.00261   -0.01266    0.00082
 45 H     0.00383   -0.02306    0.12729
 46 H    -0.00463   -0.03053   -0.00571
 47 H    -0.29225    0.32736    0.91496
 48 N    -0.89814    2.47682   -5.68909
 49 N     1.16374   -4.51974   -5.23840

System changes: positions 

Initializing position-dependent things.

Density initialized from wave functions
       .-----------------------.  
      /|                       |  
     / |                       |  
    /  |                       H  
   /   |                       |  
  /    |                       |  
 *     | H                  H  C  
 |     |                       |  
 |     O                       |  
 |  H  | H             H       |  
 |     |                 C     |  
 |     N                       |  
 |  H  |                H      |  
 C     |                       |  
 |     |       Li      Li      |  
 |     |                       |  
 |   Li|     Li      Li        |  
 |     |  Li      Li      Li   |  
 | Li  |   Li      Li    N     |  
 |     |Li      Li      Li     |  
 |     |                 Li    |  
 |   LLi     LLi     LLi       |  
 |     |  Li      Li      Li   |  
 | Li  |   Li      Li          |  
 |     |Li      Li      Li     |  
 Li    | Li      Li            |  
 |    Li      Li      Li       |  
 |     |                       |  
 |     |                       |  
 |     |                       |  
 |     |                       |  
 |     |                       |  
 |     |                       |  
 |     .-----------------------.  
 |    /                       /   
 |   /                       /    
 |  /                       /     
 | /                       /      
 |/                       /       
 *-----------------------*        

Positions:
   0 Li     1.617037    1.617037   10.000000    ( 0.0000,  0.0000,  0.0000)
   1 Li     4.851111    1.617037   10.000000    ( 0.0000,  0.0000,  0.0000)
   2 Li     8.085185    1.617037   10.000000    ( 0.0000,  0.0000,  0.0000)
   3 Li     1.617037    4.851111   10.000000    ( 0.0000,  0.0000,  0.0000)
   4 Li     4.851111    4.851111   10.000000    ( 0.0000,  0.0000,  0.0000)
   5 Li     8.085185    4.851111   10.000000    ( 0.0000,  0.0000,  0.0000)
   6 Li     1.617037    8.085185   10.000000    ( 0.0000,  0.0000,  0.0000)
   7 Li     4.851111    8.085185   10.000000    ( 0.0000,  0.0000,  0.0000)
   8 Li     8.085185    8.085185   10.000000    ( 0.0000,  0.0000,  0.0000)
   9 Li     0.000000    0.000000   11.617037    ( 0.0000,  0.0000,  0.0000)
  10 Li     3.234074    0.000000   11.617037    ( 0.0000,  0.0000,  0.0000)
  11 Li     6.468148    0.000000   11.617037    ( 0.0000,  0.0000,  0.0000)
  12 Li     0.000000    3.234074   11.617037    ( 0.0000,  0.0000,  0.0000)
  13 Li     3.234074    3.234074   11.617037    ( 0.0000,  0.0000,  0.0000)
  14 Li     6.468148    3.234074   11.617037    ( 0.0000,  0.0000,  0.0000)
  15 Li     0.000000    6.468148   11.617037    ( 0.0000,  0.0000,  0.0000)
  16 Li     3.234074    6.468148   11.617037    ( 0.0000,  0.0000,  0.0000)
  17 Li     6.468148    6.468148   11.617037    ( 0.0000,  0.0000,  0.0000)
  18 Li     1.617396    1.617206   13.469479    ( 0.0000,  0.0000,  0.0000)
  19 Li     4.851128    1.617055   13.470882    ( 0.0000,  0.0000,  0.0000)
  20 Li     8.084840    1.617241   13.469399    ( 0.0000,  0.0000,  0.0000)
  21 Li     1.617013    4.850997   13.470841    ( 0.0000,  0.0000,  0.0000)
  22 Li     4.851099    4.851153   13.470441    ( 0.0000,  0.0000,  0.0000)
  23 Li     8.085215    4.851053   13.470900    ( 0.0000,  0.0000,  0.0000)
  24 Li     1.617083    8.085116   13.469986    ( 0.0000,  0.0000,  0.0000)
  25 Li     4.851184    8.085134   13.470792    ( 0.0000,  0.0000,  0.0000)
  26 Li     8.085061    8.084987   13.469695    ( 0.0000,  0.0000,  0.0000)
  27 Li    -0.000079    0.000415   15.385866    ( 0.0000,  0.0000,  0.0000)
  28 Li     3.234944   -0.000089   15.444900    ( 0.0000,  0.0000,  0.0000)
  29 Li     6.467280   -0.000009   15.445099    ( 0.0000,  0.0000,  0.0000)
  30 Li     0.000009    3.234824   15.445155    ( 0.0000,  0.0000,  0.0000)
  31 Li     3.234324    3.234236   15.445195    ( 0.0000,  0.0000,  0.0000)
  32 Li     6.467844    3.234332   15.445155    ( 0.0000,  0.0000,  0.0000)
  33 Li     0.000086    6.467339   15.445034    ( 0.0000,  0.0000,  0.0000)
  34 Li     3.234129    6.468101   15.445283    ( 0.0000,  0.0000,  0.0000)
  35 Li     6.468008    6.467971   15.445230    ( 0.0000,  0.0000,  0.0000)
  36 O      9.702876    9.699890   19.822653    ( 0.0000,  0.0000,  0.0000)
  37 C      9.701988    9.317782   22.101954    ( 0.0000,  0.0000,  0.0000)
  38 C      9.715923   10.349510   21.013570    ( 0.0000,  0.0000,  0.0000)
  39 C      9.695703    9.974724   23.468003    ( 0.0000,  0.0000,  0.0000)
  40 H      8.826030    8.672695   21.962030    ( 0.0000,  0.0000,  0.0000)
  41 H     10.586686    8.674356   21.986600    ( 0.0000,  0.0000,  0.0000)
  42 H      8.808934   10.950886   20.970336    ( 0.0000,  0.0000,  0.0000)
  43 H     10.585709   11.000520   21.040540    ( 0.0000,  0.0000,  0.0000)
  44 H      8.810247   10.602829   23.593868    ( 0.0000,  0.0000,  0.0000)
  45 H      9.695312    9.231524   24.260074    ( 0.0000,  0.0000,  0.0000)
  46 H     10.574128   10.611781   23.601705    ( 0.0000,  0.0000,  0.0000)
  47 H     10.468309    9.129113   19.622776    ( 0.0000,  0.0000,  0.0000)
  48 N      9.679971    9.764131   17.077898    ( 0.0000,  0.0000,  0.0000)
  49 N      9.726780    9.594292   18.146765    ( 0.0000,  0.0000,  0.0000)

Unit cell:
           periodic     x           y           z      points  spacing
  1. axis:    yes    9.702222    0.000000    0.000000    60     0.1617
  2. axis:    yes    0.000000    9.702222    0.000000    60     0.1617
  3. axis:    no     0.000000    0.000000   26.601111   168     0.1583

  Lengths:   9.702222   9.702222  26.601111
  Angles:   90.000000  90.000000  90.000000

Effective grid spacing dv^(1/3) = 0.1606

     iter     time        total  log10-change:
                         energy  eigst   dens
iter:   1 19:14:08  -329.879016  -0.72
iter:   2 19:14:15  -329.883025  -1.38  -2.24
iter:   3 19:14:23  -329.876658c -1.69  -2.24
iter:   4 19:14:30  -329.877584c -1.18  -2.35
Writing to output.gpw (mode='')

iter:   5 19:14:43  -329.870148c -2.09  -2.23
iter:   6 19:14:52  -329.871735c -2.40  -2.39
iter:   7 19:14:59  -329.866442c -2.21  -2.36
iter:   8 19:15:07  -329.867489c -1.90  -2.73
iter:   9 19:15:14  -329.866855c -2.74  -2.62
Writing to output.gpw (mode='')

iter:  10 19:15:22  -329.866806c -3.40  -2.85
iter:  11 19:15:29  -329.866711c -3.10  -2.87
iter:  12 19:15:37  -329.867200c -3.00  -2.99
iter:  13 19:15:44  -329.866640c -2.95  -2.98
iter:  14 19:15:52  -329.866639c -3.73  -3.31
Writing to output.gpw (mode='')

iter:  15 19:15:59  -329.866627c -4.38  -3.38
iter:  16 19:16:07  -329.866662c -3.88  -3.46
iter:  17 19:16:14  -329.866662c -3.67  -3.45
iter:  18 19:16:22  -329.866635c -4.27  -3.48
iter:  19 19:16:29  -329.866637c -4.16  -3.56
Writing to output.gpw (mode='')

iter:  20 19:16:37  -329.866627c -4.49  -3.70
iter:  21 19:16:44  -329.866625c -5.07  -3.98
iter:  22 19:16:52  -329.866625c -4.91  -4.05c
iter:  23 19:16:59  -329.866622c -5.04  -4.12c
iter:  24 19:17:07  -329.866623c -5.42  -4.11c
Writing to output.gpw (mode='')

iter:  25 19:17:14  -329.866628c -5.23  -4.17c
iter:  26 19:17:22  -329.866628c -5.37  -4.17c
iter:  27 19:17:29  -329.866627c -6.04  -4.39c
iter:  28 19:17:37  -329.866626c -5.57  -4.46c
iter:  29 19:17:44  -329.866625c -6.22  -4.50c
Writing to output.gpw (mode='')

iter:  30 19:17:52  -329.866625c -6.13  -4.73c
iter:  31 19:17:59  -329.866625c -6.53  -4.83c
iter:  32 19:18:07  -329.866625c -6.55  -4.87c
iter:  33 19:18:14  -329.866625c -6.49  -4.99c
iter:  34 19:18:22  -329.866625c -7.01  -5.05c
Writing to output.gpw (mode='')

iter:  35 19:18:29  -329.866625c -6.69  -5.14c
iter:  36 19:18:37  -329.866625c -7.25  -5.20c
iter:  37 19:18:44  -329.866625c -6.84  -5.32c
iter:  38 19:18:52  -329.866625c -7.34  -5.31c
iter:  39 19:18:59  -329.866625c -7.17  -5.44c
Writing to output.gpw (mode='')

iter:  40 19:19:07  -329.866625c -7.52c -5.49c

Converged after 40 iterations.

Dipole moment: (-26.602639, -10.556388, 0.455844) |e|*Ang

Energy contributions relative to reference atoms: (reference = -15487.462483)

Kinetic:       +203.437962
Potential:     -189.894776
External:        +0.000000
XC:            -344.097027
Entropy (-ST):   -0.143977
Local:           +0.759204
--------------------------
Free energy:   -329.938613
Extrapolated:  -329.866625

Dipole-layer corrected work functions: 3.382524, 2.506235 eV

Showing only first 2 kpts
 Kpt  Band  Eigenvalues  Occupancy
  0    34     -3.19600    1.98704
  0    35     -3.11813    1.93993
  0    36     -2.76870    0.05786
  0    37     -2.69617    0.01387

  1    34     -2.97963    1.33856
  1    35     -2.93296    0.88633
  1    36     -2.92386    0.79766
  1    37     -2.85091    0.26721


Fermi level: -2.94438

No gap

Forces in eV/Ang:
  0 Li    0.00794    0.00582   -0.27037
  1 Li   -0.00070   -0.00277   -0.26654
  2 Li   -0.00756    0.00657   -0.27041
  3 Li   -0.00188    0.00040   -0.26801
  4 Li    0.00063   -0.00051   -0.28497
  5 Li    0.00186    0.00099   -0.26724
  6 Li    0.00695   -0.00603   -0.26921
  7 Li   -0.00013    0.00205   -0.26838
  8 Li   -0.00670   -0.00689   -0.26961
  9 Li   -0.00051    0.00291    0.31518
 10 Li    0.01418   -0.00136    0.25678
 11 Li   -0.01282   -0.00104    0.25975
 12 Li   -0.00010    0.00804    0.26429
 13 Li    0.00694    0.00464    0.25766
 14 Li   -0.00658    0.00646    0.25555
 15 Li    0.00033   -0.01304    0.25734
 16 Li   -0.00100   -0.00278    0.25913
 17 Li    0.00018   -0.00573    0.25865
 18 Li    0.02021    0.01037   -0.01574
 19 Li    0.00181    0.00184    0.04759
 20 Li   -0.02147    0.01421   -0.02612
 21 Li   -0.00069   -0.00251    0.04733
 22 Li   -0.00015    0.00189    0.02428
 23 Li    0.00022   -0.00372    0.04907
 24 Li    0.00861   -0.00814   -0.00010
 25 Li    0.00056   -0.00251    0.04460
 26 Li   -0.00938   -0.01156   -0.00673
 27 Li   -0.00331    0.01964   -2.47880
 28 Li    0.04492   -0.00039   -0.05434
 29 Li   -0.04530   -0.00273   -0.04164
 30 Li    0.00316    0.04711   -0.04112
 31 Li    0.00933    0.00688   -0.03141
 32 Li   -0.01392    0.01204   -0.03377
 33 Li    0.00080   -0.04704   -0.04853
 34 Li    0.00720   -0.00530   -0.03210
 35 Li   -0.00820   -0.00697   -0.02992
 36 O    -0.28213    0.40263    5.97961
 37 C    -0.00229    0.15116    0.91163
 38 C     0.12675    0.33846    1.86484
 39 C    -0.00715   -0.08338    0.41070
 40 H     0.05369    0.08400    0.04130
 41 H    -0.05153    0.08232    0.04948
 42 H    -0.10109    0.24572    0.45934
 43 H     0.23689    0.40122    0.49957
 44 H    -0.00652   -0.01072    0.02080
 45 H     0.00278   -0.03734    0.18936
 46 H    -0.00074   -0.02724    0.01635
 47 H    -0.22391    0.30693    0.91713
 48 N    -0.79285    2.27195   -2.93049
 49 N     1.06849   -4.12485   -5.83039

System changes: positions 

Initializing position-dependent things.

Density initialized from wave functions
       .-----------------------.  
      /|                       |  
     / |                       |  
    /  |                       H  
   /   |                       |  
  /    |                       |  
 *     | H                  H  C  
 |     |                       |  
 |     |                       O  
 |  H  | H             H       |  
 |     |                 C     |  
 |     N                       |  
 |  H  |                H      |  
 C     |                       |  
 |     |       Li      Li      |  
 |     |                       |  
 |   Li|     Li      Li        |  
 |     |  Li      Li      Li   |  
 | Li  |   Li      Li    N     |  
 |     |Li      Li      Li     |  
 |     |                 Li    |  
 |   LLi     LLi     LLi       |  
 |     |  Li      Li      Li   |  
 | Li  |   Li      Li          |  
 |     |Li      Li      Li     |  
 Li    | Li      Li            |  
 |    Li      Li      Li       |  
 |     |                       |  
 |     |                       |  
 |     |                       |  
 |     |                       |  
 |     |                       |  
 |     |                       |  
 |     .-----------------------.  
 |    /                       /   
 |   /                       /    
 |  /                       /     
 | /                       /      
 |/                       /       
 *-----------------------*        

Positions:
   0 Li     1.617037    1.617037   10.000000    ( 0.0000,  0.0000,  0.0000)
[...]
Local:           +0.794240
--------------------------
Free energy:   -334.244382
Extrapolated:  -334.171184

Dipole-layer corrected work functions: 3.406751, 3.013333 eV

Showing only first 2 kpts
 Kpt  Band  Eigenvalues  Occupancy
  0    34     -3.46135    1.98696
  0    35     -3.39544    1.95212
  0    36     -3.03078    0.05397
  0    37     -3.00686    0.03379

  1    34     -3.24738    1.35692
  1    35     -3.19172    0.81884
  1    36     -3.18095    0.71704
  1    37     -3.11663    0.26750


Fermi level: -3.21004

No gap
Writing to output.gpw (mode='')


Forces in eV/Ang:
  0 Li    0.00020    0.01260   -0.27018
  1 Li   -0.00099    0.00227   -0.28258
  2 Li   -0.00096    0.00759   -0.26977
  3 Li   -0.00182   -0.01202   -0.27110
  4 Li   -0.00023    0.00107   -0.28881
  5 Li   -0.00057   -0.00516   -0.27486
  6 Li    0.00988   -0.00029   -0.26775
  7 Li    0.00557    0.00194   -0.26814
  8 Li   -0.01548   -0.00163   -0.26604
  9 Li   -0.00615    0.00919    0.26879
 10 Li    0.01313    0.02747    0.26473
 11 Li   -0.00161    0.01665    0.25105
 12 Li   -0.00598    0.00154    0.24229
 13 Li   -0.04108   -0.01114    0.28893
 14 Li    0.05399   -0.01077    0.28709
 15 Li   -0.00857   -0.01128    0.28708
 16 Li    0.01172   -0.01901    0.28141
 17 Li    0.00250   -0.00979    0.27373
 18 Li    0.00509    0.00740    0.01226
 19 Li    0.00075    0.01004   -0.01193
 20 Li   -0.00461    0.00558    0.00875
 21 Li    0.00608   -0.00658   -0.01888
 22 Li    0.00219   -0.00530    0.00135
 23 Li   -0.00606   -0.00530   -0.01899
 24 Li    0.01071   -0.00721    0.00130
 25 Li    0.00149   -0.01630   -0.00466
 26 Li   -0.01313   -0.00718    0.00111
 27 Li   -0.00177    0.00237   -0.01584
 28 Li    0.00541    0.00680    0.00688
 29 Li   -0.00197    0.00820   -0.00468
 30 Li   -0.00511   -0.00756   -0.01156
 31 Li   -0.01034   -0.00443    0.00522
 32 Li    0.01676   -0.00723    0.00913
 33 Li   -0.00330   -0.01585   -0.00173
 34 Li   -0.00363    0.00015    0.00726
 35 Li    0.00860    0.00326    0.00458
 36 O    -0.01175   -0.00509    0.00921
 37 C     0.00411   -0.00504   -0.00835
 38 C    -0.00414    0.01797    0.03822
 39 C     0.00023   -0.00012    0.00165
 40 H     0.00349    0.02472   -0.03033
 41 H    -0.00278    0.01037   -0.02821
 42 H     0.01425    0.02109    0.00307
 43 H    -0.01700    0.00270    0.00633
 44 H    -0.00791    0.01506   -0.02703
 45 H     0.00816   -0.01247   -0.00839
 46 H     0.01007   -0.00395   -0.01533
 47 H     0.02293   -0.01265   -0.00330
 48 N    -0.03923    0.08159   -0.07802
 49 N     0.03034   -0.05435    0.09034

System changes: positions 

Initializing position-dependent things.

Density initialized from wave functions
       .-----------------------.  
      /|                       |  
     / |                       |  
    /  |                       H  
   /   |                       |  
  /    |                       C  
 *     |H                   H  |  
 |     |                       |  
 |     |                       |  
 |  H  |H              H C     |  
 |     |                       |  
 |  H  |                H      |  
 |     N                 C     |  
 |     N                       |  
 |     Li              LiO     |  
 |     |                       |  
 |   Li|     Li      Li        |  
 |     |  Li      Li      Li   |  
 | Li  |   Li      Li          |  
 |     |Li      Li      Li     |  
 |     | Li                    |  
 |   LLi     LLi     LLi       |  
 |     |  Li      Li      Li   |  
 | Li  |   Li      Li          |  
 |     |Li      Li      Li     |  
 Li    | Li      Li            |  
 |    Li      Li      Li       |  
 |     |                       |  
 |     |                       |  
 |     |                       |  
 |     |                       |  
 |     |                       |  
 |     |                       |  
 |     .-----------------------.  
 |    /                       /   
 |   /                       /    
 |  /                       /     
 | /                       /      
 |/                       /       
 *-----------------------*        

Positions:
   0 Li     1.617037    1.617037   10.000000    ( 0.0000,  0.0000,  0.0000)
   1 Li     4.851111    1.617037   10.000000    ( 0.0000,  0.0000,  0.0000)
   2 Li     8.085185    1.617037   10.000000    ( 0.0000,  0.0000,  0.0000)
   3 Li     1.617037    4.851111   10.000000    ( 0.0000,  0.0000,  0.0000)
   4 Li     4.851111    4.851111   10.000000    ( 0.0000,  0.0000,  0.0000)
   5 Li     8.085185    4.851111   10.000000    ( 0.0000,  0.0000,  0.0000)
   6 Li     1.617037    8.085185   10.000000    ( 0.0000,  0.0000,  0.0000)
   7 Li     4.851111    8.085185   10.000000    ( 0.0000,  0.0000,  0.0000)
   8 Li     8.085185    8.085185   10.000000    ( 0.0000,  0.0000,  0.0000)
   9 Li     0.000000    0.000000   11.617037    ( 0.0000,  0.0000,  0.0000)
  10 Li     3.234074    0.000000   11.617037    ( 0.0000,  0.0000,  0.0000)
  11 Li     6.468148    0.000000   11.617037    ( 0.0000,  0.0000,  0.0000)
  12 Li     0.000000    3.234074   11.617037    ( 0.0000,  0.0000,  0.0000)
  13 Li     3.234074    3.234074   11.617037    ( 0.0000,  0.0000,  0.0000)
  14 Li     6.468148    3.234074   11.617037    ( 0.0000,  0.0000,  0.0000)
  15 Li     0.000000    6.468148   11.617037    ( 0.0000,  0.0000,  0.0000)
  16 Li     3.234074    6.468148   11.617037    ( 0.0000,  0.0000,  0.0000)
  17 Li     6.468148    6.468148   11.617037    ( 0.0000,  0.0000,  0.0000)
  18 Li     1.578175    1.599968   13.503750    ( 0.0000,  0.0000,  0.0000)
  19 Li     4.865473    1.619392   13.473304    ( 0.0000,  0.0000,  0.0000)
  20 Li     8.119277    1.593125   13.520922    ( 0.0000,  0.0000,  0.0000)
  21 Li     1.584871    4.846967   13.506009    ( 0.0000,  0.0000,  0.0000)
  22 Li     4.859337    4.832124   13.448546    ( 0.0000,  0.0000,  0.0000)
  23 Li     8.115088    4.845786   13.514959    ( 0.0000,  0.0000,  0.0000)
  24 Li     1.612194    8.092560   13.427054    ( 0.0000,  0.0000,  0.0000)
  25 Li     4.862779    8.108046   13.458150    ( 0.0000,  0.0000,  0.0000)
  26 Li     8.095889    8.098897   13.461029    ( 0.0000,  0.0000,  0.0000)
  27 Li     0.017123   -0.089075   15.548620    ( 0.0000,  0.0000,  0.0000)
  28 Li     3.270051    0.011196   15.371372    ( 0.0000,  0.0000,  0.0000)
  29 Li     6.456357   -0.010336   15.438359    ( 0.0000,  0.0000,  0.0000)
  30 Li     0.008863    3.217676   15.519503    ( 0.0000,  0.0000,  0.0000)
  31 Li     3.237315    3.237194   15.412229    ( 0.0000,  0.0000,  0.0000)
  32 Li     6.449228    3.245065   15.425131    ( 0.0000,  0.0000,  0.0000)
  33 Li     0.000557    6.485333   15.443997    ( 0.0000,  0.0000,  0.0000)
  34 Li     3.288137    6.453080   15.329113    ( 0.0000,  0.0000,  0.0000)
  35 Li     6.445030    6.468638   15.370292    ( 0.0000,  0.0000,  0.0000)
  36 O      9.499384   10.256411   19.972139    ( 0.0000,  0.0000,  0.0000)
  37 C      9.628959    9.489246   22.321721    ( 0.0000,  0.0000,  0.0000)
  38 C      9.649912   10.656603   21.338655    ( 0.0000,  0.0000,  0.0000)
  39 C      9.691081    9.949805   23.777672    ( 0.0000,  0.0000,  0.0000)
  40 H      8.724772    8.895419   22.156987    ( 0.0000,  0.0000,  0.0000)
  41 H     10.479696    8.829810   22.111678    ( 0.0000,  0.0000,  0.0000)
  42 H      8.809020   11.326208   21.532854    ( 0.0000,  0.0000,  0.0000)
  43 H     10.576867   11.235050   21.466417    ( 0.0000,  0.0000,  0.0000)
  44 H      8.826179   10.565340   24.035306    ( 0.0000,  0.0000,  0.0000)
  45 H      9.700758    9.096630   24.454123    ( 0.0000,  0.0000,  0.0000)
  46 H     10.589734   10.539111   23.975172    ( 0.0000,  0.0000,  0.0000)
  47 H     10.164027    9.581630   19.787358    ( 0.0000,  0.0000,  0.0000)
  48 N      9.963564    8.448290   17.147608    ( 0.0000,  0.0000,  0.0000)
  49 N     10.103953    7.805475   18.059136    ( 0.0000,  0.0000,  0.0000)

Unit cell:
           periodic     x           y           z      points  spacing
  1. axis:    yes    9.702222    0.000000    0.000000    60     0.1617
  2. axis:    yes    0.000000    9.702222    0.000000    60     0.1617
  3. axis:    no     0.000000    0.000000   26.601111   168     0.1583

  Lengths:   9.702222   9.702222  26.601111
  Angles:   90.000000  90.000000  90.000000

Effective grid spacing dv^(1/3) = 0.1606

     iter     time        total  log10-change:
                         energy  eigst   dens
iter:   1 02:12:16  -334.174558  -2.43
iter:   2 02:12:23  -334.173580  -2.88  -2.38
iter:   3 02:12:30  -334.172329c -3.82  -2.52
iter:   4 02:12:38  -334.172015c -4.02  -2.84
Writing to output.gpw (mode='')

iter:   5 02:12:45  -334.171836c -3.67  -3.04
iter:   6 02:12:53  -334.171746c -3.53  -3.23
iter:   7 02:13:00  -334.171781c -3.94  -3.38
iter:   8 02:13:08  -334.171771c -4.74  -3.46
iter:   9 02:13:15  -334.171770c -5.21  -3.53
Writing to output.gpw (mode='')

iter:  10 02:13:22  -334.171754c -4.96  -3.63
iter:  11 02:13:30  -334.171764c -4.94  -3.77
iter:  12 02:13:37  -334.171766c -5.33  -3.90
iter:  13 02:13:45  -334.171768c -5.28  -3.88
iter:  14 02:13:52  -334.171764c -6.02  -3.83
Writing to output.gpw (mode='')

iter:  15 02:14:00  -334.171760c -5.70  -3.91
iter:  16 02:14:07  -334.171760c -5.87  -4.09c
iter:  17 02:14:14  -334.171761c -6.33  -4.21c
iter:  18 02:14:22  -334.171760c -5.79  -4.21c
iter:  19 02:14:29  -334.171763c -6.50  -4.23c
Writing to output.gpw (mode='')

iter:  20 02:14:44  -334.171762c -6.71  -4.56c
iter:  21 02:14:53  -334.171760c -6.80  -4.60c
iter:  22 02:15:00  -334.171760c -6.76  -4.85c
iter:  23 02:15:07  -334.171761c -7.28  -4.92c
iter:  24 02:15:15  -334.171761c -7.47c -4.94c

Converged after 24 iterations.

Dipole moment: (-11.755649, -2.464628, 0.202644) |e|*Ang

Energy contributions relative to reference atoms: (reference = -15487.462483)

Kinetic:       +167.998252
Potential:     -164.280549
External:        +0.000000
XC:            -338.610467
Entropy (-ST):   -0.146463
Local:           +0.794235
--------------------------
Free energy:   -334.244993
Extrapolated:  -334.171761

Dipole-layer corrected work functions: 3.406826, 3.017275 eV

Showing only first 2 kpts
 Kpt  Band  Eigenvalues  Occupancy
  0    34     -3.46338    1.98696
  0    35     -3.39746    1.95213
  0    36     -3.03318    0.05438
  0    37     -3.00934    0.03411

  1    34     -3.24971    1.35976
  1    35     -3.19355    0.81705
  1    36     -3.18253    0.71306
  1    37     -3.11875    0.26799


Fermi level: -3.21205

No gap
Writing to output.gpw (mode='')


Forces in eV/Ang:
  0 Li    0.00021    0.01269   -0.27002
  1 Li   -0.00101    0.00242   -0.28259
  2 Li   -0.00101    0.00769   -0.26968
  3 Li   -0.00186   -0.01200   -0.27089
  4 Li   -0.00020    0.00106   -0.28878
  5 Li   -0.00060   -0.00516   -0.27469
  6 Li    0.00998   -0.00037   -0.26758
  7 Li    0.00556    0.00198   -0.26784
  8 Li   -0.01558   -0.00168   -0.26588
  9 Li   -0.00598    0.00944    0.27044
 10 Li    0.01323    0.02779    0.26440
 11 Li   -0.00163    0.01716    0.25041
 12 Li   -0.00613    0.00049    0.24129
 13 Li   -0.04064   -0.01137    0.28733
 14 Li    0.05399   -0.01114    0.28562
 15 Li   -0.00864   -0.01110    0.28603
 16 Li    0.01250   -0.01986    0.27927
 17 Li    0.00187   -0.01082    0.27135
 18 Li    0.00405    0.00346    0.01178
 19 Li    0.00047    0.00880   -0.00888
 20 Li   -0.00358    0.00312    0.00735
 21 Li    0.00520   -0.00570   -0.01402
 22 Li    0.00187   -0.00454    0.00422
 23 Li   -0.00497   -0.00478   -0.01476
 24 Li    0.00693   -0.00454    0.00537
 25 Li    0.00068   -0.01434   -0.00185
 26 Li   -0.00800   -0.00505    0.00536
 27 Li   -0.00445    0.01076   -0.02927
 28 Li    0.00490    0.00639    0.00415
 29 Li   -0.00181    0.00777   -0.00605
 30 Li   -0.00472   -0.00440   -0.01224
 31 Li   -0.00881   -0.00315    0.00481
 32 Li    0.01494   -0.00624    0.00854
 33 Li   -0.00318   -0.01498   -0.00375
 34 Li   -0.00245   -0.00112    0.00586
 35 Li    0.00724    0.00209    0.00372
 36 O     0.00706   -0.01843   -0.00931
 37 C     0.01099   -0.00756   -0.00072
 38 C    -0.00449   -0.00057    0.02304
 39 C    -0.00411    0.00169    0.01402
 40 H    -0.00656    0.02905   -0.03284
 41 H     0.01391   -0.00310   -0.02361
 42 H     0.00311    0.03995    0.01143
 43 H    -0.01862    0.00866    0.01242
 44 H    -0.00323    0.01831   -0.01544
 45 H     0.00355   -0.01395   -0.00687
 46 H     0.00926    0.00119   -0.01445
 47 H     0.00435    0.00079   -0.00554
 48 N    -0.00549   -0.01790    0.02027
 49 N     0.01936   -0.00465   -0.02268

Timing:                                      incl.     excl.
-------------------------------------------------------------------
Density initialized from wave functions:     6.348     6.346   0.0% |
 Symmetrize density:                         0.002     0.002   0.0% |
Forces:                                     44.320    44.320   0.2% |
Hamiltonian:                               606.914     0.014   0.0% |
 Atomic:                                     0.025     0.025   0.0% |
  XC Correction:                             0.000     0.000   0.0% |
 Calculate atomic Hamiltonians:              0.043     0.043   0.0% |
 Communicate:                               11.224    11.224   0.0% |
 Hartree integrate/restrict:                 2.284     2.284   0.0% |
 Initialize Hamiltonian:                     0.000     0.000   0.0% |
 Poisson:                                   28.265    10.345   0.0% |
  Communicate from 1D:                       2.869     2.869   0.0% |
  Communicate from 2D:                       2.866     2.866   0.0% |
  Communicate to 1D:                         1.547     1.547   0.0% |
  Communicate to 2D:                         3.468     3.468   0.0% |
  FFT 1D:                                    3.671     3.671   0.0% |
  FFT 2D:                                    3.498     3.498   0.0% |
 XC 3D grid:                               564.599    84.782   0.3% |
  VdW-DF integral:                         479.817     3.978   0.0% |
   Convolution:                             43.901    43.901   0.2% |
   FFT:                                     18.665    18.665   0.1% |
   gather:                                 164.201   164.201   0.6% |
   hmm1:                                    15.993    15.993   0.1% |
   hmm2:                                    20.771    20.771   0.1% |
   iFFT:                                    19.193    19.193   0.1% |
   potential:                              189.521     5.045   0.0% |
    collect:                                29.909    29.909   0.1% |
    p1:                                     85.140    85.140   0.3% |
    p2:                                     31.888    31.888   0.1% |
    sum:                                    37.539    37.539   0.1% |
   splines:                                  3.595     3.595   0.0% |
 vbar:                                       0.461     0.461   0.0% |
LCAO initialization:                         1.133     0.183   0.0% |
 LCAO eigensolver:                           0.222     0.000   0.0% |
  Calculate projections:                     0.000     0.000   0.0% |
  DenseAtomicCorrection:                     0.000     0.000   0.0% |
  Distribute overlap matrix:                 0.149     0.149   0.0% |
  Orbital Layouts:                           0.071     0.071   0.0% |
  Potential matrix:                          0.001     0.001   0.0% |
  Sum over cells:                            0.001     0.001   0.0% |
 LCAO to grid:                               0.639     0.639   0.0% |
 Set positions (LCAO WFS):                   0.088     0.046   0.0% |
  Basic WFS set positions:                   0.001     0.001   0.0% |
  Basis functions set positions:             0.000     0.000   0.0% |
  P tci:                                     0.000     0.000   0.0% |
  ST tci:                                    0.012     0.012   0.0% |
  mktci:                                     0.029     0.029   0.0% |
Redistribute:                                0.064     0.064   0.0% |
SCF-cycle:                               26963.129   464.784   1.7% ||
 Davidson:                                7275.591  2187.476   7.9% |--|
  Apply hamiltonian:                       460.298   460.298   1.7% ||
  Subspace diag:                          1362.632     0.415   0.0% |
   calc_h_matrix:                          677.436   208.817   0.8% |
    Apply hamiltonian:                     468.618   468.618   1.7% ||
   diagonalize:                             69.622    69.622   0.3% |
   rotate_psi:                             615.159   615.159   2.2% ||
  calc. matrices:                         2259.525  1170.533   4.2% |-|
   Apply hamiltonian:                     1088.992  1088.992   3.9% |-|
  diagonalize:                              21.535    21.535   0.1% |
  rotate_psi:                              984.126   984.126   3.5% ||
 Density:                                  139.035     0.092   0.0% |
  Atomic density matrices:                  16.640    16.640   0.1% |
  Mix:                                      59.884    59.884   0.2% |
  Multipole moments:                         7.813     7.813   0.0% |
  Pseudo density:                           54.606    54.524   0.2% |
   Symmetrize density:                       0.082     0.082   0.0% |
 Hamiltonian:                            19063.387     0.453   0.0% |
  Atomic:                                    0.908     0.899   0.0% |
   XC Correction:                            0.009     0.009   0.0% |
  Calculate atomic Hamiltonians:             1.429     1.429   0.0% |
  Communicate:                             279.903   279.903   1.0% |
  Hartree integrate/restrict:               75.071    75.071   0.3% |
  Poisson:                                 904.173   331.186   1.2% |
   Communicate from 1D:                     91.159    91.159   0.3% |
   Communicate from 2D:                     92.737    92.737   0.3% |
   Communicate to 1D:                       50.538    50.538   0.2% |
   Communicate to 2D:                      110.566   110.566   0.4% |
   FFT 1D:                                 116.761   116.761   0.4% |
   FFT 2D:                                 111.227   111.227   0.4% |
  XC 3D grid:                            17786.889  2691.962   9.7% |---|
   VdW-DF integral:                      15094.927   126.465   0.5% |
    Convolution:                          1395.162  1395.162   5.0% |-|
    FFT:                                   592.791   592.791   2.1% ||
    gather:                               5207.750  5207.750  18.8% |-------|
    hmm1:                                  504.745   504.745   1.8% ||
    hmm2:                                  659.828   659.828   2.4% ||
    iFFT:                                  610.277   610.277   2.2% ||
    potential:                            5997.879   161.709   0.6% |
     collect:                              920.017   920.017   3.3% ||
     p1:                                  2709.668  2709.668   9.8% |---|
     p2:                                  1017.853  1017.853   3.7% ||
     sum:                                 1188.632  1188.632   4.3% |-|
    splines:                                 0.030     0.030   0.0% |
  vbar:                                     14.560    14.560   0.1% |
 Orthonormalize:                            20.331     0.014   0.0% |
  calc_s_matrix:                             2.958     2.958   0.0% |
  inverse-cholesky:                          5.767     5.767   0.0% |
  projections:                               0.002     0.002   0.0% |
  rotate_psi_s:                             11.589    11.589   0.0% |
Set symmetry:                                0.027     0.027   0.0% |
Other:                                     100.462   100.462   0.4% |
-------------------------------------------------------------------
Total:                                             27722.398 100.0%

Memory usage: 1.14 GiB
Date: Sat Mar 11 02:15:15 2023
