
  ___ ___ ___ _ _ _  
 |   |   |_  | | | | 
 | | | | | . | | | | 
 |__ |  _|___|_____|  22.8.0
 |___|_|             

User:   vazumah@r159.ib.bridges2.psc.edu
Date:   Fri Mar 10 18:36:09 2023
Arch:   x86_64
Pid:    31877
CWD:    /jet/home/vazumah/Calcs/LiMEAS/proton_donors/propan_1_ol_y/ontop/9.702_9.702/N2_y
Python: 3.11.0
gpaw:   /jet/home/vazumah/.conda/envs/GPAW_mpich/lib/python3.11/site-packages/gpaw
_gpaw:  /jet/home/vazumah/.conda/envs/GPAW_mpich/lib/python3.11/site-packages/
        _gpaw.cpython-311-x86_64-linux-gnu.so
ase:    /jet/home/vazumah/.conda/envs/GPAW_mpich/lib/python3.11/site-packages/ase (version 3.22.1)
numpy:  /jet/home/vazumah/.conda/envs/GPAW_mpich/lib/python3.11/site-packages/numpy (version 1.24.2)
scipy:  /jet/home/vazumah/.conda/envs/GPAW_mpich/lib/python3.11/site-packages/scipy (version 1.10.1)
libxc:  5.2.3
units:  Angstrom and eV
cores: 128
OpenMP: True
OMP_NUM_THREADS: 1

Input parameters:
  h: 0.16
  kpts: {size: [4, 4, 1]}
  occupations: {name: fermi-dirac,
                width: 0.05}
  poissonsolver: {dipolelayer: xy}
  xc: BEEF-vdW

System changes: positions, numbers, cell, pbc, initial_charges, initial_magmoms 

Initialize ...

species:
  Li:
    name: Lithium
    id: 830b4218f175192f93f959cfc0aad614
    Z: 3.0
    valence: 1
    core: 2
    charge: 0.0
    file: /jet/home/vazumah/datasets/gpaw-setups-0.9.20000/Li.PBE.gz
    compensation charges: {type: gauss,
                           rc: 0.33,
                           lmax: 2}
    cutoffs: {filter: 1.91,
              core: 2.55}
    valence states:
      #              energy  rcut
      - 2s(1.00)    -2.874   1.058
      - 2p(0.00)    -1.090   1.058
      -  s          24.337   1.058
  
    # Using partial waves for Li as LCAO basis

  O:
    name: Oxygen
    id: 32ecd46bf208036f09c70b0ec9a88b78
    Z: 8.0
    valence: 6
    core: 2
    charge: 0.0
    file: /jet/home/vazumah/datasets/gpaw-setups-0.9.20000/O.PBE.gz
    compensation charges: {type: gauss,
                           rc: 0.21,
                           lmax: 2}
    cutoffs: {filter: 1.17,
              core: 0.83}
    valence states:
      #              energy  rcut
      - 2s(2.00)   -23.961   0.688
      - 2p(4.00)    -9.029   0.598
      -  s           3.251   0.688
      -  p          18.182   0.598
      -  d           0.000   0.619
  
    # Using partial waves for O as LCAO basis

  C:
    name: Carbon
    id: 4aa54d4b901d75f77cc0ea3eec22967b
    Z: 6.0
    valence: 4
    core: 2
    charge: 0.0
    file: /jet/home/vazumah/datasets/gpaw-setups-0.9.20000/C.PBE.gz
    compensation charges: {type: gauss,
                           rc: 0.20,
                           lmax: 2}
    cutoffs: {filter: 1.14,
              core: 1.14}
    valence states:
      #              energy  rcut
      - 2s(2.00)   -13.751   0.635
      - 2p(2.00)    -5.284   0.635
      -  s          13.461   0.635
      -  p          21.927   0.635
      -  d           0.000   0.635
  
    # Using partial waves for C as LCAO basis

  H:
    name: Hydrogen
    id: d65de229564ff8ea4db303e23b6d1ecf
    Z: 1.0
    valence: 1
    core: 0
    charge: 0.0
    file: /jet/home/vazumah/datasets/gpaw-setups-0.9.20000/H.PBE.gz
    compensation charges: {type: gauss,
                           rc: 0.15,
                           lmax: 2}
    cutoffs: {filter: 0.85,
              core: 0.53}
    valence states:
      #              energy  rcut
      - 1s(1.00)    -6.494   0.476
      -  s          20.717   0.476
      -  p           0.000   0.476
  
    # Using partial waves for H as LCAO basis

  N:
    name: Nitrogen
    id: f7500608b86eaa90eef8b1d9a670dc53
    Z: 7.0
    valence: 5
    core: 2
    charge: 0.0
    file: /jet/home/vazumah/datasets/gpaw-setups-0.9.20000/N.PBE.gz
    compensation charges: {type: gauss,
                           rc: 0.18,
                           lmax: 2}
    cutoffs: {filter: 1.11,
              core: 0.96}
    valence states:
      #              energy  rcut
      - 2s(2.00)   -18.583   0.603
      - 2p(3.00)    -7.089   0.529
      -  s           8.629   0.603
      -  p          20.123   0.529
      -  d           0.000   0.577
  
    # Using partial waves for N as LCAO basis

Reference energy: -15487.462483  # eV

Spin-paired calculation

Convergence criteria:
 Maximum [total energy] change in last 3 cyles: 0.0005 eV / electron
 Maximum integral of absolute [dens]ity change: 0.0001 electrons / valence electron
 Maximum integral of absolute [eigenst]ate change: 4e-08 eV^2 / valence electron
 Maximum number of scf [iter]ations: 333
 (Square brackets indicate name in SCF output, whereas a 'c' in
 the SCF output indicates the quantity has converged.)

Symmetries present (total): 1

  ( 1  0  0)
  ( 0  1  0)
  ( 0  0  1)

16 k-points: 4 x 4 x 1 Monkhorst-Pack grid
8 k-points in the irreducible part of the Brillouin zone
       k-points in crystal coordinates                weights
   0:     0.12500000   -0.37500000    0.00000000          2/16
   1:     0.12500000   -0.12500000    0.00000000          2/16
   2:     0.12500000    0.12500000    0.00000000          2/16
   3:     0.12500000    0.37500000    0.00000000          2/16
   4:     0.37500000   -0.37500000    0.00000000          2/16
   5:     0.37500000   -0.12500000    0.00000000          2/16
   6:     0.37500000    0.12500000    0.00000000          2/16
   7:     0.37500000    0.37500000    0.00000000          2/16

Wave functions: Uniform real-space grid
  Kinetic energy operator: 6*3+1=19 point O(h^6) finite-difference Laplacian
  ScaLapack parameters: grid=1x1, blocksize=None
  Wavefunction extrapolation:
    Improved wavefunction reuse through dual PAW basis 

Occupation numbers: Fermi-Dirac:
  width: 0.0500  # eV
 

Eigensolver
   Davidson(niter=2) 

Densities:
  Coarse grid: 60*60*164 grid
  Fine grid: 120*120*328 grid
  Total Charge: 0.000000 

Density mixing:
  Method: separate
  Backend: pulay
  Linear mixing parameter: 0.05
  old densities: 5
  Damping of long wavelength oscillations: 50 

Hamiltonian:
  XC and Coulomb potentials evaluated on a 120*120*328 grid
  Using the BEEF-vdW Exchange-Correlation functional
  Interpolation: tri-quintic (5. degree polynomial)
  Poisson solver: FastPoissonSolver using
    Stencil: 6*3+1=19 point O(h^6) finite-difference Laplacian
    FFT axes: [0, 1]
    FST axes: [2]

Dipole correction along z-axis 

XC parameters: BEEF-vdW with 2 nearest neighbor stencil

Memory estimate:
  Process memory now: 128.31 MiB
  Calculator: 84.83 MiB
    Density: 22.60 MiB
      Arrays: 7.22 MiB
      Localized functions: 12.63 MiB
      Mixer: 2.75 MiB
    Hamiltonian: 5.72 MiB
      Arrays: 4.72 MiB
      XC: 0.00 MiB
      Poisson: 0.00 MiB
      vbar: 1.00 MiB
    Wavefunctions: 56.51 MiB
      Arrays psit_nG: 26.37 MiB
      Eigensolver: 29.47 MiB
      Projections: 0.01 MiB
      Projectors: 0.66 MiB

Total number of cores used: 128
Parallelization over k-points: 8
Domain decomposition: 2 x 2 x 4

Number of atoms: 50
Number of atomic orbitals: 176
Number of bands in calculation: 48
Number of valence electrons: 72
Bands to converge: occupied

... initialized

Initializing position-dependent things.

Density initialized from atomic densities
Creating initial wave functions:
  48 bands from LCAO basis set

       .-----------------------.  
      /|                       |  
     / |                       |  
    /  |                       |  
   /   |                       |  
  /    |                       |  
 *     |                       |  
 |     |                       |  
 |     |                       |  
 |     |                      H|  
 |     |                       |  
 |     |                       N  
 |    H|                       |  
 |  C  |                H  H   |  
 |   HH|                  C    |  
 | C Li|     Li      Li H      |  
 O   H |                       |  
 | Li  |  LLi     LLi     Ni   |  
 |     |                       |  
 Li    |LLi     LLi     Li     |  
 |   Li|     Li      Li        |  
 |    Li  Li  Li  Li  Li  Li   |  
 | Li  |   Li      Li          |  
 |     |Li      Li      Li     |  
 Li    | Li      Li            |  
 |    Li      Li      Li       |  
 |     |                       |  
 |     |                       |  
 |     |                       |  
 |     |                       |  
 |     |                       |  
 |     |                       |  
 |     .-----------------------.  
 |    /                       /   
 |   /                       /    
 |  /                       /     
 | /                       /      
 |/                       /       
 *-----------------------*        

Positions:
   0 Li     1.617037    1.617037   10.000000    ( 0.0000,  0.0000,  0.0000)
   1 Li     4.851111    1.617037   10.000000    ( 0.0000,  0.0000,  0.0000)
   2 Li     8.085185    1.617037   10.000000    ( 0.0000,  0.0000,  0.0000)
   3 Li     1.617037    4.851111   10.000000    ( 0.0000,  0.0000,  0.0000)
   4 Li     4.851111    4.851111   10.000000    ( 0.0000,  0.0000,  0.0000)
   5 Li     8.085185    4.851111   10.000000    ( 0.0000,  0.0000,  0.0000)
   6 Li     1.617037    8.085185   10.000000    ( 0.0000,  0.0000,  0.0000)
   7 Li     4.851111    8.085185   10.000000    ( 0.0000,  0.0000,  0.0000)
   8 Li     8.085185    8.085185   10.000000    ( 0.0000,  0.0000,  0.0000)
   9 Li     0.000000    0.000000   11.617037    ( 0.0000,  0.0000,  0.0000)
  10 Li     3.234074    0.000000   11.617037    ( 0.0000,  0.0000,  0.0000)
  11 Li     6.468148    0.000000   11.617037    ( 0.0000,  0.0000,  0.0000)
  12 Li     0.000000    3.234074   11.617037    ( 0.0000,  0.0000,  0.0000)
  13 Li     3.234074    3.234074   11.617037    ( 0.0000,  0.0000,  0.0000)
  14 Li     6.468148    3.234074   11.617037    ( 0.0000,  0.0000,  0.0000)
  15 Li     0.000000    6.468148   11.617037    ( 0.0000,  0.0000,  0.0000)
  16 Li     3.234074    6.468148   11.617037    ( 0.0000,  0.0000,  0.0000)
  17 Li     6.468148    6.468148   11.617037    ( 0.0000,  0.0000,  0.0000)
  18 Li     1.617038    1.617038   13.469728    ( 0.0000,  0.0000,  0.0000)
  19 Li     4.851111    1.617038   13.469729    ( 0.0000,  0.0000,  0.0000)
  20 Li     8.085184    1.617038   13.469728    ( 0.0000,  0.0000,  0.0000)
  21 Li     1.617038    4.851111   13.469729    ( 0.0000,  0.0000,  0.0000)
  22 Li     4.851111    4.851111   13.469730    ( 0.0000,  0.0000,  0.0000)
  23 Li     8.085184    4.851111   13.469729    ( 0.0000,  0.0000,  0.0000)
  24 Li     1.617038    8.085184   13.469728    ( 0.0000,  0.0000,  0.0000)
  25 Li     4.851111    8.085184   13.469729    ( 0.0000,  0.0000,  0.0000)
  26 Li     8.085184    8.085184   13.469728    ( 0.0000,  0.0000,  0.0000)
  27 Li    -0.000000   -0.000000   15.445939    ( 0.0000,  0.0000,  0.0000)
  28 Li     3.234074    0.000000   15.445939    ( 0.0000,  0.0000,  0.0000)
  29 Li     6.468148    0.000000   15.445939    ( 0.0000,  0.0000,  0.0000)
  30 Li     0.000000    3.234074   15.445939    ( 0.0000,  0.0000,  0.0000)
  31 Li     3.234076    3.234076   15.445938    ( 0.0000,  0.0000,  0.0000)
  32 Li     6.468146    3.234076   15.445938    ( 0.0000,  0.0000,  0.0000)
  33 Li     0.000000    6.468148   15.445939    ( 0.0000,  0.0000,  0.0000)
  34 Li     3.234076    6.468146   15.445938    ( 0.0000,  0.0000,  0.0000)
  35 Li     6.468146    6.468146   15.445938    ( 0.0000,  0.0000,  0.0000)
  36 O      9.702222    9.702222   18.445939    ( 0.0000,  0.0000,  0.0000)
  37 C      9.314601   12.136471   18.446069    ( 0.0000,  0.0000,  0.0000)
  38 C     10.325011   10.994282   18.456622    ( 0.0000,  0.0000,  0.0000)
  39 C      9.977014   13.516806   18.439708    ( 0.0000,  0.0000,  0.0000)
  40 H      8.671752   12.017858   17.568768    ( 0.0000,  0.0000,  0.0000)
  41 H      8.672843   12.042557   19.331748    ( 0.0000,  0.0000,  0.0000)
  42 H     10.944954   11.018090   17.556731    ( 0.0000,  0.0000,  0.0000)
  43 H     10.991914   11.087864   19.324396    ( 0.0000,  0.0000,  0.0000)
  44 H     10.603094   13.650343   17.554030    ( 0.0000,  0.0000,  0.0000)
  45 H      9.232239   14.314087   18.438902    ( 0.0000,  0.0000,  0.0000)
  46 H     10.612530   13.658355   19.317969    ( 0.0000,  0.0000,  0.0000)
  47 H      9.124664    9.653460   19.217251    ( 0.0000,  0.0000,  0.0000)
  48 N      9.702000    9.702000   16.945939    ( 0.0000,  0.0000,  0.0000)
  49 N      9.702000   10.798622   16.945939    ( 0.0000,  0.0000,  0.0000)

Unit cell:
           periodic     x           y           z      points  spacing
  1. axis:    yes    9.702222    0.000000    0.000000    60     0.1617
  2. axis:    yes    0.000000    9.702222    0.000000    60     0.1617
  3. axis:    no     0.000000    0.000000   26.351111   164     0.1607

  Lengths:   9.702222   9.702222  26.351111
  Angles:   90.000000  90.000000  90.000000

Effective grid spacing dv^(1/3) = 0.1614

     iter     time        total  log10-change:
                         energy  eigst   dens
iter:   1 18:36:25  -589.117620
iter:   2 18:36:32  -114.430462  +2.64  -0.00
iter:   3 18:36:39  -134.996033  +3.13  -0.22
iter:   4 18:36:47  -244.272443  +3.00  -0.35
Writing to output.gpw (mode='')

iter:   5 18:36:54  -290.064307  +2.67  -0.43
iter:   6 18:37:01  -328.822477  +2.35  -0.66
iter:   7 18:37:09  -340.513473  +1.95  -0.67
iter:   8 18:37:16  -340.087299  +1.51  -0.63
iter:   9 18:37:24  -341.513461  +1.24  -0.63
Writing to output.gpw (mode='')

iter:  10 18:37:31  -335.068208  +0.90  -0.67
iter:  11 18:37:38  -354.599354  +1.36  -0.69
iter:  12 18:37:46  -380.518119  +1.73  -0.62
iter:  13 18:37:53  -326.112092  +0.95  -0.54
iter:  14 18:38:01  -324.667052  +0.96  -0.78
Writing to output.gpw (mode='')

iter:  15 18:38:08  -324.445044  +1.02  -0.82
iter:  16 18:38:15  -323.827615  +0.59  -0.93
iter:  17 18:38:23  -323.415158  +0.85  -0.99
iter:  18 18:38:30  -322.790871  +0.06  -1.04
iter:  19 18:38:38  -322.575641  -0.34  -1.15
Writing to output.gpw (mode='')

iter:  20 18:38:45  -322.214168  -0.04  -1.19
iter:  21 18:38:52  -322.181380  -0.38  -1.46
iter:  22 18:39:00  -322.154562  -0.54  -1.55
iter:  23 18:39:07  -322.148011c -0.34  -1.63
iter:  24 18:39:14  -322.152632c -0.58  -1.74
Writing to output.gpw (mode='')

iter:  25 18:39:27  -322.148344c -1.05  -1.85
iter:  26 18:39:35  -322.153047c -1.24  -2.02
iter:  27 18:39:42  -322.159469c -1.37  -2.18
iter:  28 18:39:49  -322.163520c -1.59  -2.25
iter:  29 18:39:57  -322.164739c -1.68  -2.26
Writing to output.gpw (mode='')

iter:  30 18:40:04  -322.166947c -1.90  -2.49
iter:  31 18:40:11  -322.170387c -1.81  -2.61
iter:  32 18:40:19  -322.170578c -2.17  -2.50
iter:  33 18:40:26  -322.171707c -2.29  -2.79
iter:  34 18:40:34  -322.173108c -2.19  -2.95
Writing to output.gpw (mode='')

iter:  35 18:40:41  -322.173926c -2.51  -3.02
iter:  36 18:40:48  -322.174712c -2.36  -3.03
iter:  37 18:40:56  -322.175431c -2.49  -3.13
iter:  38 18:41:03  -322.176014c -2.63  -3.25
iter:  39 18:41:10  -322.176473c -2.69  -3.31
Writing to output.gpw (mode='')

iter:  40 18:41:18  -322.176937c -2.67  -3.27
iter:  41 18:41:25  -322.177286c -2.96  -3.16
iter:  42 18:41:32  -322.177569c -3.00  -3.24
iter:  43 18:41:39  -322.177761c -3.13  -3.10
iter:  44 18:41:47  -322.177971c -3.18  -3.09
Writing to output.gpw (mode='')

iter:  45 18:41:54  -322.178127c -3.30  -3.13
iter:  46 18:42:01  -322.178263c -3.22  -3.28
iter:  47 18:42:09  -322.178395c -3.35  -3.25
iter:  48 18:42:16  -322.178471c -3.32  -3.27
iter:  49 18:42:23  -322.178558c -3.42  -3.30
Writing to output.gpw (mode='')

iter:  50 18:42:31  -322.178630c -3.50  -3.31
iter:  51 18:42:38  -322.178732c -3.54  -3.26
iter:  52 18:42:45  -322.178799c -3.51  -3.30
iter:  53 18:42:52  -322.178869c -3.66  -3.41
iter:  54 18:43:00  -322.178882c -4.00  -3.46
Writing to output.gpw (mode='')

iter:  55 18:43:07  -322.178957c -3.82  -3.65
iter:  56 18:43:14  -322.178966c -4.05  -3.81
iter:  57 18:43:22  -322.178987c -4.01  -3.92
iter:  58 18:43:29  -322.178995c -4.17  -4.00
iter:  59 18:43:36  -322.179012c -4.17  -4.03c
Writing to output.gpw (mode='')

iter:  60 18:43:44  -322.179014c -4.28  -4.13c
iter:  61 18:43:51  -322.179023c -4.40  -4.25c
iter:  62 18:43:58  -322.179031c -4.43  -4.34c
iter:  63 18:44:06  -322.179044c -4.43  -4.39c
iter:  64 18:44:13  -322.179050c -4.59  -4.49c
Writing to output.gpw (mode='')

iter:  65 18:44:26  -322.179052c -4.62  -4.65c
iter:  66 18:44:34  -322.179057c -4.69  -4.70c
iter:  67 18:44:41  -322.179060c -4.78  -4.71c
iter:  68 18:44:49  -322.179062c -4.86  -4.67c
iter:  69 18:44:56  -322.179065c -4.92  -4.61c
Writing to output.gpw (mode='')

iter:  70 18:45:03  -322.179066c -5.08  -4.60c
iter:  71 18:45:11  -322.179068c -5.12  -4.55c
iter:  72 18:45:18  -322.179070c -5.03  -4.60c
iter:  73 18:45:25  -322.179070c -5.12  -4.60c
iter:  74 18:45:33  -322.179073c -5.20  -4.53c
Writing to output.gpw (mode='')

iter:  75 18:45:40  -322.179074c -5.30  -4.58c
iter:  76 18:45:47  -322.179075c -5.37  -4.57c
iter:  77 18:45:55  -322.179075c -5.50  -4.53c
iter:  78 18:46:02  -322.179077c -5.39  -4.54c
iter:  79 18:46:09  -322.179076c -5.39  -4.57c
Writing to output.gpw (mode='')

iter:  80 18:46:17  -322.179078c -5.55  -4.55c
iter:  81 18:46:24  -322.179083c -5.57  -4.58c
iter:  82 18:46:31  -322.179081c -5.73  -4.57c
iter:  83 18:46:38  -322.179082c -5.73  -4.65c
iter:  84 18:46:46  -322.179084c -5.62  -4.69c
Writing to output.gpw (mode='')

iter:  85 18:46:53  -322.179085c -5.64  -4.75c
iter:  86 18:47:01  -322.179085c -6.01  -4.95c
iter:  87 18:47:08  -322.179085c -5.86  -5.03c
iter:  88 18:47:15  -322.179085c -6.02  -5.15c
iter:  89 18:47:23  -322.179085c -6.06  -5.21c
Writing to output.gpw (mode='')

iter:  90 18:47:30  -322.179085c -6.14  -5.25c
iter:  91 18:47:37  -322.179086c -6.25  -5.30c
iter:  92 18:47:45  -322.179086c -6.45  -5.61c
iter:  93 18:47:52  -322.179086c -6.22  -5.65c
iter:  94 18:47:59  -322.179086c -6.47  -5.65c
Writing to output.gpw (mode='')

iter:  95 18:48:07  -322.179086c -6.55  -5.79c
iter:  96 18:48:14  -322.179086c -6.52  -5.87c
iter:  97 18:48:21  -322.179086c -6.50  -5.96c
iter:  98 18:48:28  -322.179086c -6.57  -5.98c
iter:  99 18:48:36  -322.179086c -6.68  -5.94c
Writing to output.gpw (mode='')

iter: 100 18:48:43  -322.179086c -6.87  -5.70c
iter: 101 18:48:51  -322.179086c -6.88  -5.75c
iter: 102 18:48:58  -322.179086c -6.87  -5.73c
iter: 103 18:49:05  -322.179086c -6.78  -5.68c
iter: 104 18:49:13  -322.179086c -6.86  -5.66c
Writing to output.gpw (mode='')

iter: 105 18:49:24  -322.179086c -6.87  -5.59c
iter: 106 18:49:33  -322.179086c -7.23  -5.61c
iter: 107 18:49:40  -322.179086c -7.25  -5.61c
iter: 108 18:49:48  -322.179086c -7.21  -5.55c
iter: 109 18:49:55  -322.179087c -7.18  -5.61c
Writing to output.gpw (mode='')

iter: 110 18:50:02  -322.179086c -7.45c -5.82c

Converged after 110 iterations.

Dipole moment: (-16.158060, -12.919235, 0.500239) |e|*Ang

Energy contributions relative to reference atoms: (reference = -15487.462483)

Kinetic:       +227.974071
Potential:     -201.309367
External:        +0.000000
XC:            -349.579226
Entropy (-ST):   -0.151752
Local:           +0.811312
--------------------------
Free energy:   -322.254963
Extrapolated:  -322.179086

Dipole-layer corrected work functions: 3.375946, 2.414316 eV

Showing only first 2 kpts
 Kpt  Band  Eigenvalues  Occupancy
  0    34     -3.14758    1.98725
  0    35     -3.03751    1.89038
  0    36     -2.74784    0.09987
  0    37     -2.65038    0.01486

  1    34     -2.94188    1.43618
  1    35     -2.90745    1.12257
  1    36     -2.85605    0.62798
  1    37     -2.81739    0.34880


Fermi level: -2.89513

No gap

Forces in eV/Ang:
  0 Li    0.01107    0.00257   -0.27507
  1 Li   -0.00028   -0.00013   -0.26652
  2 Li   -0.00995    0.00677   -0.27349
  3 Li   -0.00348    0.00533   -0.26461
  4 Li    0.00022    0.00091   -0.27942
  5 Li    0.00147    0.00338   -0.26456
  6 Li    0.00469   -0.00885   -0.27606
  7 Li   -0.00296    0.00291   -0.26935
  8 Li   -0.00286   -0.01171   -0.27473
  9 Li   -0.00260    0.00254    0.33208
 10 Li    0.01688   -0.00141    0.25254
 11 Li   -0.01699    0.00203    0.26388
 12 Li    0.00287    0.00328    0.27617
 13 Li    0.00110   -0.00107    0.26102
 14 Li   -0.00530    0.00762    0.26169
 15 Li   -0.00034   -0.00060    0.25123
 16 Li   -0.00361   -0.00046    0.25964
 17 Li    0.00515   -0.01128    0.25687
 18 Li    0.03633    0.00790   -0.05283
 19 Li    0.00054   -0.00499    0.06572
 20 Li   -0.03962    0.01808   -0.06159
 21 Li   -0.01689   -0.00993    0.07559
 22 Li   -0.00481    0.00961    0.00471
 23 Li    0.02309   -0.01106    0.08386
 24 Li    0.01393    0.00149   -0.01422
 25 Li    0.00639   -0.00646    0.04388
 26 Li   -0.01766   -0.00629   -0.02680
 27 Li    0.02054   -0.81942   -7.22682
 28 Li    0.15021   -0.02995   -0.08703
 29 Li   -0.11842   -0.01682   -0.07916
 30 Li   -0.01611   -0.12501   -0.15091
 31 Li    0.09402    0.02755   -0.08139
 32 Li   -0.07205    0.04150   -0.06673
 33 Li   -0.00460   -0.01763   -0.08405
 34 Li    0.01283   -0.00596   -0.03000
 35 Li   -0.00715   -0.02193   -0.02690
 36 O     1.75406   -3.14143   11.07909
 37 C    -0.50714    1.89048    2.38080
 38 C     1.62523    3.15575    4.97449
 39 C     0.00926   -0.11251    0.26188
 40 H    -0.59939    0.81847    0.92525
 41 H     0.01026    0.02333    0.18909
 42 H     2.95105    1.18260    1.76506
 43 H    -0.16172   -0.48515    0.88529
 44 H     0.10520    0.08844   -0.04440
 45 H    -0.08191   -0.03539   -0.05972
 46 H     0.07925   -0.01738   -0.01623
 47 H    -0.90621   -0.88007    1.55235
 48 N    -2.56090   -7.79130   -1.92305
 49 N    -1.79579    6.22014  -14.21380

System changes: positions 

Initializing position-dependent things.

Density initialized from wave functions
       .-----------------------.  
      /|                       |  
     / |                       |  
    /  |                       |  
   /   |                       |  
  /    |                       |  
 *     |                       |  
 |     |                       |  
 |     |                       |  
 |     |                      H|  
 |     O                       |  
 |     |                       N  
 |    H|                       |  
 |  C  Li      Li      LH  H   |  
 |   HH|                  C    |  
 | C   |     Li      Li H    Li|  
 |   H |                       |  
 |     |  LLi     LLi     NLi  |  
 |     |                       |  
 |     |Li      Li      Li     |  
 |   Li|     Li      Li        |  
 |    Li  Li  Li  Li  Li  Li   |  
 | Li  |   Li      Li          |  
 |     |Li      Li      Li     |  
 Li    | Li      Li            |  
 |    Li      Li      Li       |  
 |     |                       |  
 |     |                       |  
 |     |                       |  
 |     |                       |  
 |     |                       |  
 |     |                       |  
 |     .-----------------------.  
 |    /                       /   
 |   /                       /    
 |  /                       /     
 | /                       /      
 |/                       /       
 *-----------------------*        

Positions:
   0 Li     1.617037    1.617037   10.000000    ( 0.0000,  0.0000,  0.0000)
   1 Li     4.851111    1.617037   10.000000    ( 0.0000,  0.0000,  0.0000)
   2 Li     8.085185    1.617037   10.000000    ( 0.0000,  0.0000,  0.0000)
   3 Li     1.617037    4.851111   10.000000    ( 0.0000,  0.0000,  0.0000)
   4 Li     4.851111    4.851111   10.000000    ( 0.0000,  0.0000,  0.0000)
   5 Li     8.085185    4.851111   10.000000    ( 0.0000,  0.0000,  0.0000)
   6 Li     1.617037    8.085185   10.000000    ( 0.0000,  0.0000,  0.0000)
   7 Li     4.851111    8.085185   10.000000    ( 0.0000,  0.0000,  0.0000)
   8 Li     8.085185    8.085185   10.000000    ( 0.0000,  0.0000,  0.0000)
   9 Li     0.000000    0.000000   11.617037    ( 0.0000,  0.0000,  0.0000)
  10 Li     3.234074    0.000000   11.617037    ( 0.0000,  0.0000,  0.0000)
  11 Li     6.468148    0.000000   11.617037    ( 0.0000,  0.0000,  0.0000)
  12 Li     0.000000    3.234074   11.617037    ( 0.0000,  0.0000,  0.0000)
  13 Li     3.234074    3.234074   11.617037    ( 0.0000,  0.0000,  0.0000)
  14 Li     6.468148    3.234074   11.617037    ( 0.0000,  0.0000,  0.0000)
  15 Li     0.000000    6.468148   11.617037    ( 0.0000,  0.0000,  0.0000)
  16 Li     3.234074    6.468148   11.617037    ( 0.0000,  0.0000,  0.0000)
  17 Li     6.468148    6.468148   11.617037    ( 0.0000,  0.0000,  0.0000)
  18 Li     1.617131    1.617058   13.469593    ( 0.0000,  0.0000,  0.0000)
  19 Li     4.851112    1.617026   13.469898    ( 0.0000,  0.0000,  0.0000)
  20 Li     8.085082    1.617084   13.469570    ( 0.0000,  0.0000,  0.0000)
  21 Li     1.616995    4.851086   13.469923    ( 0.0000,  0.0000,  0.0000)
  22 Li     4.851099    4.851136   13.469742    ( 0.0000,  0.0000,  0.0000)
  23 Li     8.085243    4.851083   13.469944    ( 0.0000,  0.0000,  0.0000)
  24 Li     1.617074    8.085188   13.469691    ( 0.0000,  0.0000,  0.0000)
  25 Li     4.851127    8.085167   13.469842    ( 0.0000,  0.0000,  0.0000)
  26 Li     8.085139    8.085168   13.469659    ( 0.0000,  0.0000,  0.0000)
  27 Li     0.000053   -0.002099   15.427431    ( 0.0000,  0.0000,  0.0000)
  28 Li     3.234458   -0.000077   15.445716    ( 0.0000,  0.0000,  0.0000)
  29 Li     6.467845   -0.000043   15.445736    ( 0.0000,  0.0000,  0.0000)
  30 Li    -0.000041    3.233754   15.445552    ( 0.0000,  0.0000,  0.0000)
  31 Li     3.234317    3.234147   15.445730    ( 0.0000,  0.0000,  0.0000)
  32 Li     6.467961    3.234183   15.445767    ( 0.0000,  0.0000,  0.0000)
  33 Li    -0.000012    6.468103   15.445724    ( 0.0000,  0.0000,  0.0000)
  34 Li     3.234109    6.468130   15.445861    ( 0.0000,  0.0000,  0.0000)
  35 Li     6.468127    6.468089   15.445869    ( 0.0000,  0.0000,  0.0000)
  36 O      9.706714    9.694177   18.474313    ( 0.0000,  0.0000,  0.0000)
  37 C      9.313303   12.141312   18.452166    ( 0.0000,  0.0000,  0.0000)
  38 C     10.329173   11.002364   18.469362    ( 0.0000,  0.0000,  0.0000)
  39 C      9.977038   13.516518   18.440379    ( 0.0000,  0.0000,  0.0000)
  40 H      8.670217   12.019954   17.571138    ( 0.0000,  0.0000,  0.0000)
  41 H      8.672870   12.042616   19.332233    ( 0.0000,  0.0000,  0.0000)
  42 H     10.952512   11.021118   17.561251    ( 0.0000,  0.0000,  0.0000)
  43 H     10.991500   11.086622   19.326663    ( 0.0000,  0.0000,  0.0000)
  44 H     10.603364   13.650569   17.553916    ( 0.0000,  0.0000,  0.0000)
  45 H      9.232030   14.313997   18.438749    ( 0.0000,  0.0000,  0.0000)
  46 H     10.612733   13.658311   19.317927    ( 0.0000,  0.0000,  0.0000)
  47 H      9.122343    9.651207   19.221227    ( 0.0000,  0.0000,  0.0000)
  48 N      9.695441    9.682046   16.941014    ( 0.0000,  0.0000,  0.0000)
  49 N      9.697401   10.814552   16.909538    ( 0.0000,  0.0000,  0.0000)

Unit cell:
           periodic     x           y           z      points  spacing
  1. axis:    yes    9.702222    0.000000    0.000000    60     0.1617
  2. axis:    yes    0.000000    9.702222    0.000000    60     0.1617
  3. axis:    no     0.000000    0.000000   26.351111   164     0.1607

  Lengths:   9.702222   9.702222  26.351111
  Angles:   90.000000  90.000000  90.000000

Effective grid spacing dv^(1/3) = 0.1614

     iter     time        total  log10-change:
                         energy  eigst   dens
iter:   1 18:50:11  -323.964821  -0.34
iter:   2 18:50:19  -323.812850  -0.60  -1.40
iter:   3 18:50:26  -323.556619  -0.86  -1.37
iter:   4 18:50:34  -323.493915  -1.54  -1.67
Writing to output.gpw (mode='')

iter:   5 18:50:41  -323.472773  -1.22  -2.05
iter:   6 18:50:48  -323.472143c -1.67  -2.27
iter:   7 18:50:56  -323.470726c -1.87  -2.34
iter:   8 18:51:03  -323.470794c -2.45  -2.43
iter:   9 18:51:10  -323.469615c -2.58  -2.45
Writing to output.gpw (mode='')

iter:  10 18:51:18  -323.469854c -2.77  -2.75
iter:  11 18:51:25  -323.469862c -2.75  -2.71
iter:  12 18:51:33  -323.469948c -3.29  -3.01
iter:  13 18:51:42  -323.470045c -3.20  -2.93
iter:  14 18:51:50  -323.469998c -3.46  -3.12
Writing to output.gpw (mode='')

iter:  15 18:51:57  -323.470065c -3.32  -3.15
iter:  16 18:52:05  -323.470166c -3.66  -3.23
iter:  17 18:52:12  -323.470153c -3.86  -3.21
iter:  18 18:52:19  -323.470186c -3.94  -3.43
iter:  19 18:52:27  -323.470190c -4.27  -3.61
Writing to output.gpw (mode='')

iter:  20 18:52:34  -323.470185c -4.56  -3.65
iter:  21 18:52:41  -323.470158c -4.60  -3.72
iter:  22 18:52:49  -323.470197c -4.70  -3.83
iter:  23 18:52:56  -323.470193c -4.90  -3.85
iter:  24 18:53:03  -323.470198c -4.85  -4.00c
Writing to output.gpw (mode='')

iter:  25 18:53:11  -323.470197c -5.33  -4.03c
iter:  26 18:53:18  -323.470199c -5.26  -4.06c
iter:  27 18:53:25  -323.470196c -5.44  -4.06c
iter:  28 18:53:33  -323.470190c -5.52  -4.15c
iter:  29 18:53:40  -323.470189c -5.49  -4.26c
Writing to output.gpw (mode='')

iter:  30 18:53:47  -323.470190c -5.77  -4.44c
iter:  31 18:53:55  -323.470191c -5.80  -4.45c
iter:  32 18:54:02  -323.470190c -5.89  -4.51c
iter:  33 18:54:09  -323.470193c -6.00  -4.62c
iter:  34 18:54:17  -323.470192c -6.10  -4.79c
Writing to output.gpw (mode='')

iter:  35 18:54:30  -323.470192c -5.89  -4.96c
iter:  36 18:54:38  -323.470192c -6.37  -5.04c
iter:  37 18:54:45  -323.470193c -6.33  -5.07c
iter:  38 18:54:52  -323.470192c -6.40  -5.19c
iter:  39 18:54:59  -323.470193c -6.50  -5.20c
Writing to output.gpw (mode='')

iter:  40 18:55:07  -323.470194c -6.50  -5.34c
iter:  41 18:55:14  -323.470193c -6.48  -5.39c
iter:  42 18:55:22  -323.470193c -6.64  -5.32c
iter:  43 18:55:29  -323.470193c -6.84  -5.38c
iter:  44 18:55:36  -323.470193c -6.90  -5.38c
Writing to output.gpw (mode='')

iter:  45 18:55:44  -323.470193c -7.00  -5.37c
iter:  46 18:55:51  -323.470193c -7.02  -5.39c
iter:  47 18:55:58  -323.470193c -7.23  -5.40c
iter:  48 18:56:06  -323.470193c -7.35  -5.54c
iter:  49 18:56:13  -323.470193c -7.38  -5.68c
Writing to output.gpw (mode='')

iter:  50 18:56:20  -323.470193c -7.34  -5.67c
iter:  51 18:56:28  -323.470193c -7.41c -5.74c

Converged after 51 iterations.

Dipole moment: (-15.429011, -10.024455, 0.497627) |e|*Ang

Energy contributions relative to reference atoms: (reference = -15487.462483)

Kinetic:       +218.568189
Potential:     -194.665701
External:        +0.000000
XC:            -348.109694
Entropy (-ST):   -0.152459
Local:           +0.813241
--------------------------
Free energy:   -323.546423
Extrapolated:  -323.470193

Dipole-layer corrected work functions: 3.376725, 2.420116 eV

Showing only first 2 kpts
 Kpt  Band  Eigenvalues  Occupancy
  0    34     -3.15102    1.98729
  0    35     -3.03922    1.88708
  0    36     -2.75975    0.11757
  0    37     -2.65843    0.01633

  1    34     -2.94445    1.43032
  1    35     -2.92220    1.23343
  1    36     -2.85006    0.55090
  1    37     -2.81611    0.32322


Fermi level: -2.89842

No gap
Writing to output.gpw (mode='')


Forces in eV/Ang:
  0 Li    0.01184    0.00303   -0.27679
  1 Li    0.00047   -0.00037   -0.26493
  2 Li   -0.01127    0.00754   -0.27560
  3 Li   -0.00430    0.00638   -0.26320
  4 Li    0.00042    0.00024   -0.28013
  5 Li    0.00244    0.00336   -0.26344
  6 Li    0.00466   -0.01057   -0.27774
  7 Li   -0.00324    0.00388   -0.26731
  8 Li   -0.00255   -0.01273   -0.27639
  9 Li   -0.00250    0.00289    0.34061
 10 Li    0.01635   -0.00174    0.25364
 11 Li   -0.01642    0.00178    0.26465
 12 Li    0.00276    0.00442    0.27618
 13 Li    0.00319   -0.00083    0.26063
 14 Li   -0.00744    0.00742    0.26160
 15 Li   -0.00035   -0.00161    0.24995
 16 Li   -0.00268   -0.00098    0.25913
 17 Li    0.00407   -0.01120    0.25632
 18 Li    0.03992    0.01303   -0.06637
 19 Li   -0.00048   -0.00777    0.07106
 20 Li   -0.04283    0.02269   -0.07167
 21 Li   -0.01827   -0.01071    0.07700
 22 Li   -0.00462    0.01059    0.00278
 23 Li    0.02379   -0.01118    0.08478
 24 Li    0.01742   -0.00381   -0.02360
 25 Li    0.00694   -0.00369    0.04743
 26 Li   -0.02149   -0.01213   -0.03926
 27 Li    0.03851   -0.81096   -6.82767
 28 Li    0.14298   -0.03283   -0.08115
 29 Li   -0.10848   -0.01347   -0.06914
 30 Li   -0.01721   -0.16504   -0.12272
 31 Li    0.09820    0.03432   -0.08409
 32 Li   -0.07460    0.04364   -0.06622
 33 Li   -0.00353   -0.01134   -0.07695
 34 Li    0.01387   -0.00650   -0.02994
 35 Li   -0.00989   -0.02466   -0.02830
 36 O     2.39858   -1.89298    8.84251
 37 C    -0.43489    1.55428    2.00916
 38 C     1.38831    2.46352    4.27778
 39 C     0.01318   -0.03397    0.25741
 40 H    -0.50403    0.77958    1.00985
 41 H    -0.08221    0.05190    0.31408
 42 H     2.39769    1.02104    1.89220
 43 H     0.00483   -0.35444    1.07194
 44 H     0.08715    0.06694   -0.02526
 45 H    -0.06532   -0.02782   -0.05720
 46 H     0.09205    0.00119   -0.00070
 47 H    -1.32629   -0.72384    1.88103
 48 N    -2.42446   -3.24266   -1.63835
 49 N    -1.64207    1.35578  -12.50227

System changes: positions 

Initializing position-dependent things.

Density initialized from wave functions
       .-----------------------.  
      /|                       |  
     / |                       |  
    /  |                       |  
   /   |                       |  
  /    |                       |  
 *     |                       |  
 |     |                       |  
 |     |                       |  
 |     |                      H|  
 |     O                       |  
 |     |                       N  
 |    H|                       |  
 |  C  Li      Li      LH  H   |  
 |   HH|                  C    |  
 | C   |     Li      Li H    Li|  
 |   H |                       |  
 |     |  LLi     LLi     NLi  |  
 |     |                       |  
 |     |Li      Li      Li     |  
 |   Li|     Li      Li        |  
 |    Li  Li  Li  Li  Li  Li   |  
 | Li  |   Li      Li          |  
 |     |Li      Li      Li     |  
 Li    | Li      Li            |  
 |    Li      Li      Li       |  
 |     |                       |  
 |     |                       |  
 |     |                       |  
 |     |                       |  
 |     |                       |  
 |     |                       |  
 |     .-----------------------.  
 |    /                       /   
 |   /                       /    
 |  /                       /     
 | /                       /      
 |/                       /       
 *-----------------------*        

Positions:
   0 Li     1.617037    1.617037   10.000000    ( 0.0000,  0.0000,  0.0000)
   1 Li     4.851111    1.617037   10.000000    ( 0.0000,  0.0000,  0.0000)
   2 Li     8.085185    1.617037   10.000000    ( 0.0000,  0.0000,  0.0000)
   3 Li     1.617037    4.851111   10.000000    ( 0.0000,  0.0000,  0.0000)
   4 Li     4.851111    4.851111   10.000000    ( 0.0000,  0.0000,  0.0000)
   5 Li     8.085185    4.851111   10.000000    ( 0.0000,  0.0000,  0.0000)
   6 Li     1.617037    8.085185   10.000000    ( 0.0000,  0.0000,  0.0000)
   7 Li     4.851111    8.085185   10.000000    ( 0.0000,  0.0000,  0.0000)
   8 Li     8.085185    8.085185   10.000000    ( 0.0000,  0.0000,  0.0000)
   9 Li     0.000000    0.000000   11.617037    ( 0.0000,  0.0000,  0.0000)
  10 Li     3.234074    0.000000   11.617037    ( 0.0000,  0.0000,  0.0000)
  11 Li     6.468148    0.000000   11.617037    ( 0.0000,  0.0000,  0.0000)
  12 Li     0.000000    3.234074   11.617037    ( 0.0000,  0.0000,  0.0000)
  13 Li     3.234074    3.234074   11.617037    ( 0.0000,  0.0000,  0.0000)
  14 Li     6.468148    3.234074   11.617037    ( 0.0000,  0.0000,  0.0000)
  15 Li     0.000000    6.468148   11.617037    ( 0.0000,  0.0000,  0.0000)
  16 Li     3.234074    6.468148   11.617037    ( 0.0000,  0.0000,  0.0000)
  17 Li     6.468148    6.468148   11.617037    ( 0.0000,  0.0000,  0.0000)
  18 Li     1.617279    1.617117   13.469328    ( 0.0000,  0.0000,  0.0000)
  19 Li     4.851108    1.616992   13.470157    ( 0.0000,  0.0000,  0.0000)
  20 Li     8.084926    1.617175   13.469296    ( 0.0000,  0.0000,  0.0000)
  21 Li     1.616928    4.851046   13.470193    ( 0.0000,  0.0000,  0.0000)
  22 Li     4.851083    4.851175   13.469747    ( 0.0000,  0.0000,  0.0000)
  23 Li     8.085327    4.851044   13.470240    ( 0.0000,  0.0000,  0.0000)
  24 Li     1.617143    8.085161   13.469586    ( 0.0000,  0.0000,  0.0000)
  25 Li     4.851153    8.085161   13.470015    ( 0.0000,  0.0000,  0.0000)
  26 Li     8.085054    8.085111   13.469491    ( 0.0000,  0.0000,  0.0000)
  27 Li     0.000232   -0.004884   15.404826    ( 0.0000,  0.0000,  0.0000)
  28 Li     3.234935   -0.000198   15.445450    ( 0.0000,  0.0000,  0.0000)
  29 Li     6.467495   -0.000081   15.445523    ( 0.0000,  0.0000,  0.0000)
  30 Li    -0.000104    3.233079   15.445200    ( 0.0000,  0.0000,  0.0000)
  31 Li     3.234668    3.234283   15.445432    ( 0.0000,  0.0000,  0.0000)
  32 Li     6.467696    3.234339   15.445539    ( 0.0000,  0.0000,  0.0000)
  33 Li    -0.000021    6.468080   15.445475    ( 0.0000,  0.0000,  0.0000)
  34 Li     3.234160    6.468106   15.445758    ( 0.0000,  0.0000,  0.0000)
  35 Li     6.468086    6.467997   15.445768    ( 0.0000,  0.0000,  0.0000)
  36 O      9.716673    9.690834   18.499168    ( 0.0000,  0.0000,  0.0000)
  37 C      9.311983   12.145828   18.458165    ( 0.0000,  0.0000,  0.0000)
  38 C     10.333369   11.009111   18.482376    ( 0.0000,  0.0000,  0.0000)
  39 C      9.977094   13.516602   18.441258    ( 0.0000,  0.0000,  0.0000)
  40 H      8.668717   12.022552   17.574850    ( 0.0000,  0.0000,  0.0000)
  41 H      8.672347   12.042869   19.333641    ( 0.0000,  0.0000,  0.0000)
  42 H     10.959388   11.024237   17.568127    ( 0.0000,  0.0000,  0.0000)
  43 H     10.991944   11.085731   19.330853    ( 0.0000,  0.0000,  0.0000)
  44 H     10.603619   13.650746   17.553878    ( 0.0000,  0.0000,  0.0000)
  45 H      9.231846   14.313920   18.438558    ( 0.0000,  0.0000,  0.0000)
  46 H     10.613085   13.658362   19.317965    ( 0.0000,  0.0000,  0.0000)
  47 H      9.116673    9.649103   19.228582    ( 0.0000,  0.0000,  0.0000)
  48 N      9.687401    9.682516   16.936076    ( 0.0000,  0.0000,  0.0000)
  49 N      9.692113   10.806740   16.870666    ( 0.0000,  0.0000,  0.0000)

Unit cell:
           periodic     x           y           z      points  spacing
  1. axis:    yes    9.702222    0.000000    0.000000    60     0.1617
  2. axis:    yes    0.000000    9.702222    0.000000    60     0.1617
  3. axis:    no     0.000000    0.000000   26.351111   164     0.1607

  Lengths:   9.702222   9.702222  26.351111
  Angles:   90.000000  90.000000  90.000000

Effective grid spacing dv^(1/3) = 0.1614

     iter     time        total  log10-change:
                         energy  eigst   dens
iter:   1 18:56:37  -324.557794  -0.79
iter:   2 18:56:44  -324.527189  -1.13  -1.76
iter:   3 18:56:51  -324.512519  -1.71  -1.87
iter:   4 18:56:59  -324.501735c -1.50  -2.22
Writing to output.gpw (mode='')

iter:   5 18:57:06  -324.505795c -2.11  -2.31
iter:   6 18:57:13  -324.505355c -2.01  -2.37
iter:   7 18:57:21  -324.499449c -2.01  -2.32
iter:   8 18:57:28  -324.499493c -2.62  -2.75
iter:   9 18:57:35  -324.500422c -2.87  -2.72
Writing to output.gpw (mode='')

iter:  10 18:57:42  -324.499779c -2.73  -2.68
iter:  11 18:57:50  -324.499494c -3.17  -2.90
iter:  12 18:57:57  -324.499527c -3.49  -2.95
iter:  13 18:58:04  -324.499781c -3.57  -3.06
iter:  14 18:58:12  -324.499547c -3.60  -3.18
Writing to output.gpw (mode='')

iter:  15 18:58:19  -324.499651c -3.97  -3.34
iter:  16 18:58:26  -324.499620c -4.34  -3.41
iter:  17 18:58:34  -324.499653c -4.34  -3.58
iter:  18 18:58:41  -324.499632c -4.71  -3.78
iter:  19 18:58:48  -324.499626c -4.65  -3.87
Writing to output.gpw (mode='')

iter:  20 18:58:56  -324.499640c -4.80  -3.96
iter:  21 18:59:03  -324.499654c -5.05  -4.10c
iter:  22 18:59:10  -324.499646c -5.17  -4.07c
iter:  23 18:59:25  -324.499650c -5.35  -4.32c
iter:  24 18:59:34  -324.499647c -5.44  -4.33c
Writing to output.gpw (mode='')

iter:  25 18:59:41  -324.499649c -5.53  -4.49c
iter:  26 18:59:48  -324.499651c -5.67  -4.52c
iter:  27 18:59:56  -324.499654c -5.75  -4.54c
iter:  28 19:00:03  -324.499652c -5.83  -4.71c
iter:  29 19:00:11  -324.499653c -5.90  -4.84c
Writing to output.gpw (mode='')

iter:  30 19:00:18  -324.499653c -5.92  -4.81c
iter:  31 19:00:26  -324.499651c -6.09  -4.76c
iter:  32 19:00:33  -324.499651c -6.29  -4.74c
iter:  33 19:00:40  -324.499654c -6.21  -4.72c
iter:  34 19:00:47  -324.499651c -6.34  -4.78c
Writing to output.gpw (mode='')

iter:  35 19:00:55  -324.499655c -6.51  -4.61c
iter:  36 19:01:02  -324.499658c -6.57  -4.84c
iter:  37 19:01:10  -324.499659c -6.65  -5.08c
iter:  38 19:01:17  -324.499659c -6.88  -5.09c
iter:  39 19:01:25  -324.499660c -6.93  -5.14c
Writing to output.gpw (mode='')

iter:  40 19:01:32  -324.499659c -7.21  -5.38c
iter:  41 19:01:39  -324.499659c -7.08  -5.50c
iter:  42 19:01:46  -324.499660c -7.14  -5.53c
iter:  43 19:01:54  -324.499660c -7.30  -5.64c
iter:  44 19:02:01  -324.499659c -7.27  -5.73c
Writing to output.gpw (mode='')

iter:  45 19:02:08  -324.499659c -7.40c -5.85c

Converged after 45 iterations.

Dipole moment: (-14.892397, -9.696393, 0.510879) |e|*Ang

Energy contributions relative to reference atoms: (reference = -15487.462483)

Kinetic:       +215.735460
Potential:     -193.234638
External:        +0.000000
XC:            -347.738341
Entropy (-ST):   -0.151561
Local:           +0.813640
--------------------------
Free energy:   -324.575440
Extrapolated:  -324.499659

Dipole-layer corrected work functions: 3.376808, 2.394724 eV

Showing only first 2 kpts
 Kpt  Band  Eigenvalues  Occupancy
  0    34     -3.13932    1.98753
  0    35     -3.02932    1.89280
  0    36     -2.74440    0.11174
  0    37     -2.64503    0.01609

  1    34     -2.92941    1.41072
  1    35     -2.91376    1.27281
  1    36     -2.83153    0.50519
  1    37     -2.80613    0.33799


Fermi level: -2.88577

No gap

Forces in eV/Ang:
  0 Li    0.01208    0.00358   -0.27720
  1 Li    0.00017   -0.00058   -0.26373
  2 Li   -0.01125    0.00781   -0.27651
  3 Li   -0.00473    0.00615   -0.26245
  4 Li    0.00046    0.00003   -0.28108
  5 Li    0.00306    0.00347   -0.26264
  6 Li    0.00462   -0.01093   -0.27842
  7 Li   -0.00307    0.00429   -0.26637
  8 Li   -0.00255   -0.01319   -0.27752
  9 Li   -0.00217    0.00339    0.34582
 10 Li    0.01614   -0.00191    0.25392
 11 Li   -0.01623    0.00151    0.26456
 12 Li    0.00248    0.00520    0.27584
 13 Li    0.00516    0.00008    0.25945
 14 Li   -0.00906    0.00693    0.26127
 15 Li   -0.00039   -0.00272    0.24872
 16 Li   -0.00237   -0.00183    0.25842
 17 Li    0.00362   -0.01052    0.25665
 18 Li    0.04378    0.01731   -0.06963
 19 Li   -0.00044   -0.00862    0.07227
 20 Li   -0.04612    0.02619   -0.07739
 21 Li   -0.01836   -0.01108    0.07737
 22 Li   -0.00423    0.01050    0.00105
 23 Li    0.02328   -0.01152    0.08517
 24 Li    0.02046   -0.00881   -0.02944
 25 Li    0.00660   -0.00252    0.04984
 26 Li   -0.02431   -0.01642   -0.04568
 27 Li    0.06271   -0.89812   -6.44889
 28 Li    0.14464   -0.03043   -0.08412
 29 Li   -0.11226   -0.01280   -0.07022
 30 Li   -0.01627   -0.16907   -0.12188
 31 Li    0.09566    0.03337   -0.08483
 32 Li   -0.07482    0.04439   -0.06643
 33 Li   -0.00347   -0.01217   -0.07664
 34 Li    0.01424   -0.00632   -0.03030
 35 Li   -0.01084   -0.02492   -0.02832
 36 O     2.60134   -1.23696    7.85852
 37 C    -0.32479    1.12421    1.58521
 38 C     1.31309    1.99736    3.79382
 39 C     0.01514    0.03224    0.24038
 40 H    -0.40932    0.71788    1.01200
 41 H    -0.15329    0.07814    0.38896
 42 H     1.92772    0.92673    2.07910
 43 H     0.14861   -0.20110    1.18349
 44 H     0.06892    0.04826   -0.00259
 45 H    -0.05360   -0.01700   -0.05337
 46 H     0.10106    0.01577    0.01280
 47 H    -1.33718   -0.53851    1.80857
 48 N    -2.43107   -3.34204   -1.87488
 49 N    -1.58110    1.41960  -11.04760

System changes: positions 

Initializing position-dependent things.

Density initialized from wave functions
       .-----------------------.  
      /|                       |  
     / |                       |  
    /  |                       |  
   /   |                       |  
  /    |                       |  
 *     |                       |  
 |     |                       |  
 |     |                       |  
 |     |                     H |  
 |     O                       |  
 |     |                       N  
 |    H|                       |  
 |  C  Li      Li      LH  H   |  
 |   HH|                  C    |  
 | C   |     Li      Li H    Li|  
 |   H |                       |  
 |     |  LLi     LLi     NLi  |  
 |     |                       |  
 |     |Li      Li      Li     |  
 |   Li|     Li      Li        |  
 |    Li  Li  Li  Li  Li  Li   |  
 | Li  |   Li      Li          |  
 |     |Li      Li      Li     |  
 Li    | Li      Li            |  
 |    Li      Li      Li       |  
 |     |                       |  
 |     |                       |  
 |     |                       |  
 |     |                       |  
 |     |                       |  
 |     |                       |  
 |     .-----------------------.  
 |    /                       /   
 |   /                       /    
 |  /                       /     
 | /                       /      
 |/                       /       
 *-----------------------*        

Positions:
   0 Li     1.617037    1.617037   10.000000    ( 0.0000,  0.0000,  0.0000)
   1 Li     4.851111    1.617037   10.000000    ( 0.0000,  0.0000,  0.0000)
   2 Li     8.085185    1.617037   10.000000    ( 0.0000,  0.0000,  0.0000)
   3 Li     1.617037    4.851111   10.000000    ( 0.0000,  0.0000,  0.0000)
   4 Li     4.851111    4.851111   10.000000    ( 0.0000,  0.0000,  0.0000)
   5 Li     8.085185    4.851111   10.000000    ( 0.0000,  0.0000,  0.0000)
   6 Li     1.617037    8.085185   10.000000    ( 0.0000,  0.0000,  0.0000)
   7 Li     4.851111    8.085185   10.000000    ( 0.0000,  0.0000,  0.0000)
   8 Li     8.085185    8.085185   10.000000    ( 0.0000,  0.0000,  0.0000)
   9 Li     0.000000    0.000000   11.617037    ( 0.0000,  0.0000,  0.0000)
  10 Li     3.234074    0.000000   11.617037    ( 0.0000,  0.0000,  0.0000)
  11 Li     6.468148    0.000000   11.617037    ( 0.0000,  0.0000,  0.0000)
  12 Li     0.000000    3.234074   11.617037    ( 0.0000,  0.0000,  0.0000)
  13 Li     3.234074    3.234074   11.617037    ( 0.0000,  0.0000,  0.0000)
  14 Li     6.468148    3.234074   11.617037    ( 0.0000,  0.0000,  0.0000)
  15 Li     0.000000    6.468148   11.617037    ( 0.0000,  0.0000,  0.0000)
  16 Li     3.234074    6.468148   11.617037    ( 0.0000,  0.0000,  0.0000)
  17 Li     6.468148    6.468148   11.617037    ( 0.0000,  0.0000,  0.0000)
  18 Li     1.617547    1.617258   13.468903    ( 0.0000,  0.0000,  0.0000)
  19 Li     4.851103    1.616932   13.470554    ( 0.0000,  0.0000,  0.0000)
  20 Li     8.084651    1.617353   13.468819    ( 0.0000,  0.0000,  0.0000)
  21 Li     1.616829    4.850984   13.470597    ( 0.0000,  0.0000,  0.0000)
  22 Li     4.851066    4.851231   13.469731    ( 0.0000,  0.0000,  0.0000)
  23 Li     8.085444    4.850981   13.470683    ( 0.0000,  0.0000,  0.0000)
  24 Li     1.617285    8.085056   13.469356    ( 0.0000,  0.0000,  0.0000)
  25 Li     4.851185    8.085167   13.470302    ( 0.0000,  0.0000,  0.0000)
  26 Li     8.084894    8.084972   13.469164    ( 0.0000,  0.0000,  0.0000)
  27 Li     0.000819   -0.010230   15.376264    ( 0.0000,  0.0000,  0.0000)
  28 Li     3.235670   -0.000341   15.445010    ( 0.0000,  0.0000,  0.0000)
  29 Li     6.466916   -0.000131   15.445182    ( 0.0000,  0.0000,  0.0000)
  30 Li    -0.000182    3.232060   15.444665    ( 0.0000,  0.0000,  0.0000)
  31 Li     3.235148    3.234466   15.444982    ( 0.0000,  0.0000,  0.0000)
  32 Li     6.467303    3.234580   15.445198    ( 0.0000,  0.0000,  0.0000)
  33 Li    -0.000035    6.468029   15.445106    ( 0.0000,  0.0000,  0.0000)
  34 Li     3.234239    6.468074   15.445599    ( 0.0000,  0.0000,  0.0000)
  35 Li     6.468014    6.467859   15.445618    ( 0.0000,  0.0000,  0.0000)
  36 O      9.733687    9.693927   18.524239    ( 0.0000,  0.0000,  0.0000)
  37 C      9.311498   12.146824   18.461474    ( 0.0000,  0.0000,  0.0000)
  38 C     10.338744   11.013220   18.495527    ( 0.0000,  0.0000,  0.0000)
  39 C      9.977200   13.517580   18.442328    ( 0.0000,  0.0000,  0.0000)
  40 H      8.667731   12.025576   17.580307    ( 0.0000,  0.0000,  0.0000)
  41 H      8.670665   12.043585   19.336661    ( 0.0000,  0.0000,  0.0000)
  42 H     10.963515   11.027685   17.580803    ( 0.0000,  0.0000,  0.0000)
  43 H     10.994460   11.086432   19.338450    ( 0.0000,  0.0000,  0.0000)
  44 H     10.603759   13.650766   17.554120    ( 0.0000,  0.0000,  0.0000)
  45 H      9.231723   14.313950   18.438325    ( 0.0000,  0.0000,  0.0000)
  46 H     10.613720   13.658626   19.318195    ( 0.0000,  0.0000,  0.0000)
  47 H      9.108487    9.648430   19.238184    ( 0.0000,  0.0000,  0.0000)
  48 N      9.675279    9.677877   16.925221    ( 0.0000,  0.0000,  0.0000)
  49 N      9.684994   10.800282   16.831838    ( 0.0000,  0.0000,  0.0000)

Unit cell:
           periodic     x           y           z      points  spacing
  1. axis:    yes    9.702222    0.000000    0.000000    60     0.1617
  2. axis:    yes    0.000000    9.702222    0.000000    60     0.1617
  3. axis:    no     0.000000    0.000000   26.351111   164     0.1607

  Lengths:   9.702222   9.702222  26.351111
  Angles:   90.000000  90.000000  90.000000

Effective grid spacing dv^(1/3) = 0.1614

     iter     time        total  log10-change:
                         energy  eigst   dens
iter:   1 19:02:17  -325.549766  -0.77
iter:   2 19:02:25  -325.542695  -1.29  -1.91
iter:   3 19:02:32  -325.537970c -1.78  -2.03
iter:   4 19:02:39  -325.532054c -1.76  -2.30
Writing to output.gpw (mode='')

iter:   5 19:02:47  -325.531546c -2.06  -2.45
iter:   6 19:02:54  -325.530932c -2.22  -2.49
iter:   7 19:03:02  -325.529553c -2.38  -2.56
iter:   8 19:03:11  -325.529862c -2.76  -2.80
iter:   9 19:03:23  -325.529870c -3.17  -2.95
Writing to output.gpw (mode='')

iter:  10 19:03:34  -325.529933c -3.13  -3.03
iter:  11 19:03:42  -325.529831c -3.43  -3.17
iter:  12 19:03:49  -325.529931c -3.52  -3.18
iter:  13 19:03:57  -325.529896c -3.93  -3.23
iter:  14 19:04:04  -325.529862c -4.05  -3.27
Writing to output.gpw (mode='')

iter:  15 19:04:11  -325.529866c -4.63  -3.54
iter:  16 19:04:26  -325.529870c -4.45  -3.56
iter:  17 19:04:34  -325.529871c -4.33  -3.68
iter:  18 19:04:41  -325.529875c -4.83  -3.71
iter:  19 19:04:49  -325.529873c -4.84  -3.87
Writing to output.gpw (mode='')

iter:  20 19:04:56  -325.529887c -4.80  -3.93
iter:  21 19:05:04  -325.529884c -5.36  -4.05c
iter:  22 19:05:11  -325.529889c -5.59  -4.13c
iter:  23 19:05:19  -325.529890c -5.69  -4.23c
iter:  24 19:05:26  -325.529889c -5.50  -4.26c
Writing to output.gpw (mode='')

iter:  25 19:05:34  -325.529891c -5.60  -4.44c
iter:  26 19:05:41  -325.529891c -6.16  -4.45c
iter:  27 19:05:48  -325.529890c -5.98  -4.50c
iter:  28 19:05:56  -325.529890c -6.15  -4.73c
iter:  29 19:06:03  -325.529891c -6.22  -4.82c
Writing to output.gpw (mode='')

iter:  30 19:06:10  -325.529891c -6.56  -4.85c
iter:  31 19:06:18  -325.529893c -6.53  -4.88c
iter:  32 19:06:25  -325.529892c -6.62  -5.08c
iter:  33 19:06:33  -325.529892c -6.56  -5.18c
iter:  34 19:06:40  -325.529892c -6.80  -5.22c
Writing to output.gpw (mode='')

iter:  35 19:06:48  -325.529892c -6.96  -5.31c
iter:  36 19:06:55  -325.529892c -6.89  -5.38c
iter:  37 19:07:02  -325.529893c -7.07  -5.52c
iter:  38 19:07:10  -325.529893c -7.04  -5.60c
iter:  39 19:07:17  -325.529893c -7.28  -5.61c
Writing to output.gpw (mode='')

iter:  40 19:07:25  -325.529893c -7.38  -5.69c
iter:  41 19:07:32  -325.529893c -7.69c -5.87c

Converged after 41 iterations.

Dipole moment: (-14.215541, -9.392330, 0.513286) |e|*Ang

Energy contributions relative to reference atoms: (reference = -15487.462483)

Kinetic:       +211.976300
Potential:     -191.047881
External:        +0.000000
XC:            -347.196006
Entropy (-ST):   -0.150766
Local:           +0.813078
--------------------------
Free energy:   -325.605276
Extrapolated:  -325.529893

Dipole-layer corrected work functions: 3.377464, 2.390753 eV

Showing only first 2 kpts
 Kpt  Band  Eigenvalues  Occupancy
  0    34     -3.13867    1.98777
  0    35     -3.03022    1.89786
  0    36     -2.74268    0.11161
  0    37     -2.64333    0.01608

  1    34     -2.92682    1.40294
  1    35     -2.91479    1.29756
  1    36     -2.82261    0.45238
  1    37     -2.80610    0.34724


Fermi level: -2.88411

No gap
Writing to output.gpw (mode='')


Forces in eV/Ang:
  0 Li    0.01242    0.00395   -0.27803
  1 Li   -0.00014   -0.00081   -0.26252
  2 Li   -0.01136    0.00815   -0.27785
  3 Li   -0.00527    0.00612   -0.26141
  4 Li    0.00057   -0.00021   -0.28224
  5 Li    0.00361    0.00364   -0.26193
  6 Li    0.00463   -0.01135   -0.27946
  7 Li   -0.00301    0.00484   -0.26535
  8 Li   -0.00245   -0.01384   -0.27897
  9 Li   -0.00195    0.00382    0.35215
 10 Li    0.01581   -0.00209    0.25463
 11 Li   -0.01594    0.00127    0.26484
 12 Li    0.00220    0.00608    0.27593
 13 Li    0.00738    0.00120    0.25830
 14 Li   -0.01068    0.00656    0.26091
 15 Li   -0.00038   -0.00365    0.24771
 16 Li   -0.00179   -0.00293    0.25740
 17 Li    0.00294   -0.01006    0.25675
 18 Li    0.04784    0.02246   -0.07457
 19 Li    0.00002   -0.00965    0.07361
 20 Li   -0.04974    0.03032   -0.08526
 21 Li   -0.01840   -0.01131    0.07702
 22 Li   -0.00424    0.01043   -0.00029
 23 Li    0.02301   -0.01171    0.08545
 24 Li    0.02488   -0.01543   -0.03724
 25 Li    0.00666   -0.00112    0.05205
 26 Li   -0.02889   -0.02241   -0.05542
 27 Li    0.10091   -0.94685   -6.06864
 28 Li    0.14199   -0.02842   -0.08404
 29 Li   -0.11388   -0.01232   -0.06965
 30 Li   -0.01387   -0.18022   -0.11403
 31 Li    0.09322    0.03264   -0.08526
 32 Li   -0.07631    0.04625   -0.06680
 33 Li   -0.00277   -0.01223   -0.07479
 34 Li    0.01434   -0.00562   -0.03061
 35 Li   -0.01234   -0.02570   -0.02880
 36 O     2.35448   -0.88123    7.16282
 37 C    -0.23032    0.90465    1.44940
 38 C     1.11345    1.67433    3.37729
 39 C     0.00466    0.01429    0.21155
 40 H    -0.36907    0.63374    0.92905
 41 H    -0.14720    0.09384    0.36485
 42 H     1.58724    0.80773    2.03292
 43 H     0.26127   -0.04888    1.22414
 44 H     0.05911    0.04100    0.01366
 45 H    -0.05442    0.00174   -0.04810
 46 H     0.10397    0.02624    0.02475
 47 H    -1.05092   -0.34147    1.38753
 48 N    -2.35117   -2.78282   -1.76187
 49 N    -1.43832    0.99507   -9.73185

System changes: positions 

Initializing position-dependent things.

Density initialized from wave functions
       .-----------------------.  
      /|                       |  
     / |                       |  
    /  |                       |  
   /   |                       |  
  /    |                       |  
 *     |                       |  
 |     |                       |  
 |     |                       |  
 |     O                     H |  
 |     |                       |  
 |     |                       N  
 |    H|                       |  
 |  C  Li      Li      LH  H   |  
 |   HH|                  C    |  
 | C   |     Li      Li H    Li|  
 |   H |                       |  
 |     |  LLi     LLi     NLi  |  
 |     |                       |  
 |     |Li      Li      Li     |  
 |   Li|     Li      Li        |  
 |    Li  Li  Li  Li  Li  Li   |  
 | Li  |   Li      Li          |  
 |     |Li      Li      Li     |  
 Li    | Li      Li            |  
 |    Li      Li      Li       |  
 |     |                       |  
 |     |                       |  
 |     |                       |  
 |     |                       |  
 |     |                       |  
 |     |                       |  
 |     .-----------------------.  
 |    /                       /   
 |   /                       /    
 |  /                       /     
 | /                       /      
 |/                       /       
 *-----------------------*        

Positions:
   0 Li     1.617037    1.617037   10.000000    ( 0.0000,  0.0000,  0.0000)
   1 Li     4.851111    1.617037   10.000000    ( 0.0000,  0.0000,  0.0000)
   2 Li     8.085185    1.617037   10.000000    ( 0.0000,  0.0000,  0.0000)
   3 Li     1.617037    4.851111   10.000000    ( 0.0000,  0.0000,  0.0000)
   4 Li     4.851111    4.851111   10.000000    ( 0.0000,  0.0000,  0.0000)
   5 Li     8.085185    4.851111   10.000000    ( 0.0000,  0.0000,  0.0000)
   6 Li     1.617037    8.085185   10.000000    ( 0.0000,  0.0000,  0.0000)
   7 Li     4.851111    8.085185   10.000000    ( 0.0000,  0.0000,  0.0000)
   8 Li     8.085185    8.085185   10.000000    ( 0.0000,  0.0000,  0.0000)
   9 Li     0.000000    0.000000   11.617037    ( 0.0000,  0.0000,  0.0000)
  10 Li     3.234074    0.000000   11.617037    ( 0.0000,  0.0000,  0.0000)
  11 Li     6.468148    0.000000   11.617037    ( 0.0000,  0.0000,  0.0000)
  12 Li     0.000000    3.234074   11.617037    ( 0.0000,  0.0000,  0.0000)
  13 Li     3.234074    3.234074   11.617037    ( 0.0000,  0.0000,  0.0000)
  14 Li     6.468148    3.234074   11.617037    ( 0.0000,  0.0000,  0.0000)
  15 Li     0.000000    6.468148   11.617037    ( 0.0000,  0.0000,  0.0000)
  16 Li     3.234074    6.468148   11.617037    ( 0.0000,  0.0000,  0.0000)
  17 Li     6.468148    6.468148   11.617037    ( 0.0000,  0.0000,  0.0000)
  18 Li     1.617951    1.617505   13.468289    ( 0.0000,  0.0000,  0.0000)
  19 Li     4.851105    1.616843   13.471092    ( 0.0000,  0.0000,  0.0000)
  20 Li     8.084244    1.617637   13.468096    ( 0.0000,  0.0000,  0.0000)
  21 Li     1.616699    4.850900   13.471127    ( 0.0000,  0.0000,  0.0000)
  22 Li     4.851040    4.851303   13.469698    ( 0.0000,  0.0000,  0.0000)
  23 Li     8.085596    4.850896   13.471274    ( 0.0000,  0.0000,  0.0000)
  24 Li     1.617528    8.084838   13.468961    ( 0.0000,  0.0000,  0.0000)
  25 Li     4.851230    8.085188   13.470706    ( 0.0000,  0.0000,  0.0000)
  26 Li     8.084623    8.084716   13.468616    ( 0.0000,  0.0000,  0.0000)
  27 Li     0.002090   -0.017837   15.342369    ( 0.0000,  0.0000,  0.0000)
  28 Li     3.236612   -0.000504   15.444426    ( 0.0000,  0.0000,  0.0000)
  29 Li     6.466117   -0.000197   15.444728    ( 0.0000,  0.0000,  0.0000)
  30 Li    -0.000251    3.230599   15.444032    ( 0.0000,  0.0000,  0.0000)
  31 Li     3.235752    3.234691   15.444384    ( 0.0000,  0.0000,  0.0000)
  32 Li     6.466761    3.234923   15.444739    ( 0.0000,  0.0000,  0.0000)
  33 Li    -0.000045    6.467953   15.444632    ( 0.0000,  0.0000,  0.0000)
  34 Li     3.234344    6.468042   15.445385    ( 0.0000,  0.0000,  0.0000)
  35 Li     6.467902    6.467668   15.445414    ( 0.0000,  0.0000,  0.0000)
  36 O      9.750967    9.699715   18.553113    ( 0.0000,  0.0000,  0.0000)
  37 C      9.311864   12.146582   18.465637    ( 0.0000,  0.0000,  0.0000)
  38 C     10.343384   11.016140   18.509098    ( 0.0000,  0.0000,  0.0000)
  39 C      9.977168   13.518285   18.443366    ( 0.0000,  0.0000,  0.0000)
  40 H      8.666609   12.028550   17.586160    ( 0.0000,  0.0000,  0.0000)
  41 H      8.668874   12.044656   19.339895    ( 0.0000,  0.0000,  0.0000)
  42 H     10.966004   11.030959   17.596195    ( 0.0000,  0.0000,  0.0000)
  43 H     10.998862   11.089051   19.348576    ( 0.0000,  0.0000,  0.0000)
  44 H     10.603876   13.650769   17.554595    ( 0.0000,  0.0000,  0.0000)
  45 H      9.231486   14.314235   18.438081    ( 0.0000,  0.0000,  0.0000)
  46 H     10.614564   13.659067   19.318621    ( 0.0000,  0.0000,  0.0000)
  47 H      9.102645    9.649777   19.244217    ( 0.0000,  0.0000,  0.0000)
  48 N      9.660207    9.674210   16.912858    ( 0.0000,  0.0000,  0.0000)
  49 N      9.677316   10.791819   16.793505    ( 0.0000,  0.0000,  0.0000)

Unit cell:
           periodic     x           y           z      points  spacing
  1. axis:    yes    9.702222    0.000000    0.000000    60     0.1617
  2. axis:    yes    0.000000    9.702222    0.000000    60     0.1617
  3. axis:    no     0.000000    0.000000   26.351111   164     0.1607

  Lengths:   9.702222   9.702222  26.351111
  Angles:   90.000000  90.000000  90.000000

Effective grid spacing dv^(1/3) = 0.1614

     iter     time        total  log10-change:
                         energy  eigst   dens
iter:   1 19:07:43  -326.557564  -0.72
iter:   2 19:07:51  -326.536327  -1.19  -1.80
iter:   3 19:07:58  -326.525526c -1.75  -1.92
iter:   4 19:08:05  -326.516957c -1.65  -2.25
Writing to output.gpw (mode='')

iter:   5 19:08:13  -326.519603c -2.23  -2.38
iter:   6 19:08:20  -326.518336c -2.14  -2.38
iter:   7 19:08:27  -326.514643c -2.06  -2.39
iter:   8 19:08:34  -326.515082c -2.53  -2.76
iter:   9 19:08:42  -326.514887c -2.87  -2.78
Writing to output.gpw (mode='')

iter:  10 19:08:49  -326.514936c -2.91  -2.92
iter:  11 19:08:56  -326.514996c -3.36  -3.07
iter:  12 19:09:04  -326.514794c -3.54  -3.18
iter:  13 19:09:11  -326.514897c -3.75  -3.22
iter:  14 19:09:26  -326.514820c -3.96  -3.26
Writing to output.gpw (mode='')

iter:  15 19:09:34  -326.514883c -4.09  -3.44
iter:  16 19:09:41  -326.514903c -4.33  -3.62
iter:  17 19:09:49  -326.514906c -4.66  -3.66
iter:  18 19:09:56  -326.514921c -4.58  -3.85
iter:  19 19:10:03  -326.514910c -4.84  -3.94
Writing to output.gpw (mode='')

iter:  20 19:10:11  -326.514917c -4.94  -3.99
iter:  21 19:10:18  -326.514928c -5.03  -4.19c
iter:  22 19:10:25  -326.514927c -5.33  -4.30c
iter:  23 19:10:33  -326.514929c -5.10  -4.36c
iter:  24 19:10:40  -326.514933c -5.46  -4.39c
Writing to output.gpw (mode='')

iter:  25 19:10:47  -326.514942c -5.51  -4.43c
iter:  26 19:10:55  -326.514939c -5.49  -4.45c
iter:  27 19:11:02  -326.514938c -5.89  -4.52c
iter:  28 19:11:09  -326.514939c -5.91  -4.64c
iter:  29 19:11:16  -326.514938c -5.87  -4.75c
Writing to output.gpw (mode='')

iter:  30 19:11:24  -326.514939c -6.16  -4.87c
iter:  31 19:11:31  -326.514940c -6.12  -5.11c
iter:  32 19:11:38  -326.514940c -6.37  -5.21c
iter:  33 19:11:46  -326.514940c -6.51  -5.19c
iter:  34 19:11:53  -326.514939c -6.39  -5.16c
Writing to output.gpw (mode='')

iter:  35 19:12:00  -326.514939c -6.73  -5.07c
iter:  36 19:12:07  -326.514939c -6.53  -5.05c
iter:  37 19:12:15  -326.514939c -6.63  -4.97c
iter:  38 19:12:22  -326.514939c -6.81  -4.99c
iter:  39 19:12:29  -326.514939c -6.95  -4.97c
Writing to output.gpw (mode='')

iter:  40 19:12:37  -326.514940c -6.91  -4.96c
iter:  41 19:12:44  -326.514941c -6.94  -4.94c
iter:  42 19:12:51  -326.514942c -7.01  -5.06c
iter:  43 19:12:58  -326.514940c -7.00  -5.13c
iter:  44 19:13:06  -326.514942c -7.30  -5.08c
Writing to output.gpw (mode='')

iter:  45 19:13:13  -326.514942c -7.33  -5.28c
iter:  46 19:13:20  -326.514942c -7.35  -5.36c
iter:  47 19:13:28  -326.514942c -7.67c -5.45c

Converged after 47 iterations.

Dipole moment: (-13.026889, -9.451605, 0.512518) |e|*Ang

Energy contributions relative to reference atoms: (reference = -15487.462483)

Kinetic:       +208.922575
Potential:     -189.368196
External:        +0.000000
XC:            -346.806563
Entropy (-ST):   -0.149815
Local:           +0.812149
--------------------------
Free energy:   -326.589850
Extrapolated:  -326.514942

Dipole-layer corrected work functions: 3.378209, 2.392973 eV

Showing only first 2 kpts
 Kpt  Band  Eigenvalues  Occupancy
  0    34     -3.14148    1.98809
  0    35     -3.03543    1.90485
  0    36     -2.74290    0.10897
  0    37     -2.64453    0.01598

  1    34     -2.92769    1.39773
  1    35     -2.91651    1.29970
  1    36     -2.81825    0.41280
  1    37     -2.80961    0.35904


Fermi level: -2.88559

No gap
Writing to output.gpw (mode='')


Forces in eV/Ang:
  0 Li    0.01277    0.00420   -0.27900
  1 Li   -0.00078   -0.00100   -0.26139
  2 Li   -0.01123    0.00844   -0.27920
  3 Li   -0.00584    0.00594   -0.26033
  4 Li    0.00069   -0.00036   -0.28361
  5 Li    0.00410    0.00402   -0.26137
  6 Li    0.00457   -0.01150   -0.28052
  7 Li   -0.00287    0.00538   -0.26451
  8 Li   -0.00228   -0.01458   -0.28051
  9 Li   -0.00184    0.00428    0.35848
 10 Li    0.01552   -0.00223    0.25550
 11 Li   -0.01565    0.00101    0.26531
 12 Li    0.00197    0.00705    0.27624
 13 Li    0.00974    0.00240    0.25713
 14 Li   -0.01222    0.00640    0.26051
 15 Li   -0.00041   -0.00453    0.24689
 16 Li   -0.00099   -0.00407    0.25619
 17 Li    0.00213   -0.00987    0.25676
 18 Li    0.05217    0.02800   -0.07908
 19 Li    0.00104   -0.01046    0.07414
 20 Li   -0.05371    0.03494   -0.09403
 21 Li   -0.01796   -0.01137    0.07602
 22 Li   -0.00462    0.01029   -0.00133
 23 Li    0.02257   -0.01210    0.08553
 24 Li    0.03046   -0.02335   -0.04596
 25 Li    0.00681   -0.00013    0.05365
 26 Li   -0.03466   -0.02953   -0.06592
 27 Li    0.14656   -0.97478   -5.60695
 28 Li    0.13812   -0.02570   -0.08317
 29 Li   -0.11619   -0.01279   -0.07002
 30 Li   -0.01030   -0.18702   -0.10826
 31 Li    0.08998    0.03062   -0.08490
 32 Li   -0.07803    0.04862   -0.06731
 33 Li   -0.00200   -0.01274   -0.07294
 34 Li    0.01395   -0.00460   -0.03100
 35 Li   -0.01354   -0.02608   -0.02917
 36 O     2.25835   -0.67841    6.24656
 37 C    -0.18024    0.76376    1.31537
 38 C     0.95165    1.44569    3.06696
 39 C    -0.00142    0.00171    0.20323
 40 H    -0.31473    0.54311    0.85298
 41 H    -0.13787    0.10459    0.34573
 42 H     1.33411    0.69255    1.90251
 43 H     0.33114    0.09947    1.18827
 44 H     0.05027    0.03231    0.02586
 45 H    -0.05063    0.00752   -0.04223
 46 H     0.09873    0.03576    0.02531
 47 H    -0.98472   -0.18413    1.21812
 48 N    -2.31516   -2.53502   -1.68224
 49 N    -1.27422    0.92888   -8.46947

System changes: positions 

Initializing position-dependent things.

Density initialized from wave functions
       .-----------------------.  
      /|                       |  
     / |                       |  
    /  |                       |  
   /   |                       |  
  /    |                       |  
 *     |                       |  
 |     |                       |  
 |     |                       |  
 |     |                     H |  
 |     |                       |  
 |     |                       N  
 |    H|                       |  
 |  C  Li      Li      LH  H   |  
 |   HH|                  C    |  
 O C   |     Li      Li H    Li|  
 |   H |                       |  
 |     |  LLi     LLi     NLi  |  
 |     |                       |  
 |     |Li      Li      Li     |  
 |   Li|     Li      Li        |  
 |    Li  Li  Li  Li  Li  Li   |  
 | Li  |   Li      Li          |  
 |     |Li      Li      Li     |  
 Li    | Li      Li            |  
 |    Li      Li      Li       |  
 |     |                       |  
 |     |                       |  
 |     |                       |  
 |     |                       |  
 |     |                       |  
 |     |                       |  
 |     .-----------------------.  
 |    /                       /   
 |   /                       /    
 |  /                       /     
 | /                       /      
 |/                       /       
 *-----------------------*        

Positions:
   0 Li     1.617037    1.617037   10.000000    ( 0.0000,  0.0000,  0.0000)
   1 Li     4.851111    1.617037   10.000000    ( 0.0000,  0.0000,  0.0000)
   2 Li     8.085185    1.617037   10.000000    ( 0.0000,  0.0000,  0.0000)
   3 Li     1.617037    4.851111   10.000000    ( 0.0000,  0.0000,  0.0000)
   4 Li     4.851111    4.851111   10.000000    ( 0.0000,  0.0000,  0.0000)
   5 Li     8.085185    4.851111   10.000000    ( 0.0000,  0.0000,  0.0000)
   6 Li     1.617037    8.085185   10.000000    ( 0.0000,  0.0000,  0.0000)
   7 Li     4.851111    8.085185   10.000000    ( 0.0000,  0.0000,  0.0000)
   8 Li     8.085185    8.085185   10.000000    ( 0.0000,  0.0000,  0.0000)
   9 Li     0.000000    0.000000   11.617037    ( 0.0000,  0.0000,  0.0000)
  10 Li     3.234074    0.000000   11.617037    ( 0.0000,  0.0000,  0.0000)
  11 Li     6.468148    0.000000   11.617037    ( 0.0000,  0.0000,  0.0000)
  12 Li     0.000000    3.234074   11.617037    ( 0.0000,  0.0000,  0.0000)
  13 Li     3.234074    3.234074   11.617037    ( 0.0000,  0.0000,  0.0000)
  14 Li     6.468148    3.234074   11.617037    ( 0.0000,  0.0000,  0.0000)
  15 Li     0.000000    6.468148   11.617037    ( 0.0000,  0.0000,  0.0000)
  16 Li     3.234074    6.468148   11.617037    ( 0.0000,  0.0000,  0.0000)
  17 Li     6.468148    6.468148   11.617037    ( 0.0000,  0.0000,  0.0000)
  18 Li     1.618519    1.617886   13.467454    ( 0.0000,  0.0000,  0.0000)
  19 Li     4.851123    1.616722   13.471785    ( 0.0000,  0.0000,  0.0000)
  20 Li     8.083675    1.618056   13.467061    ( 0.0000,  0.0000,  0.0000)
  21 Li     1.616539    4.850792   13.471794    ( 0.0000,  0.0000,  0.0000)
  22 Li     4.851000    4.851394   13.469648    ( 0.0000,  0.0000,  0.0000)
  23 Li     8.085787    4.850782   13.472037    ( 0.0000,  0.0000,  0.0000)
  24 Li     1.617909    8.084462   13.468352    ( 0.0000,  0.0000,  0.0000)
  25 Li     4.851290    8.085223   13.471239    ( 0.0000,  0.0000,  0.0000)
  26 Li     8.084202    8.084301   13.467788    ( 0.0000,  0.0000,  0.0000)
  27 Li     0.004293   -0.027749   15.303679    ( 0.0000,  0.0000,  0.0000)
  28 Li     3.237774   -0.000682   15.443691    ( 0.0000,  0.0000,  0.0000)
  29 Li     6.465055   -0.000295   15.444129    ( 0.0000,  0.0000,  0.0000)
  30 Li    -0.000290    3.228666   15.443267    ( 0.0000,  0.0000,  0.0000)
  31 Li     3.236491    3.234950   15.443620    ( 0.0000,  0.0000,  0.0000)
  32 Li     6.466039    3.235397   15.444137    ( 0.0000,  0.0000,  0.0000)
  33 Li    -0.000048    6.467846   15.444039    ( 0.0000,  0.0000,  0.0000)
  34 Li     3.234471    6.468015   15.445103    ( 0.0000,  0.0000,  0.0000)
  35 Li     6.467746    6.467419   15.445146    ( 0.0000,  0.0000,  0.0000)
  36 O      9.771326    9.706810   18.581756    ( 0.0000,  0.0000,  0.0000)
  37 C      9.312537   12.146045   18.470706    ( 0.0000,  0.0000,  0.0000)
  38 C     10.347637   11.018868   18.524562    ( 0.0000,  0.0000,  0.0000)
  39 C      9.977045   13.518786   18.444698    ( 0.0000,  0.0000,  0.0000)
  40 H      8.665590   12.031345   17.592639    ( 0.0000,  0.0000,  0.0000)
  41 H      8.666969   12.046080   19.343519    ( 0.0000,  0.0000,  0.0000)
  42 H     10.967741   11.034011   17.613452    ( 0.0000,  0.0000,  0.0000)
  43 H     11.004865   11.093918   19.360529    ( 0.0000,  0.0000,  0.0000)
  44 H     10.603976   13.650722   17.555287    ( 0.0000,  0.0000,  0.0000)
  45 H      9.231197   14.314614   18.437835    ( 0.0000,  0.0000,  0.0000)
  46 H     10.615527   13.659709   19.319101    ( 0.0000,  0.0000,  0.0000)
  47 H      9.095769    9.652921   19.250313    ( 0.0000,  0.0000,  0.0000)
  48 N      9.641036    9.669424   16.898412    ( 0.0000,  0.0000,  0.0000)
  49 N      9.669410   10.783845   16.755635    ( 0.0000,  0.0000,  0.0000)

Unit cell:
           periodic     x           y           z      points  spacing
  1. axis:    yes    9.702222    0.000000    0.000000    60     0.1617
  2. axis:    yes    0.000000    9.702222    0.000000    60     0.1617
  3. axis:    no     0.000000    0.000000   26.351111   164     0.1607

  Lengths:   9.702222   9.702222  26.351111
  Angles:   90.000000  90.000000  90.000000

Effective grid spacing dv^(1/3) = 0.1614

     iter     time        total  log10-change:
                         energy  eigst   dens
iter:   1 19:13:37  -327.475526  -0.70
iter:   2 19:13:44  -327.466270  -1.27  -1.89
iter:   3 19:13:51  -327.460511c -1.78  -2.00
iter:   4 19:13:59  -327.453199c -1.74  -2.26
Writing to output.gpw (mode='')

iter:   5 19:14:06  -327.453334c -2.16  -2.41
iter:   6 19:14:14  -327.452489c -2.21  -2.46
iter:   7 19:14:28  -327.450740c -2.27  -2.51
iter:   8 19:14:35  -327.451160c -2.69  -2.77
iter:   9 19:14:42  -327.451079c -3.08  -2.89
Writing to output.gpw (mode='')

iter:  10 19:14:50  -327.451076c -3.09  -2.98
iter:  11 19:14:57  -327.451036c -3.45  -3.14
iter:  12 19:15:05  -327.451121c -3.40  -3.14
iter:  13 19:15:12  -327.451064c -3.84  -3.17
iter:  14 19:15:19  -327.451026c -3.93  -3.24
Writing to output.gpw (mode='')

iter:  15 19:15:27  -327.451041c -4.45  -3.46
iter:  16 19:15:34  -327.451056c -4.26  -3.49
iter:  17 19:15:41  -327.451035c -4.31  -3.64
iter:  18 19:15:49  -327.451046c -4.73  -3.65
iter:  19 19:15:56  -327.451057c -4.66  -3.80
Writing to output.gpw (mode='')

iter:  20 19:16:04  -327.451073c -4.67  -3.94
iter:  21 19:16:11  -327.451071c -5.15  -4.02c
iter:  22 19:16:18  -327.451076c -5.44  -4.09c
iter:  23 19:16:26  -327.451079c -5.59  -4.14c
iter:  24 19:16:33  -327.451081c -5.57  -4.20c
Writing to output.gpw (mode='')

iter:  25 19:16:41  -327.451076c -5.66  -4.37c
iter:  26 19:16:48  -327.451078c -5.86  -4.49c
iter:  27 19:16:56  -327.451081c -5.86  -4.54c
iter:  28 19:17:03  -327.451082c -6.01  -4.61c
iter:  29 19:17:10  -327.451082c -6.08  -4.75c
Writing to output.gpw (mode='')

iter:  30 19:17:18  -327.451082c -6.52  -4.88c
iter:  31 19:17:25  -327.451082c -6.38  -4.93c
iter:  32 19:17:32  -327.451082c -6.41  -4.99c
iter:  33 19:17:40  -327.451083c -6.61  -5.19c
iter:  34 19:17:47  -327.451083c -6.61  -5.27c
Writing to output.gpw (mode='')

iter:  35 19:17:55  -327.451083c -6.69  -5.43c
iter:  36 19:18:02  -327.451083c -6.68  -5.43c
iter:  37 19:18:09  -327.451084c -6.91  -5.43c
iter:  38 19:18:16  -327.451084c -7.10  -5.61c
iter:  39 19:18:24  -327.451084c -7.11  -5.62c
Writing to output.gpw (mode='')

iter:  40 19:18:31  -327.451084c -7.24  -5.76c
iter:  41 19:18:39  -327.451084c -7.44c -5.74c

Converged after 41 iterations.

Dipole moment: (-11.430394, -9.506079, 0.505774) |e|*Ang

Energy contributions relative to reference atoms: (reference = -15487.462483)

Kinetic:       +205.555284
Potential:     -187.401666
External:        +0.000000
XC:            -346.341555
Entropy (-ST):   -0.148878
Local:           +0.811292
--------------------------
Free energy:   -327.525523
Extrapolated:  -327.451084

Dipole-layer corrected work functions: 3.379024, 2.406754 eV

Showing only first 2 kpts
 Kpt  Band  Eigenvalues  Occupancy
  0    34     -3.15034    1.98846
  0    35     -3.04712    1.91251
  0    36     -2.74923    0.10700
  0    37     -2.65166    0.01593

  1    34     -2.93498    1.39770
  1    35     -2.92212    1.28424
  1    36     -2.82612    0.41654
  1    37     -2.81297    0.33639


Fermi level: -2.89289

No gap
Writing to output.gpw (mode='')


Forces in eV/Ang:
  0 Li    0.01301    0.00432   -0.28024
  1 Li   -0.00155   -0.00114   -0.26033
  2 Li   -0.01092    0.00871   -0.28073
  3 Li   -0.00648    0.00578   -0.25916
  4 Li    0.00081   -0.00041   -0.28505
  5 Li    0.00462    0.00451   -0.26090
  6 Li    0.00438   -0.01156   -0.28179
  7 Li   -0.00276    0.00598   -0.26373
  8 Li   -0.00193   -0.01532   -0.28226
  9 Li   -0.00187    0.00474    0.36482
 10 Li    0.01519   -0.00236    0.25670
 11 Li   -0.01523    0.00080    0.26624
 12 Li    0.00180    0.00807    0.27693
 13 Li    0.01221    0.00367    0.25613
 14 Li   -0.01374    0.00643    0.26017
 15 Li   -0.00045   -0.00517    0.24629
 16 Li    0.00014   -0.00523    0.25475
 17 Li    0.00107   -0.01017    0.25667
 18 Li    0.05671    0.03397   -0.08418
 19 Li    0.00241   -0.01118    0.07418
 20 Li   -0.05774    0.04004   -0.10347
 21 Li   -0.01724   -0.01126    0.07450
 22 Li   -0.00537    0.01006   -0.00206
 23 Li    0.02210   -0.01261    0.08533
 24 Li    0.03750   -0.03289   -0.05620
 25 Li    0.00722    0.00062    0.05481
 26 Li   -0.04191   -0.03825   -0.07815
 27 Li    0.19841   -0.97158   -5.09112
 28 Li    0.13236   -0.02304   -0.08080
 29 Li   -0.11749   -0.01367   -0.06982
 30 Li   -0.00598   -0.19587   -0.10082
 31 Li    0.08679    0.02837   -0.08403
 32 Li   -0.08005    0.05150   -0.06768
 33 Li   -0.00092   -0.01305   -0.07056
 34 Li    0.01312   -0.00347   -0.03136
 35 Li   -0.01480   -0.02640   -0.02968
 36 O     2.04600   -0.66350    5.48630
 37 C    -0.14750    0.66639    1.20359
 38 C     0.78761    1.27493    2.68868
 39 C    -0.00601   -0.00127    0.19640
 40 H    -0.25696    0.45273    0.78718
 41 H    -0.13345    0.11639    0.33727
 42 H     1.11742    0.58404    1.70724
 43 H     0.38275    0.23769    1.13226
 44 H     0.03889    0.02112    0.03914
 45 H    -0.04386    0.00807   -0.03492
 46 H     0.09297    0.04648    0.02640
 47 H    -0.78762   -0.05791    0.90940
 48 N    -2.27882   -2.29438   -1.50756
 49 N    -1.07855    0.74997   -7.28638

System changes: positions 

Initializing position-dependent things.

Density initialized from wave functions
       .-----------------------.  
      /|                       |  
     / |                       |  
    /  |                       |  
   /   |                       |  
  /    |                       |  
 *     |                       |  
 |     |                       |  
 |     |                       |  
 |     |                     H |  
 |     |                       |  
 |     |                       |  
 |    H|                       N  
 |  C  Li      Li      LH  H   |  
 |   HH|                  C    |  
 O C   |     Li      Li H    Li|  
 |   H |                       |  
 |     |  LLi     LLi     NLi  |  
 |     |                       |  
 |     |Li      Li      Li     |  
 |   Li|     Li      Li        |  
 |    Li  Li  Li  Li  Li  Li   |  
 | Li  |   Li      Li          |  
 |     |Li      Li      Li     |  
 Li    | Li      Li            |  
 |    Li      Li      Li       |  
 |     |                       |  
 |     |                       |  
 |     |                       |  
 |     |                       |  
 |     |                       |  
 |     |                       |  
 |     .-----------------------.  
 |    /                       /   
 |   /                       /    
 |  /                       /     
 | /                       /      
 |/                       /       
 *-----------------------*        

Positions:
   0 Li     1.617037    1.617037   10.000000    ( 0.0000,  0.0000,  0.0000)
   1 Li     4.851111    1.617037   10.000000    ( 0.0000,  0.0000,  0.0000)
   2 Li     8.085185    1.617037   10.000000    ( 0.0000,  0.0000,  0.0000)
   3 Li     1.617037    4.851111   10.000000    ( 0.0000,  0.0000,  0.0000)
   4 Li     4.851111    4.851111   10.000000    ( 0.0000,  0.0000,  0.0000)
   5 Li     8.085185    4.851111   10.000000    ( 0.0000,  0.0000,  0.0000)
   6 Li     1.617037    8.085185   10.000000    ( 0.0000,  0.0000,  0.0000)
   7 Li     4.851111    8.085185   10.000000    ( 0.0000,  0.0000,  0.0000)
   8 Li     8.085185    8.085185   10.000000    ( 0.0000,  0.0000,  0.0000)
   9 Li     0.000000    0.000000   11.617037    ( 0.0000,  0.0000,  0.0000)
  10 Li     3.234074    0.000000   11.617037    ( 0.0000,  0.0000,  0.0000)
  11 Li     6.468148    0.000000   11.617037    ( 0.0000,  0.0000,  0.0000)
  12 Li     0.000000    3.234074   11.617037    ( 0.0000,  0.0000,  0.0000)
  13 Li     3.234074    3.234074   11.617037    ( 0.0000,  0.0000,  0.0000)
  14 Li     6.468148    3.234074   11.617037    ( 0.0000,  0.0000,  0.0000)
  15 Li     0.000000    6.468148   11.617037    ( 0.0000,  0.0000,  0.0000)
  16 Li     3.234074    6.468148   11.617037    ( 0.0000,  0.0000,  0.0000)
  17 Li     6.468148    6.468148   11.617037    ( 0.0000,  0.0000,  0.0000)
  18 Li     1.619200    1.618371   13.466470    ( 0.0000,  0.0000,  0.0000)
[...]

Dipole-layer corrected work functions: 3.408493, 3.621202 eV

Showing only first 2 kpts
 Kpt  Band  Eigenvalues  Occupancy
  0    34     -3.75458    1.98359
  0    35     -3.55021    1.33956
  0    36     -3.48065    0.67074
  0    37     -3.30321    0.02861

  1    34     -3.75197    1.98272
  1    35     -3.65674    1.88937
  1    36     -3.45738    0.48123
  1    37     -3.26907    0.01456


Fermi level: -3.51485

No gap
Writing to output.gpw (mode='')


Forces in eV/Ang:
  0 Li   -0.00822    0.01068   -0.29571
  1 Li    0.00639   -0.00748   -0.29255
  2 Li   -0.00137    0.00348   -0.25525
  3 Li    0.00693    0.01215   -0.29339
  4 Li   -0.01567    0.01804   -0.28319
  5 Li    0.00714   -0.00193   -0.29068
  6 Li    0.01324   -0.01200   -0.28510
  7 Li   -0.00931   -0.00300   -0.29232
  8 Li   -0.01092    0.01189   -0.29662
  9 Li   -0.03320    0.01144    0.27900
 10 Li    0.00312    0.00318    0.28394
 11 Li    0.02887    0.00429    0.31715
 12 Li   -0.02386   -0.04490    0.33403
 13 Li    0.03325   -0.02912    0.28401
 14 Li    0.03420   -0.06578    0.25600
 15 Li   -0.01719   -0.00442    0.29580
 16 Li    0.01852   -0.01288    0.26292
 17 Li    0.01268   -0.03503    0.25348
 18 Li    0.00591   -0.01403   -0.01787
 19 Li   -0.00419    0.01173   -0.00778
 20 Li    0.00609   -0.01187    0.03044
 21 Li    0.00122   -0.00139   -0.00066
 22 Li   -0.01939    0.00162    0.01263
 23 Li    0.00177    0.01853   -0.01049
 24 Li   -0.01006    0.00203    0.00138
 25 Li    0.01649    0.02403    0.00060
 26 Li    0.01739    0.01725    0.01121
 27 Li   -0.00128    0.00945   -0.01386
 28 Li    0.00725   -0.00216   -0.00665
 29 Li    0.01469    0.01151    0.00940
 30 Li    0.02081    0.02782    0.01193
 31 Li   -0.00993    0.00039    0.00467
 32 Li   -0.02881    0.02423   -0.01934
 33 Li   -0.00424    0.01537   -0.00314
 34 Li    0.00487   -0.01076    0.00827
 35 Li   -0.00640    0.03340   -0.00485
 36 O     0.01195    0.00830    0.01128
 37 C    -0.03236   -0.01370   -0.01179
 38 C    -0.00847   -0.02617   -0.00445
 39 C     0.01097   -0.00004    0.02299
 40 H    -0.03952   -0.00558   -0.04671
 41 H     0.02917    0.02860    0.01670
 42 H     0.00602    0.02014   -0.00283
 43 H    -0.01659   -0.03902    0.00337
 44 H     0.02363   -0.00577    0.02826
 45 H    -0.00478   -0.00328    0.04347
 46 H     0.02735    0.04815    0.00828
 47 H     0.02206    0.00577    0.03559
 48 N    -0.03097   -0.00133   -0.00322
 49 N    -0.02236   -0.00481   -0.03750

System changes: positions 

Initializing position-dependent things.

Density initialized from wave functions
       .-----------------------.  
      /|                       |  
     / |                       |  
    /  |                       |  
   /   |                       |  
  /    |                       |  
 *     |                       |  
 |     |                       |  
 |     |                       |  
 |     |                       |  
 |     |                       |  
 |     |                       |  
 |    H|                 H H   |  
 |  C H|       Li      Li C    |  
 |O CH |                H      |  
 |   Hi|     Li      Li H      |  
 |     |                       |  
 | Li  |  LiLi    LiLi    Li   |  
 |     |             N N       |  
 |     |Li      Li      LLi    |  
 |   Li|     Li      Li        |  
 |    Li  Li  Li  Li  Li  Li   |  
 | Li  |   Li      Li          |  
 |     |Li      Li      Li     |  
 Li    | Li      Li            |  
 |    Li      Li      Li       |  
 |     |                       |  
 |     |                       |  
 |     |                       |  
 |     |                       |  
 |     |                       |  
 |     |                       |  
 |     .-----------------------.  
 |    /                       /   
 |   /                       /    
 |  /                       /     
 | /                       /      
 |/                       /       
 *-----------------------*        

Positions:
   0 Li     1.617037    1.617037   10.000000    ( 0.0000,  0.0000,  0.0000)
   1 Li     4.851111    1.617037   10.000000    ( 0.0000,  0.0000,  0.0000)
   2 Li     8.085185    1.617037   10.000000    ( 0.0000,  0.0000,  0.0000)
   3 Li     1.617037    4.851111   10.000000    ( 0.0000,  0.0000,  0.0000)
   4 Li     4.851111    4.851111   10.000000    ( 0.0000,  0.0000,  0.0000)
   5 Li     8.085185    4.851111   10.000000    ( 0.0000,  0.0000,  0.0000)
   6 Li     1.617037    8.085185   10.000000    ( 0.0000,  0.0000,  0.0000)
   7 Li     4.851111    8.085185   10.000000    ( 0.0000,  0.0000,  0.0000)
   8 Li     8.085185    8.085185   10.000000    ( 0.0000,  0.0000,  0.0000)
   9 Li     0.000000    0.000000   11.617037    ( 0.0000,  0.0000,  0.0000)
  10 Li     3.234074    0.000000   11.617037    ( 0.0000,  0.0000,  0.0000)
  11 Li     6.468148    0.000000   11.617037    ( 0.0000,  0.0000,  0.0000)
  12 Li     0.000000    3.234074   11.617037    ( 0.0000,  0.0000,  0.0000)
  13 Li     3.234074    3.234074   11.617037    ( 0.0000,  0.0000,  0.0000)
  14 Li     6.468148    3.234074   11.617037    ( 0.0000,  0.0000,  0.0000)
  15 Li     0.000000    6.468148   11.617037    ( 0.0000,  0.0000,  0.0000)
  16 Li     3.234074    6.468148   11.617037    ( 0.0000,  0.0000,  0.0000)
  17 Li     6.468148    6.468148   11.617037    ( 0.0000,  0.0000,  0.0000)
  18 Li     1.632753    1.662873   13.500167    ( 0.0000,  0.0000,  0.0000)
  19 Li     4.878272    1.534692   13.511449    ( 0.0000,  0.0000,  0.0000)
  20 Li     8.078953    1.588464   13.564276    ( 0.0000,  0.0000,  0.0000)
  21 Li     1.678954    4.888412   13.468591    ( 0.0000,  0.0000,  0.0000)
  22 Li     4.949301    4.773357   13.472041    ( 0.0000,  0.0000,  0.0000)
  23 Li     8.121325    4.796163   13.496451    ( 0.0000,  0.0000,  0.0000)
  24 Li     1.574659    8.142139   13.490403    ( 0.0000,  0.0000,  0.0000)
  25 Li     4.811328    8.002591   13.490247    ( 0.0000,  0.0000,  0.0000)
  26 Li     8.015668    8.037782   13.493804    ( 0.0000,  0.0000,  0.0000)
  27 Li    -0.199889    0.168202   15.497993    ( 0.0000,  0.0000,  0.0000)
  28 Li     3.104595   -0.046838   15.456419    ( 0.0000,  0.0000,  0.0000)
  29 Li     6.380541   -0.196928   15.488874    ( 0.0000,  0.0000,  0.0000)
  30 Li     0.134349    3.299875   15.391310    ( 0.0000,  0.0000,  0.0000)
  31 Li     3.455662    3.297608   15.408462    ( 0.0000,  0.0000,  0.0000)
  32 Li     6.763789    2.890792   15.622504    ( 0.0000,  0.0000,  0.0000)
  33 Li     0.053986    6.575399   15.408804    ( 0.0000,  0.0000,  0.0000)
  34 Li     3.237068    6.482553   15.430065    ( 0.0000,  0.0000,  0.0000)
  35 Li     6.420707    6.202884   15.468527    ( 0.0000,  0.0000,  0.0000)
  36 O      9.908795    9.917390   19.484701    ( 0.0000,  0.0000,  0.0000)
  37 C      9.395837   12.318127   19.197628    ( 0.0000,  0.0000,  0.0000)
  38 C     10.446696   11.211926   19.175030    ( 0.0000,  0.0000,  0.0000)
  39 C      9.989751   13.687706   18.865207    ( 0.0000,  0.0000,  0.0000)
  40 H      8.617336   12.068079   18.468703    ( 0.0000,  0.0000,  0.0000)
  41 H      8.913541   12.332548   20.179604    ( 0.0000,  0.0000,  0.0000)
  42 H     10.945799   11.191653   18.193046    ( 0.0000,  0.0000,  0.0000)
  43 H     11.217021   11.398540   19.928698    ( 0.0000,  0.0000,  0.0000)
  44 H     10.496860   13.677506   17.894184    ( 0.0000,  0.0000,  0.0000)
  45 H      9.219949   14.461506   18.818081    ( 0.0000,  0.0000,  0.0000)
  46 H     10.727501   13.987365   19.613264    ( 0.0000,  0.0000,  0.0000)
  47 H      9.165838    9.756559   18.886746    ( 0.0000,  0.0000,  0.0000)
  48 N      7.695347   10.784710   15.603466    ( 0.0000,  0.0000,  0.0000)
  49 N      8.576887   11.684719   15.582630    ( 0.0000,  0.0000,  0.0000)

Unit cell:
           periodic     x           y           z      points  spacing
  1. axis:    yes    9.702222    0.000000    0.000000    60     0.1617
  2. axis:    yes    0.000000    9.702222    0.000000    60     0.1617
  3. axis:    no     0.000000    0.000000   26.351111   164     0.1607

  Lengths:   9.702222   9.702222  26.351111
  Angles:   90.000000  90.000000  90.000000

Effective grid spacing dv^(1/3) = 0.1614

     iter     time        total  log10-change:
                         energy  eigst   dens
iter:   1 04:08:54  -335.392288  -1.60
iter:   2 04:09:01  -335.391710  -2.36  -2.37
iter:   3 04:09:09  -335.391035c -2.94  -2.56
iter:   4 04:09:16  -335.391219c -3.30  -2.75
Writing to output.gpw (mode='')

iter:   5 04:09:30  -335.390587c -3.31  -2.71
iter:   6 04:09:37  -335.390461c -3.38  -2.98
iter:   7 04:09:45  -335.390442c -3.54  -3.16
iter:   8 04:09:52  -335.390465c -4.21  -3.28
iter:   9 04:10:00  -335.390495c -4.21  -3.34
Writing to output.gpw (mode='')

iter:  10 04:10:08  -335.390482c -4.37  -3.45
iter:  11 04:10:18  -335.390465c -4.35  -3.63
iter:  12 04:10:25  -335.390473c -4.87  -3.65
iter:  13 04:10:32  -335.390453c -4.97  -3.73
iter:  14 04:10:40  -335.390453c -4.94  -3.91
Writing to output.gpw (mode='')

iter:  15 04:10:47  -335.390453c -5.55  -3.99
iter:  16 04:10:55  -335.390462c -5.62  -4.08c
iter:  17 04:11:02  -335.390461c -6.17  -4.21c
iter:  18 04:11:10  -335.390465c -5.91  -4.25c
iter:  19 04:11:17  -335.390469c -6.14  -4.38c
Writing to output.gpw (mode='')

iter:  20 04:11:25  -335.390466c -6.29  -4.46c
iter:  21 04:11:32  -335.390465c -6.53  -4.57c
iter:  22 04:11:39  -335.390465c -6.92  -4.76c
iter:  23 04:11:47  -335.390464c -7.02  -4.82c
iter:  24 04:11:54  -335.390465c -7.09  -4.91c
Writing to output.gpw (mode='')

iter:  25 04:12:02  -335.390465c -7.26  -5.03c
iter:  26 04:12:09  -335.390465c -7.50c -5.08c

Converged after 26 iterations.

Dipole moment: (-12.594414, -15.912620, -0.109857) |e|*Ang

Energy contributions relative to reference atoms: (reference = -15487.462483)

Kinetic:       +165.364336
Potential:     -158.741851
External:        +0.000000
XC:            -342.755196
Entropy (-ST):   -0.162639
Local:           +0.823565
--------------------------
Free energy:   -335.471785
Extrapolated:  -335.390465

Dipole-layer corrected work functions: 3.408328, 3.619512 eV

Showing only first 2 kpts
 Kpt  Band  Eigenvalues  Occupancy
  0    34     -3.75338    1.98350
  0    35     -3.54923    1.33916
  0    36     -3.47971    0.67066
  0    37     -3.30215    0.02854

  1    34     -3.75078    1.98263
  1    35     -3.65637    1.89053
  1    36     -3.45680    0.48379
  1    37     -3.26851    0.01466


Fermi level: -3.51392

No gap
Writing to output.gpw (mode='')


Forces in eV/Ang:
  0 Li   -0.00816    0.01069   -0.29530
  1 Li    0.00639   -0.00748   -0.29280
  2 Li   -0.00132    0.00337   -0.25553
  3 Li    0.00685    0.01156   -0.29379
  4 Li   -0.01557    0.01797   -0.28318
  5 Li    0.00710   -0.00269   -0.29032
  6 Li    0.01334   -0.01228   -0.28532
  7 Li   -0.00943   -0.00346   -0.29178
  8 Li   -0.01068    0.01133   -0.29695
  9 Li   -0.03210    0.01481    0.28348
 10 Li   -0.00042    0.00382    0.28418
 11 Li    0.02955    0.00592    0.31989
 12 Li   -0.02288   -0.04364    0.33206
 13 Li    0.03313   -0.02778    0.28393
 14 Li    0.03362   -0.06448    0.25514
 15 Li   -0.01517   -0.00075    0.29678
 16 Li    0.01549   -0.01236    0.26290
 17 Li    0.01415   -0.03199    0.25288
 18 Li    0.00527   -0.01862   -0.02315
 19 Li   -0.00262    0.01637   -0.00458
 20 Li    0.00419   -0.01870    0.01965
 21 Li    0.00235    0.00126    0.00002
 22 Li   -0.02312   -0.00322    0.01625
 23 Li    0.00130    0.02059   -0.00796
 24 Li   -0.01122    0.00114   -0.00592
 25 Li    0.01782    0.02782    0.00076
 26 Li    0.01848    0.01577    0.00902
 27 Li    0.00315    0.00201   -0.01251
 28 Li    0.01119   -0.00178   -0.00793
 29 Li    0.00239   -0.00142    0.01502
 30 Li    0.01582    0.02355    0.01124
 31 Li   -0.00903    0.00103    0.00241
 32 Li   -0.04008    0.02309   -0.01815
 33 Li   -0.00630    0.01263   -0.00195
 34 Li    0.00512   -0.01124    0.00930
 35 Li   -0.00500    0.03508   -0.00588
 36 O     0.02197    0.00071   -0.00411
 37 C    -0.02142   -0.00412   -0.01538
 38 C    -0.01306   -0.00816    0.00247
 39 C     0.00133    0.00049    0.02049
 40 H    -0.03121    0.00478   -0.03305
 41 H     0.03170    0.02599    0.01110
 42 H     0.00635    0.01353    0.00500
 43 H    -0.02193   -0.04115    0.00189
 44 H     0.02465   -0.00314    0.02760
 45 H    -0.00123   -0.01157    0.04404
 46 H     0.01718    0.04363    0.00316
 47 H     0.01824   -0.00631    0.03916
 48 N    -0.04618   -0.01000    0.00791
 49 N    -0.02518   -0.03159   -0.01067

Timing:                                      incl.     excl.
-------------------------------------------------------------------
Density initialized from wave functions:     9.387     9.385   0.0% |
 Symmetrize density:                         0.002     0.002   0.0% |
Forces:                                     54.213    54.213   0.2% |
Hamiltonian:                               750.963     0.017   0.0% |
 Atomic:                                     0.029     0.029   0.0% |
  XC Correction:                             0.000     0.000   0.0% |
 Calculate atomic Hamiltonians:              0.052     0.052   0.0% |
 Communicate:                               12.884    12.884   0.0% |
 Hartree integrate/restrict:                 2.600     2.600   0.0% |
 Initialize Hamiltonian:                     0.000     0.000   0.0% |
 Poisson:                                   35.159    12.819   0.0% |
  Communicate from 1D:                       3.503     3.503   0.0% |
  Communicate from 2D:                       4.151     4.151   0.0% |
  Communicate to 1D:                         1.879     1.879   0.0% |
  Communicate to 2D:                         3.966     3.966   0.0% |
  FFT 1D:                                    4.507     4.507   0.0% |
  FFT 2D:                                    4.335     4.335   0.0% |
 XC 3D grid:                               699.590   108.722   0.3% |
  VdW-DF integral:                         590.868     4.868   0.0% |
   Convolution:                             53.674    53.674   0.2% |
   FFT:                                     22.453    22.453   0.1% |
   gather:                                 215.074   215.074   0.6% |
   hmm1:                                    18.674    18.674   0.1% |
   hmm2:                                    24.271    24.271   0.1% |
   iFFT:                                    23.541    23.541   0.1% |
   potential:                              224.509     6.013   0.0% |
    collect:                                36.398    36.398   0.1% |
    p1:                                    101.793   101.793   0.3% |
    p2:                                     37.277    37.277   0.1% |
    sum:                                    43.028    43.028   0.1% |
   splines:                                  3.803     3.803   0.0% |
 vbar:                                       0.631     0.631   0.0% |
LCAO initialization:                         1.157     0.183   0.0% |
 LCAO eigensolver:                           0.228     0.000   0.0% |
  Calculate projections:                     0.000     0.000   0.0% |
  DenseAtomicCorrection:                     0.000     0.000   0.0% |
  Distribute overlap matrix:                 0.210     0.210   0.0% |
  Orbital Layouts:                           0.016     0.016   0.0% |
  Potential matrix:                          0.001     0.001   0.0% |
  Sum over cells:                            0.001     0.001   0.0% |
 LCAO to grid:                               0.619     0.619   0.0% |
 Set positions (LCAO WFS):                   0.127     0.079   0.0% |
  Basic WFS set positions:                   0.001     0.001   0.0% |
  Basis functions set positions:             0.000     0.000   0.0% |
  P tci:                                     0.000     0.000   0.0% |
  ST tci:                                    0.013     0.013   0.0% |
  mktci:                                     0.032     0.032   0.0% |
Redistribute:                                0.080     0.080   0.0% |
SCF-cycle:                               33591.529   466.621   1.4% ||
 Davidson:                                9128.975  2777.517   8.0% |--|
  Apply hamiltonian:                       572.320   572.320   1.7% ||
  Subspace diag:                          1684.064     0.518   0.0% |
   calc_h_matrix:                          838.802   259.790   0.8% |
    Apply hamiltonian:                     579.012   579.012   1.7% ||
   diagonalize:                             96.173    96.173   0.3% |
   rotate_psi:                             748.570   748.570   2.2% ||
  calc. matrices:                         2895.865  1518.361   4.4% |-|
   Apply hamiltonian:                     1377.504  1377.504   4.0% |-|
  diagonalize:                              26.358    26.358   0.1% |
  rotate_psi:                             1172.851  1172.851   3.4% ||
 Density:                                  172.063     0.108   0.0% |
  Atomic density matrices:                  22.843    22.843   0.1% |
  Mix:                                      72.351    72.351   0.2% |
  Multipole moments:                         8.950     8.950   0.0% |
  Pseudo density:                           67.811    67.726   0.2% |
   Symmetrize density:                       0.085     0.085   0.0% |
 Hamiltonian:                            23798.757     0.557   0.0% |
  Atomic:                                    1.080     1.068   0.0% |
   XC Correction:                            0.012     0.012   0.0% |
  Calculate atomic Hamiltonians:             1.719     1.719   0.0% |
  Communicate:                             329.782   329.782   1.0% |
  Hartree integrate/restrict:               88.279    88.279   0.3% |
  Poisson:                                1128.676   414.216   1.2% |
   Communicate from 1D:                    110.138   110.138   0.3% |
   Communicate from 2D:                    118.068   118.068   0.3% |
   Communicate to 1D:                       63.495    63.495   0.2% |
   Communicate to 2D:                      134.266   134.266   0.4% |
   FFT 1D:                                 145.781   145.781   0.4% |
   FFT 2D:                                 142.713   142.713   0.4% |
  XC 3D grid:                            22230.395  3442.397  10.0% |---|
   VdW-DF integral:                      18787.998   158.347   0.5% |
    Convolution:                          1740.491  1740.491   5.0% |-|
    FFT:                                   736.819   736.819   2.1% ||
    gather:                               6608.184  6608.184  19.1% |-------|
    hmm1:                                  602.652   602.652   1.7% ||
    hmm2:                                  800.327   800.327   2.3% ||
    iFFT:                                  765.405   765.405   2.2% ||
    potential:                            7375.730   196.255   0.6% |
     collect:                             1160.006  1160.006   3.4% ||
     p1:                                  3298.108  3298.108   9.5% |---|
     p2:                                  1211.163  1211.163   3.5% ||
     sum:                                 1510.196  1510.196   4.4% |-|
    splines:                                 0.041     0.041   0.0% |
  vbar:                                     18.269    18.269   0.1% |
 Orthonormalize:                            25.112     0.018   0.0% |
  calc_s_matrix:                             3.604     3.604   0.0% |
  inverse-cholesky:                          7.667     7.667   0.0% |
  projections:                               0.003     0.003   0.0% |
  rotate_psi_s:                             13.820    13.820   0.0% |
Set symmetry:                                0.017     0.017   0.0% |
Other:                                     153.584   153.584   0.4% |
-------------------------------------------------------------------
Total:                                             34560.929 100.0%

Memory usage: 1.12 GiB
Date: Sat Mar 11 04:12:10 2023
