
  ___ ___ ___ _ _ _  
 |   |   |_  | | | | 
 | | | | | . | | | | 
 |__ |  _|___|_____|  22.8.0
 |___|_|             

User:   vazumah@r295.ib.bridges2.psc.edu
Date:   Fri Mar 10 21:52:35 2023
Arch:   x86_64
Pid:    98442
CWD:    /jet/home/vazumah/Calcs/LiMEAS/proton_donors/propanediol13_y/bridge/0.0_1.617/N2_y
Python: 3.11.0
gpaw:   /jet/home/vazumah/.conda/envs/GPAW_mpich/lib/python3.11/site-packages/gpaw
_gpaw:  /jet/home/vazumah/.conda/envs/GPAW_mpich/lib/python3.11/site-packages/
        _gpaw.cpython-311-x86_64-linux-gnu.so
ase:    /jet/home/vazumah/.conda/envs/GPAW_mpich/lib/python3.11/site-packages/ase (version 3.22.1)
numpy:  /jet/home/vazumah/.conda/envs/GPAW_mpich/lib/python3.11/site-packages/numpy (version 1.24.2)
scipy:  /jet/home/vazumah/.conda/envs/GPAW_mpich/lib/python3.11/site-packages/scipy (version 1.10.1)
libxc:  5.2.3
units:  Angstrom and eV
cores: 128
OpenMP: True
OMP_NUM_THREADS: 1

Input parameters:
  h: 0.16
  kpts: {size: [4, 4, 1]}
  occupations: {name: fermi-dirac,
                width: 0.05}
  poissonsolver: {dipolelayer: xy}
  xc: BEEF-vdW

System changes: positions, numbers, cell, pbc, initial_charges, initial_magmoms 

Initialize ...

species:
  Li:
    name: Lithium
    id: 830b4218f175192f93f959cfc0aad614
    Z: 3.0
    valence: 1
    core: 2
    charge: 0.0
    file: /jet/home/vazumah/datasets/gpaw-setups-0.9.20000/Li.PBE.gz
    compensation charges: {type: gauss,
                           rc: 0.33,
                           lmax: 2}
    cutoffs: {filter: 1.91,
              core: 2.55}
    valence states:
      #              energy  rcut
      - 2s(1.00)    -2.874   1.058
      - 2p(0.00)    -1.090   1.058
      -  s          24.337   1.058
  
    # Using partial waves for Li as LCAO basis

  O:
    name: Oxygen
    id: 32ecd46bf208036f09c70b0ec9a88b78
    Z: 8.0
    valence: 6
    core: 2
    charge: 0.0
    file: /jet/home/vazumah/datasets/gpaw-setups-0.9.20000/O.PBE.gz
    compensation charges: {type: gauss,
                           rc: 0.21,
                           lmax: 2}
    cutoffs: {filter: 1.17,
              core: 0.83}
    valence states:
      #              energy  rcut
      - 2s(2.00)   -23.961   0.688
      - 2p(4.00)    -9.029   0.598
      -  s           3.251   0.688
      -  p          18.182   0.598
      -  d           0.000   0.619
  
    # Using partial waves for O as LCAO basis

  C:
    name: Carbon
    id: 4aa54d4b901d75f77cc0ea3eec22967b
    Z: 6.0
    valence: 4
    core: 2
    charge: 0.0
    file: /jet/home/vazumah/datasets/gpaw-setups-0.9.20000/C.PBE.gz
    compensation charges: {type: gauss,
                           rc: 0.20,
                           lmax: 2}
    cutoffs: {filter: 1.14,
              core: 1.14}
    valence states:
      #              energy  rcut
      - 2s(2.00)   -13.751   0.635
      - 2p(2.00)    -5.284   0.635
      -  s          13.461   0.635
      -  p          21.927   0.635
      -  d           0.000   0.635
  
    # Using partial waves for C as LCAO basis

  H:
    name: Hydrogen
    id: d65de229564ff8ea4db303e23b6d1ecf
    Z: 1.0
    valence: 1
    core: 0
    charge: 0.0
    file: /jet/home/vazumah/datasets/gpaw-setups-0.9.20000/H.PBE.gz
    compensation charges: {type: gauss,
                           rc: 0.15,
                           lmax: 2}
    cutoffs: {filter: 0.85,
              core: 0.53}
    valence states:
      #              energy  rcut
      - 1s(1.00)    -6.494   0.476
      -  s          20.717   0.476
      -  p           0.000   0.476
  
    # Using partial waves for H as LCAO basis

  N:
    name: Nitrogen
    id: f7500608b86eaa90eef8b1d9a670dc53
    Z: 7.0
    valence: 5
    core: 2
    charge: 0.0
    file: /jet/home/vazumah/datasets/gpaw-setups-0.9.20000/N.PBE.gz
    compensation charges: {type: gauss,
                           rc: 0.18,
                           lmax: 2}
    cutoffs: {filter: 1.11,
              core: 0.96}
    valence states:
      #              energy  rcut
      - 2s(2.00)   -18.583   0.603
      - 2p(3.00)    -7.089   0.529
      -  s           8.629   0.603
      -  p          20.123   0.529
      -  d           0.000   0.577
  
    # Using partial waves for N as LCAO basis

Reference energy: -17528.314784  # eV

Spin-paired calculation

Convergence criteria:
 Maximum [total energy] change in last 3 cyles: 0.0005 eV / electron
 Maximum integral of absolute [dens]ity change: 0.0001 electrons / valence electron
 Maximum integral of absolute [eigenst]ate change: 4e-08 eV^2 / valence electron
 Maximum number of scf [iter]ations: 333
 (Square brackets indicate name in SCF output, whereas a 'c' in
 the SCF output indicates the quantity has converged.)

Symmetries present (total): 1

  ( 1  0  0)
  ( 0  1  0)
  ( 0  0  1)

16 k-points: 4 x 4 x 1 Monkhorst-Pack grid
8 k-points in the irreducible part of the Brillouin zone
       k-points in crystal coordinates                weights
   0:     0.12500000   -0.37500000    0.00000000          2/16
   1:     0.12500000   -0.12500000    0.00000000          2/16
   2:     0.12500000    0.12500000    0.00000000          2/16
   3:     0.12500000    0.37500000    0.00000000          2/16
   4:     0.37500000   -0.37500000    0.00000000          2/16
   5:     0.37500000   -0.12500000    0.00000000          2/16
   6:     0.37500000    0.12500000    0.00000000          2/16
   7:     0.37500000    0.37500000    0.00000000          2/16

Wave functions: Uniform real-space grid
  Kinetic energy operator: 6*3+1=19 point O(h^6) finite-difference Laplacian
  ScaLapack parameters: grid=1x1, blocksize=None
  Wavefunction extrapolation:
    Improved wavefunction reuse through dual PAW basis 

Occupation numbers: Fermi-Dirac:
  width: 0.0500  # eV
 

Eigensolver
   Davidson(niter=2) 

Densities:
  Coarse grid: 60*60*176 grid
  Fine grid: 120*120*352 grid
  Total Charge: 0.000000 

Density mixing:
  Method: separate
  Backend: pulay
  Linear mixing parameter: 0.05
  old densities: 5
  Damping of long wavelength oscillations: 50 

Hamiltonian:
  XC and Coulomb potentials evaluated on a 120*120*352 grid
  Using the BEEF-vdW Exchange-Correlation functional
  Interpolation: tri-quintic (5. degree polynomial)
  Poisson solver: FastPoissonSolver using
    Stencil: 6*3+1=19 point O(h^6) finite-difference Laplacian
    FFT axes: [0, 1]
    FST axes: [2]

Dipole correction along z-axis 

XC parameters: BEEF-vdW with 2 nearest neighbor stencil

Memory estimate:
  Process memory now: 127.46 MiB
  Calculator: 93.74 MiB
    Density: 23.40 MiB
      Arrays: 7.76 MiB
      Localized functions: 12.69 MiB
      Mixer: 2.95 MiB
    Hamiltonian: 6.08 MiB
      Arrays: 5.07 MiB
      XC: 0.00 MiB
      Poisson: 0.00 MiB
      vbar: 1.00 MiB
    Wavefunctions: 64.26 MiB
      Arrays psit_nG: 30.12 MiB
      Eigensolver: 33.47 MiB
      Projections: 0.02 MiB
      Projectors: 0.67 MiB

Total number of cores used: 128
Parallelization over k-points: 8
Domain decomposition: 2 x 2 x 4

Number of atoms: 51
Number of atomic orbitals: 180
Number of bands in calculation: 51
Number of valence electrons: 78
Bands to converge: occupied

... initialized

Initializing position-dependent things.

Density initialized from atomic densities
Creating initial wave functions:
  51 bands from LCAO basis set

       .-----------------------.  
      /|                       |  
     / |                       |  
    /  |                       |  
   /   |                       |  
  /    |                       |  
 *     |                       |  
 |     |                       |  
 |     |                       |  
 |     |                       |  
 |     |                       |  
 |     |                       |  
 |     |H                 H    |  
 |     |                       C  
 |     |H                   CO |  
 |    H|                  H    |  
 |     |                       |  
 |O    |              H  H     |  
 | N Li|     Li      LiC       |  
 |N    |  Li      Li  H   Li   |  
 | Li  |   Li      Li          |  
 |     |Li      Li      Li     |  
 Li    | Li      Li            |  
 |   LLi     LLi     LLi       |  
 |     |  Li      Li      Li   |  
 | Li  |   Li      Li          |  
 |     |Li      Li      Li     |  
 Li    | Li      Li            |  
 |    Li      Li      Li       |  
 |     |                       |  
 |     |                       |  
 |     |                       |  
 |     |                       |  
 |     |                       |  
 |     |                       |  
 |     .-----------------------.  
 |    /                       /   
 |   /                       /    
 |  /                       /     
 | /                       /      
 |/                       /       
 *-----------------------*        

Positions:
   0 Li     1.617037    1.617037   10.000000    ( 0.0000,  0.0000,  0.0000)
   1 Li     4.851111    1.617037   10.000000    ( 0.0000,  0.0000,  0.0000)
   2 Li     8.085185    1.617037   10.000000    ( 0.0000,  0.0000,  0.0000)
   3 Li     1.617037    4.851111   10.000000    ( 0.0000,  0.0000,  0.0000)
   4 Li     4.851111    4.851111   10.000000    ( 0.0000,  0.0000,  0.0000)
   5 Li     8.085185    4.851111   10.000000    ( 0.0000,  0.0000,  0.0000)
   6 Li     1.617037    8.085185   10.000000    ( 0.0000,  0.0000,  0.0000)
   7 Li     4.851111    8.085185   10.000000    ( 0.0000,  0.0000,  0.0000)
   8 Li     8.085185    8.085185   10.000000    ( 0.0000,  0.0000,  0.0000)
   9 Li     0.000000    0.000000   11.617037    ( 0.0000,  0.0000,  0.0000)
  10 Li     3.234074    0.000000   11.617037    ( 0.0000,  0.0000,  0.0000)
  11 Li     6.468148    0.000000   11.617037    ( 0.0000,  0.0000,  0.0000)
  12 Li     0.000000    3.234074   11.617037    ( 0.0000,  0.0000,  0.0000)
  13 Li     3.234074    3.234074   11.617037    ( 0.0000,  0.0000,  0.0000)
  14 Li     6.468148    3.234074   11.617037    ( 0.0000,  0.0000,  0.0000)
  15 Li     0.000000    6.468148   11.617037    ( 0.0000,  0.0000,  0.0000)
  16 Li     3.234074    6.468148   11.617037    ( 0.0000,  0.0000,  0.0000)
  17 Li     6.468148    6.468148   11.617037    ( 0.0000,  0.0000,  0.0000)
  18 Li     1.617038    1.617038   13.469728    ( 0.0000,  0.0000,  0.0000)
  19 Li     4.851111    1.617038   13.469729    ( 0.0000,  0.0000,  0.0000)
  20 Li     8.085184    1.617038   13.469728    ( 0.0000,  0.0000,  0.0000)
  21 Li     1.617038    4.851111   13.469729    ( 0.0000,  0.0000,  0.0000)
  22 Li     4.851111    4.851111   13.469730    ( 0.0000,  0.0000,  0.0000)
  23 Li     8.085184    4.851111   13.469729    ( 0.0000,  0.0000,  0.0000)
  24 Li     1.617038    8.085184   13.469728    ( 0.0000,  0.0000,  0.0000)
  25 Li     4.851111    8.085184   13.469729    ( 0.0000,  0.0000,  0.0000)
  26 Li     8.085184    8.085184   13.469728    ( 0.0000,  0.0000,  0.0000)
  27 Li    -0.000000   -0.000000   15.445939    ( 0.0000,  0.0000,  0.0000)
  28 Li     3.234074    0.000000   15.445939    ( 0.0000,  0.0000,  0.0000)
  29 Li     6.468148    0.000000   15.445939    ( 0.0000,  0.0000,  0.0000)
  30 Li     0.000000    3.234074   15.445939    ( 0.0000,  0.0000,  0.0000)
  31 Li     3.234076    3.234076   15.445938    ( 0.0000,  0.0000,  0.0000)
  32 Li     6.468146    3.234076   15.445938    ( 0.0000,  0.0000,  0.0000)
  33 Li     0.000000    6.468148   15.445939    ( 0.0000,  0.0000,  0.0000)
  34 Li     3.234076    6.468146   15.445938    ( 0.0000,  0.0000,  0.0000)
  35 Li     6.468146    6.468146   15.445938    ( 0.0000,  0.0000,  0.0000)
  36 O      0.000000    1.617037   18.445939    ( 0.0000,  0.0000,  0.0000)
  37 O     -0.020329   -3.245305   18.439829    ( 0.0000,  0.0000,  0.0000)
  38 C     -0.001545   -0.778878   18.460386    ( 0.0000,  0.0000,  0.0000)
  39 C     -0.867819    0.472167   18.448818    ( 0.0000,  0.0000,  0.0000)
  40 C     -0.831812   -2.061494   18.436457    ( 0.0000,  0.0000,  0.0000)
  41 H      0.658962   -0.756795   17.585726    ( 0.0000,  0.0000,  0.0000)
  42 H      0.635566   -0.778737   19.348391    ( 0.0000,  0.0000,  0.0000)
  43 H     -1.508078    0.477097   17.555271    ( 0.0000,  0.0000,  0.0000)
  44 H     -1.516497    0.485709   19.335503    ( 0.0000,  0.0000,  0.0000)
  45 H     -1.507378   -2.062195   17.569134    ( 0.0000,  0.0000,  0.0000)
  46 H     -1.447903   -2.138343   19.336560    ( 0.0000,  0.0000,  0.0000)
  47 H     -0.544357    2.412562   18.441073    ( 0.0000,  0.0000,  0.0000)
  48 H      0.554711   -3.212722   17.665312    ( 0.0000,  0.0000,  0.0000)
  49 N      0.000000    1.617000   16.945939    ( 0.0000,  0.0000,  0.0000)
  50 N      0.000000    2.713622   16.945939    ( 0.0000,  0.0000,  0.0000)

Unit cell:
           periodic     x           y           z      points  spacing
  1. axis:    yes    9.702222    0.000000    0.000000    60     0.1617
  2. axis:    yes    0.000000    9.702222    0.000000    60     0.1617
  3. axis:    no     0.000000    0.000000   28.351111   176     0.1611

  Lengths:   9.702222   9.702222  28.351111
  Angles:   90.000000  90.000000  90.000000

Effective grid spacing dv^(1/3) = 0.1615

     iter     time        total  log10-change:
                         energy  eigst   dens
iter:   1 21:52:50  -665.794426
iter:   2 21:52:58   -65.877531  +2.74  +0.02
iter:   3 21:53:06  -128.434536  +3.17  -0.21
iter:   4 21:53:13  -251.236435  +2.95  -0.33
Writing to output.gpw (mode='')

iter:   5 21:53:22  -301.242349  +2.64  -0.42
iter:   6 21:53:29  -346.408103  +2.34  -0.65
iter:   7 21:53:37  -365.615591  +2.02  -0.66
iter:   8 21:53:45  -360.102180  +1.62  -0.59
iter:   9 21:53:53  -348.925155  +1.31  -0.63
Writing to output.gpw (mode='')

iter:  10 21:54:01  -352.311637  +1.02  -0.79
iter:  11 21:54:09  -349.480722  +0.85  -0.72
iter:  12 21:54:17  -348.737590  +0.84  -0.75
iter:  13 21:54:25  -346.084736  +0.69  -0.79
iter:  14 21:54:36  -345.696851  +0.61  -1.01
Writing to output.gpw (mode='')

iter:  15 21:54:48  -345.521642  +0.25  -1.15
iter:  16 21:54:56  -345.167471  +0.27  -1.21
iter:  17 21:55:04  -345.339133  +0.07  -1.33
iter:  18 21:55:12  -345.276946  -0.32  -1.38
iter:  19 21:55:20  -345.142562  -0.37  -1.43
Writing to output.gpw (mode='')

iter:  20 21:55:28  -345.176729  -0.63  -1.58
iter:  21 21:55:36  -345.177850c -0.83  -1.63
iter:  22 21:55:44  -345.183814c -0.71  -1.74
iter:  23 21:55:52  -345.167276c -1.31  -1.81
iter:  24 21:56:00  -345.172636c -1.28  -1.92
Writing to output.gpw (mode='')

iter:  25 21:56:08  -345.179477c -1.49  -2.04
iter:  26 21:56:16  -345.187112c -1.55  -2.13
iter:  27 21:56:24  -345.191489c -1.56  -2.19
iter:  28 21:56:32  -345.191901c -1.73  -2.23
iter:  29 21:56:40  -345.195138c -1.51  -2.34
Writing to output.gpw (mode='')

iter:  30 21:56:48  -345.197227c -1.84  -2.53
iter:  31 21:56:56  -345.200205c -1.95  -2.65
iter:  32 21:57:04  -345.201392c -2.25  -2.71
iter:  33 21:57:12  -345.202646c -2.17  -2.72
iter:  34 21:57:20  -345.203897c -2.24  -2.86
Writing to output.gpw (mode='')

iter:  35 21:57:28  -345.204914c -2.19  -2.88
iter:  36 21:57:36  -345.206105c -2.32  -2.90
iter:  37 21:57:44  -345.206881c -2.47  -2.99
iter:  38 21:57:52  -345.207506c -2.52  -3.12
iter:  39 21:58:00  -345.207999c -2.72  -3.24
Writing to output.gpw (mode='')

iter:  40 21:58:08  -345.208500c -2.80  -3.30
iter:  41 21:58:16  -345.208849c -2.91  -3.46
iter:  42 21:58:24  -345.209278c -2.72  -3.51
iter:  43 21:58:32  -345.209593c -2.94  -3.57
iter:  44 21:58:40  -345.209949c -2.84  -3.60
Writing to output.gpw (mode='')

iter:  45 21:58:48  -345.210224c -2.96  -3.72
iter:  46 21:58:56  -345.210394c -3.11  -3.82
iter:  47 21:59:04  -345.210552c -3.23  -3.83
iter:  48 21:59:12  -345.210667c -3.31  -3.81
iter:  49 21:59:20  -345.210832c -3.21  -3.73
Writing to output.gpw (mode='')

iter:  50 21:59:28  -345.210991c -3.06  -3.75
iter:  51 21:59:40  -345.211149c -3.04  -3.75
iter:  52 21:59:49  -345.211226c -3.52  -3.73
iter:  53 21:59:57  -345.211266c -3.67  -3.70
iter:  54 22:00:05  -345.211383c -3.61  -3.57
Writing to output.gpw (mode='')

iter:  55 22:00:13  -345.211452c -3.58  -3.78
iter:  56 22:00:21  -345.211536c -3.59  -3.87
iter:  57 22:00:29  -345.211595c -3.76  -3.94
iter:  58 22:00:37  -345.211637c -3.76  -3.98
iter:  59 22:00:45  -345.211668c -3.95  -3.94
Writing to output.gpw (mode='')

iter:  60 22:00:53  -345.211686c -4.09  -3.95
iter:  61 22:01:01  -345.211690c -4.20  -3.94
iter:  62 22:01:09  -345.211699c -4.26  -3.89
iter:  63 22:01:17  -345.211734c -4.18  -3.86
iter:  64 22:01:25  -345.211760c -4.13  -3.91
Writing to output.gpw (mode='')

iter:  65 22:01:33  -345.211781c -4.18  -3.95
iter:  66 22:01:41  -345.211795c -4.42  -4.01c
iter:  67 22:01:49  -345.211806c -4.59  -4.11c
iter:  68 22:01:57  -345.211814c -4.87  -4.33c
iter:  69 22:02:05  -345.211823c -4.73  -4.37c
Writing to output.gpw (mode='')

iter:  70 22:02:13  -345.211826c -4.79  -4.52c
iter:  71 22:02:21  -345.211829c -4.73  -4.58c
iter:  72 22:02:29  -345.211831c -4.86  -4.63c
iter:  73 22:02:37  -345.211836c -4.88  -4.72c
iter:  74 22:02:45  -345.211838c -5.12  -4.85c
Writing to output.gpw (mode='')

iter:  75 22:02:53  -345.211840c -4.96  -4.90c
iter:  76 22:03:01  -345.211841c -5.34  -4.91c
iter:  77 22:03:09  -345.211842c -5.42  -4.78c
iter:  78 22:03:17  -345.211843c -5.47  -4.85c
iter:  79 22:03:25  -345.211843c -5.64  -4.88c
Writing to output.gpw (mode='')

iter:  80 22:03:33  -345.211844c -5.47  -4.83c
iter:  81 22:03:42  -345.211844c -5.79  -4.83c
iter:  82 22:03:50  -345.211845c -5.70  -4.80c
iter:  83 22:03:58  -345.211845c -5.70  -4.77c
iter:  84 22:04:06  -345.211845c -5.67  -4.76c
Writing to output.gpw (mode='')

iter:  85 22:04:14  -345.211846c -6.08  -4.73c
iter:  86 22:04:22  -345.211845c -5.94  -4.75c
iter:  87 22:04:30  -345.211846c -5.95  -4.69c
iter:  88 22:04:43  -345.211846c -6.03  -4.70c
iter:  89 22:04:52  -345.211848c -5.82  -4.70c
Writing to output.gpw (mode='')

iter:  90 22:05:00  -345.211846c -6.30  -4.71c
iter:  91 22:05:07  -345.211854c -6.10  -4.67c
iter:  92 22:05:15  -345.211853c -6.19  -4.69c
iter:  93 22:05:23  -345.211853c -6.42  -4.72c
iter:  94 22:05:31  -345.211856c -6.55  -4.74c
Writing to output.gpw (mode='')

iter:  95 22:05:39  -345.211855c -6.49  -4.91c
iter:  96 22:05:47  -345.211856c -6.75  -5.03c
iter:  97 22:05:55  -345.211856c -6.61  -5.12c
iter:  98 22:06:03  -345.211857c -6.61  -5.24c
iter:  99 22:06:11  -345.211856c -6.72  -5.36c
Writing to output.gpw (mode='')

iter: 100 22:06:19  -345.211856c -6.98  -5.45c
iter: 101 22:06:27  -345.211857c -6.80  -5.49c
iter: 102 22:06:35  -345.211857c -6.85  -5.71c
iter: 103 22:06:43  -345.211857c -6.98  -5.78c
iter: 104 22:06:51  -345.211857c -7.22  -5.80c
Writing to output.gpw (mode='')

iter: 105 22:06:59  -345.211857c -7.02  -5.78c
iter: 106 22:07:07  -345.211857c -7.34  -5.71c
iter: 107 22:07:15  -345.211857c -7.35  -5.74c
iter: 108 22:07:23  -345.211857c -7.55c -5.87c

Converged after 108 iterations.

Dipole moment: (-14.677644, -7.261384, 0.279111) |e|*Ang

Energy contributions relative to reference atoms: (reference = -17528.314784)

Kinetic:       +224.011874
Potential:     -204.105832
External:        +0.000000
XC:            -366.204740
Entropy (-ST):   -0.152443
Local:           +1.163063
--------------------------
Free energy:   -345.288078
Extrapolated:  -345.211857

Dipole-layer corrected work functions: 3.393003, 2.856456 eV

Showing only first 2 kpts
 Kpt  Band  Eigenvalues  Occupancy
  0    37     -3.37733    1.98729
  0    38     -3.27257    1.90118
  0    39     -2.99232    0.13219
  0    40     -2.89525    0.02011

  1    37     -3.19960    1.63438
  1    38     -3.14396    1.18998
  1    39     -3.06637    0.47472
  1    40     -3.02849    0.25464


Fermi level: -3.12473

Gap: 0.020 eV
Transition (v -> c):
  (s=0, k=2, n=38, [0.12, 0.12, 0.00]) -> (s=0, k=7, n=39, [0.38, 0.38, 0.00])
Writing to output.gpw (mode='')


Forces in eV/Ang:
  0 Li    0.01490   -0.00381   -0.27572
  1 Li    0.00704   -0.00172   -0.26938
  2 Li   -0.02184   -0.00060   -0.27896
  3 Li   -0.00246    0.01979   -0.27339
  4 Li    0.00144   -0.00570   -0.26978
  5 Li    0.00182    0.01343   -0.27808
  6 Li   -0.00472   -0.01665   -0.26544
  7 Li    0.00051    0.00368   -0.27861
  8 Li    0.00536   -0.00902   -0.26705
  9 Li    0.00030   -0.00311    0.28963
 10 Li    0.00772   -0.01008    0.26469
 11 Li   -0.00831    0.00577    0.25442
 12 Li    0.00361   -0.00127    0.32819
 13 Li    0.01460    0.00455    0.26942
 14 Li   -0.01731   -0.00663    0.25005
 15 Li   -0.00145   -0.00101    0.23651
 16 Li   -0.00318    0.01243    0.24780
 17 Li    0.00387    0.00070    0.25717
 18 Li    0.03721   -0.01285   -0.10996
 19 Li   -0.00147    0.00619    0.07827
 20 Li   -0.03830   -0.01138   -0.08728
 21 Li    0.00489    0.00253    0.02410
 22 Li    0.00270    0.00829    0.03686
 23 Li   -0.01004   -0.01230   -0.00565
 24 Li   -0.02491    0.01200    0.09399
 25 Li    0.00752   -0.01450    0.02155
 26 Li    0.01519    0.02323    0.07773
 27 Li    0.06182    0.06364   -0.04661
 28 Li    0.09739   -0.06635   -0.05868
 29 Li   -0.15056   -0.04841   -0.15832
 30 Li   -0.00361    2.15941   -4.55236
 31 Li    0.07350    0.04592   -0.02358
 32 Li   -0.09166    0.03654   -0.05877
 33 Li   -0.05844   -0.04126   -0.34004
 34 Li   -0.02221    0.00866   -0.01705
 35 Li   -0.03291   -0.00086   -0.06852
 36 O    -0.49339   -6.47663   10.76518
 37 O    -0.37672    0.12963    0.29407
 38 C    -0.05268    0.01265    0.12392
 39 C    -1.48399   -2.32754    2.81199
 40 C    -0.03758   -0.15109    0.23542
 41 H     0.12297   -0.14043    0.03549
 42 H     0.06259    0.03292   -0.04097
 43 H    -0.12637    0.13620    0.26544
 44 H     0.11382    0.09568   -0.05778
 45 H    -0.03056    0.03802   -0.03651
 46 H    -0.02316    0.03011   -0.02279
 47 H    -0.32910    0.89740    1.12649
 48 H     0.46056   -0.04192   -0.18797
 49 N     2.45947   -4.95191   -5.63360
 50 N    -0.19728   10.58585   -4.40053

System changes: positions 

Initializing position-dependent things.

Density initialized from wave functions
       .-----------------------.  
      /|                       |  
     / |                       |  
    /  |                       |  
   /   |                       |  
  /    |                       |  
 *     |                       |  
 |     |                       |  
 |     |                       |  
 |     |                       |  
 |     |                       |  
 |     |                       |  
 |     |H                 H    |  
 |     |                       C  
 |     |H                   CO |  
 |    H|                  H    |  
 |     |       Li      Li      |  
 |     |              H  HO    |  
 |     |     Li      LiC   N Li|  
 |N    |  Li      Li  H   Li   |  
 |     |   Li      Li      Li  |  
 |     |Li      Li      Li     |  
 Li    |                       |  
 |   LLi     LLi     LLi       |  
 |     |  Li      Li      Li   |  
 | Li  |   Li      Li          |  
 |     |Li      Li      Li     |  
 Li    | Li      Li            |  
 |    Li      Li      Li       |  
 |     |                       |  
 |     |                       |  
 |     |                       |  
 |     |                       |  
 |     |                       |  
 |     |                       |  
 |     .-----------------------.  
 |    /                       /   
 |   /                       /    
 |  /                       /     
 | /                       /      
 |/                       /       
 *-----------------------*        

Positions:
   0 Li     1.617037    1.617037   10.000000    ( 0.0000,  0.0000,  0.0000)
   1 Li     4.851111    1.617037   10.000000    ( 0.0000,  0.0000,  0.0000)
   2 Li     8.085185    1.617037   10.000000    ( 0.0000,  0.0000,  0.0000)
   3 Li     1.617037    4.851111   10.000000    ( 0.0000,  0.0000,  0.0000)
   4 Li     4.851111    4.851111   10.000000    ( 0.0000,  0.0000,  0.0000)
   5 Li     8.085185    4.851111   10.000000    ( 0.0000,  0.0000,  0.0000)
   6 Li     1.617037    8.085185   10.000000    ( 0.0000,  0.0000,  0.0000)
   7 Li     4.851111    8.085185   10.000000    ( 0.0000,  0.0000,  0.0000)
   8 Li     8.085185    8.085185   10.000000    ( 0.0000,  0.0000,  0.0000)
   9 Li     0.000000    0.000000   11.617037    ( 0.0000,  0.0000,  0.0000)
  10 Li     3.234074    0.000000   11.617037    ( 0.0000,  0.0000,  0.0000)
  11 Li     6.468148    0.000000   11.617037    ( 0.0000,  0.0000,  0.0000)
  12 Li     0.000000    3.234074   11.617037    ( 0.0000,  0.0000,  0.0000)
  13 Li     3.234074    3.234074   11.617037    ( 0.0000,  0.0000,  0.0000)
  14 Li     6.468148    3.234074   11.617037    ( 0.0000,  0.0000,  0.0000)
  15 Li     0.000000    6.468148   11.617037    ( 0.0000,  0.0000,  0.0000)
  16 Li     3.234074    6.468148   11.617037    ( 0.0000,  0.0000,  0.0000)
  17 Li     6.468148    6.468148   11.617037    ( 0.0000,  0.0000,  0.0000)
  18 Li     1.617156    1.616997   13.469378    ( 0.0000,  0.0000,  0.0000)
  19 Li     4.851106    1.617058   13.469978    ( 0.0000,  0.0000,  0.0000)
  20 Li     8.085062    1.617002   13.469450    ( 0.0000,  0.0000,  0.0000)
  21 Li     1.617054    4.851119   13.469806    ( 0.0000,  0.0000,  0.0000)
  22 Li     4.851120    4.851137   13.469848    ( 0.0000,  0.0000,  0.0000)
  23 Li     8.085152    4.851072   13.469711    ( 0.0000,  0.0000,  0.0000)
  24 Li     1.616959    8.085222   13.470027    ( 0.0000,  0.0000,  0.0000)
  25 Li     4.851135    8.085137   13.469798    ( 0.0000,  0.0000,  0.0000)
  26 Li     8.085232    8.085258   13.469975    ( 0.0000,  0.0000,  0.0000)
  27 Li     0.000197    0.000202   15.445791    ( 0.0000,  0.0000,  0.0000)
  28 Li     3.234384   -0.000211   15.445752    ( 0.0000,  0.0000,  0.0000)
  29 Li     6.467669   -0.000154   15.445435    ( 0.0000,  0.0000,  0.0000)
  30 Li    -0.000011    3.240944   15.431456    ( 0.0000,  0.0000,  0.0000)
  31 Li     3.234310    3.234223   15.445863    ( 0.0000,  0.0000,  0.0000)
  32 Li     6.467854    3.234193   15.445751    ( 0.0000,  0.0000,  0.0000)
  33 Li    -0.000186    6.468017   15.444857    ( 0.0000,  0.0000,  0.0000)
  34 Li     3.234006    6.468173   15.445884    ( 0.0000,  0.0000,  0.0000)
  35 Li     6.468041    6.468143   15.445720    ( 0.0000,  0.0000,  0.0000)
  36 O     -0.001570    1.596432   18.480188    ( 0.0000,  0.0000,  0.0000)
  37 O     -0.021527   -3.244893   18.440765    ( 0.0000,  0.0000,  0.0000)
  38 C     -0.001712   -0.778838   18.460781    ( 0.0000,  0.0000,  0.0000)
  39 C     -0.872541    0.464762   18.457764    ( 0.0000,  0.0000,  0.0000)
  40 C     -0.831931   -2.061975   18.437206    ( 0.0000,  0.0000,  0.0000)
  41 H      0.659353   -0.757242   17.585839    ( 0.0000,  0.0000,  0.0000)
  42 H      0.635765   -0.778632   19.348261    ( 0.0000,  0.0000,  0.0000)
  43 H     -1.508480    0.477530   17.556115    ( 0.0000,  0.0000,  0.0000)
  44 H     -1.516135    0.486013   19.335320    ( 0.0000,  0.0000,  0.0000)
  45 H     -1.507475   -2.062074   17.569018    ( 0.0000,  0.0000,  0.0000)
  46 H     -1.447976   -2.138247   19.336488    ( 0.0000,  0.0000,  0.0000)
  47 H     -0.545404    2.415417   18.444656    ( 0.0000,  0.0000,  0.0000)
  48 H      0.556176   -3.212856   17.664714    ( 0.0000,  0.0000,  0.0000)
  49 N      0.007825    1.601246   16.928016    ( 0.0000,  0.0000,  0.0000)
  50 N     -0.000628    2.747300   16.931939    ( 0.0000,  0.0000,  0.0000)

Unit cell:
           periodic     x           y           z      points  spacing
  1. axis:    yes    9.702222    0.000000    0.000000    60     0.1617
  2. axis:    yes    0.000000    9.702222    0.000000    60     0.1617
  3. axis:    no     0.000000    0.000000   28.351111   176     0.1611

  Lengths:   9.702222   9.702222  28.351111
  Angles:   90.000000  90.000000  90.000000

Effective grid spacing dv^(1/3) = 0.1615

     iter     time        total  log10-change:
                         energy  eigst   dens
iter:   1 22:07:33  -347.615514  -0.18
iter:   2 22:07:41  -346.605720  -0.42  -1.33
iter:   3 22:07:49  -346.433961  -0.95  -1.37
iter:   4 22:07:57  -346.340970  -0.76  -1.57
Writing to output.gpw (mode='')

iter:   5 22:08:05  -346.237371  -1.56  -1.82
iter:   6 22:08:13  -346.480277  -0.96  -2.12
iter:   7 22:08:21  -346.227374  -1.39  -1.57
iter:   8 22:08:29  -346.240252  -1.45  -2.23
iter:   9 22:08:37  -346.229600c -2.05  -2.18
Writing to output.gpw (mode='')

iter:  10 22:08:45  -346.219694c -2.46  -2.25
iter:  11 22:08:53  -346.219528c -2.54  -2.58
iter:  12 22:09:01  -346.219664c -2.64  -2.69
iter:  13 22:09:09  -346.219339c -3.35  -2.75
iter:  14 22:09:17  -346.219441c -3.30  -2.95
Writing to output.gpw (mode='')

iter:  15 22:09:25  -346.219546c -3.46  -3.03
iter:  16 22:09:39  -346.219400c -3.60  -3.08
iter:  17 22:09:48  -346.219386c -3.67  -3.15
iter:  18 22:09:56  -346.219406c -3.77  -3.29
iter:  19 22:10:04  -346.219412c -4.19  -3.26
Writing to output.gpw (mode='')

iter:  20 22:10:12  -346.219426c -4.20  -3.30
iter:  21 22:10:21  -346.219469c -4.32  -3.43
iter:  22 22:10:29  -346.219469c -4.53  -3.73
iter:  23 22:10:37  -346.219442c -4.70  -3.79
iter:  24 22:10:44  -346.219437c -5.07  -3.95
Writing to output.gpw (mode='')

iter:  25 22:10:53  -346.219445c -5.11  -4.05c
iter:  26 22:11:01  -346.219444c -5.23  -4.10c
iter:  27 22:11:09  -346.219445c -5.16  -4.13c
iter:  28 22:11:17  -346.219441c -5.46  -4.34c
iter:  29 22:11:25  -346.219443c -5.49  -4.40c
Writing to output.gpw (mode='')

iter:  30 22:11:33  -346.219442c -5.57  -4.45c
iter:  31 22:11:41  -346.219438c -5.76  -4.47c
iter:  32 22:11:49  -346.219441c -5.73  -4.64c
iter:  33 22:11:57  -346.219442c -5.99  -4.64c
iter:  34 22:12:05  -346.219442c -6.04  -4.63c
Writing to output.gpw (mode='')

iter:  35 22:12:13  -346.219441c -6.04  -4.65c
iter:  36 22:12:21  -346.219445c -6.05  -4.63c
iter:  37 22:12:29  -346.219445c -6.40  -4.70c
iter:  38 22:12:37  -346.219445c -6.47  -4.69c
iter:  39 22:12:45  -346.219443c -6.50  -4.79c
Writing to output.gpw (mode='')

iter:  40 22:12:53  -346.219444c -6.42  -4.87c
iter:  41 22:13:01  -346.219444c -6.48  -4.86c
iter:  42 22:13:09  -346.219442c -6.50  -4.87c
iter:  43 22:13:17  -346.219442c -6.84  -4.88c
iter:  44 22:13:25  -346.219441c -6.76  -4.84c
Writing to output.gpw (mode='')

iter:  45 22:13:33  -346.219440c -6.92  -4.94c
iter:  46 22:13:41  -346.219440c -6.92  -4.97c
iter:  47 22:13:49  -346.219440c -7.04  -5.02c
iter:  48 22:13:57  -346.219441c -7.23  -5.20c
iter:  49 22:14:05  -346.219440c -7.21  -5.35c
Writing to output.gpw (mode='')

iter:  50 22:14:13  -346.219440c -7.19  -5.39c
iter:  51 22:14:21  -346.219440c -7.28  -5.43c
iter:  52 22:14:29  -346.219439c -7.24  -5.63c
iter:  53 22:14:44  -346.219440c -7.56c -5.67c

Converged after 53 iterations.

Dipole moment: (-15.193469, -7.291164, 0.226363) |e|*Ang

Energy contributions relative to reference atoms: (reference = -17528.314784)

Kinetic:       +213.525785
Potential:     -196.350124
External:        +0.000000
XC:            -364.484939
Entropy (-ST):   -0.154065
Local:           +1.166871
--------------------------
Free energy:   -346.296472
Extrapolated:  -346.219440

Dipole-layer corrected work functions: 3.396655, 2.961509 eV

Showing only first 2 kpts
 Kpt  Band  Eigenvalues  Occupancy
  0    37     -3.43157    1.98726
  0    38     -3.32524    1.89797
  0    39     -3.06463    0.18408
  0    40     -2.94770    0.01936

  1    37     -3.26640    1.70300
  1    38     -3.19466    1.15451
  1    39     -3.11370    0.42579
  1    40     -3.07089    0.20609


Fermi level: -3.17908

Gap: 0.015 eV
Transition (v -> c):
  (s=0, k=2, n=38, [0.12, 0.12, 0.00]) -> (s=0, k=7, n=39, [0.38, 0.38, 0.00])
Writing to output.gpw (mode='')


Forces in eV/Ang:
  0 Li    0.01539   -0.00393   -0.27745
  1 Li    0.00661   -0.00163   -0.26980
  2 Li   -0.02197   -0.00046   -0.28045
  3 Li   -0.00196    0.02012   -0.27470
  4 Li    0.00133   -0.00585   -0.26876
  5 Li    0.00167    0.01435   -0.27930
  6 Li   -0.00480   -0.01696   -0.26547
  7 Li    0.00025    0.00392   -0.27881
  8 Li    0.00527   -0.00942   -0.26727
  9 Li   -0.00008   -0.00468    0.29039
 10 Li    0.00779   -0.00934    0.26528
 11 Li   -0.00730    0.00603    0.25643
 12 Li    0.00384    0.00017    0.33203
 13 Li    0.01261    0.00390    0.27181
 14 Li   -0.01585   -0.00685    0.25158
 15 Li   -0.00151   -0.00129    0.23841
 16 Li   -0.00130    0.01344    0.24641
 17 Li    0.00194   -0.00006    0.25613
 18 Li    0.03464   -0.01598   -0.11510
 19 Li   -0.00060    0.00739    0.08012
 20 Li   -0.03660   -0.01255   -0.09564
 21 Li    0.00976    0.00836    0.01250
 22 Li    0.00310    0.00480    0.03889
 23 Li   -0.01546   -0.00760   -0.01833
 24 Li   -0.02400    0.01027    0.08899
 25 Li    0.00668   -0.01362    0.02325
 26 Li    0.01527    0.02074    0.07304
 27 Li    0.06910    0.09812    0.00990
 28 Li    0.09182   -0.06606   -0.05166
 29 Li   -0.14828   -0.05140   -0.14965
 30 Li    0.00088    2.08434   -4.63332
 31 Li    0.05675    0.04473   -0.00773
 32 Li   -0.07849    0.03777   -0.04636
 33 Li   -0.05871   -0.04288   -0.32613
 34 Li   -0.01858    0.00792   -0.01884
 35 Li   -0.03545    0.00043   -0.06787
 36 O    -0.74254   -4.60299    8.48810
 37 O    -0.27470    0.08085    0.16420
 38 C    -0.11477   -0.16548    0.15678
 39 C    -1.28733   -2.01216    2.29512
 40 C    -0.00032   -0.11461    0.20485
 41 H     0.08495   -0.10423    0.05380
 42 H     0.06711    0.02243   -0.03430
 43 H    -0.07622    0.11633    0.38368
 44 H    -0.11694   -0.03521    0.20257
 45 H    -0.02953    0.03589   -0.02534
 46 H    -0.03624    0.02622   -0.00613
 47 H     0.14109    0.21037    0.93070
 48 H     0.37226   -0.04317   -0.06269
 49 N     2.35835    0.49822   -4.99693
 50 N    -0.25528    3.89137   -2.44580

System changes: positions 

Initializing position-dependent things.

Density initialized from wave functions
       .-----------------------.  
      /|                       |  
     / |                       |  
    /  |                       |  
   /   |                       |  
  /    |                       |  
 *     |                       |  
 |     |                       |  
 |     |                       |  
 |     |                       |  
 |     |                       |  
 |     |                       |  
 |     |H                 H    |  
 |     |                       C  
 |     |H                   CO |  
 |    H|                  H    |  
 |     |       Li      Li      |  
 |     |              H  HO    |  
 |     |     Li      LiC   N Li|  
 |N    |  Li      Li  H   Li   |  
 | Li  |   Li      Li          |  
 |     |Li      Li      Li     |  
 Li    |                       |  
 |   LLi     LLi     LLi       |  
 |     |  Li      Li      Li   |  
 | Li  |   Li      Li          |  
 |     |Li      Li      Li     |  
 Li    | Li      Li            |  
 |    Li      Li      Li       |  
 |     |                       |  
 |     |                       |  
 |     |                       |  
 |     |                       |  
 |     |                       |  
 |     |                       |  
 |     .-----------------------.  
 |    /                       /   
 |   /                       /    
 |  /                       /     
 | /                       /      
 |/                       /       
 *-----------------------*        

Positions:
   0 Li     1.617037    1.617037   10.000000    ( 0.0000,  0.0000,  0.0000)
   1 Li     4.851111    1.617037   10.000000    ( 0.0000,  0.0000,  0.0000)
   2 Li     8.085185    1.617037   10.000000    ( 0.0000,  0.0000,  0.0000)
   3 Li     1.617037    4.851111   10.000000    ( 0.0000,  0.0000,  0.0000)
   4 Li     4.851111    4.851111   10.000000    ( 0.0000,  0.0000,  0.0000)
   5 Li     8.085185    4.851111   10.000000    ( 0.0000,  0.0000,  0.0000)
   6 Li     1.617037    8.085185   10.000000    ( 0.0000,  0.0000,  0.0000)
   7 Li     4.851111    8.085185   10.000000    ( 0.0000,  0.0000,  0.0000)
   8 Li     8.085185    8.085185   10.000000    ( 0.0000,  0.0000,  0.0000)
   9 Li     0.000000    0.000000   11.617037    ( 0.0000,  0.0000,  0.0000)
  10 Li     3.234074    0.000000   11.617037    ( 0.0000,  0.0000,  0.0000)
  11 Li     6.468148    0.000000   11.617037    ( 0.0000,  0.0000,  0.0000)
  12 Li     0.000000    3.234074   11.617037    ( 0.0000,  0.0000,  0.0000)
  13 Li     3.234074    3.234074   11.617037    ( 0.0000,  0.0000,  0.0000)
  14 Li     6.468148    3.234074   11.617037    ( 0.0000,  0.0000,  0.0000)
  15 Li     0.000000    6.468148   11.617037    ( 0.0000,  0.0000,  0.0000)
  16 Li     3.234074    6.468148   11.617037    ( 0.0000,  0.0000,  0.0000)
  17 Li     6.468148    6.468148   11.617037    ( 0.0000,  0.0000,  0.0000)
  18 Li     1.617313    1.616918   13.468836    ( 0.0000,  0.0000,  0.0000)
  19 Li     4.851105    1.617094   13.470353    ( 0.0000,  0.0000,  0.0000)
  20 Li     8.084895    1.616942   13.468992    ( 0.0000,  0.0000,  0.0000)
  21 Li     1.617108    4.851168   13.469844    ( 0.0000,  0.0000,  0.0000)
  22 Li     4.851135    4.851154   13.470031    ( 0.0000,  0.0000,  0.0000)
  23 Li     8.085071    4.851045   13.469605    ( 0.0000,  0.0000,  0.0000)
  24 Li     1.616849    8.085267   13.470431    ( 0.0000,  0.0000,  0.0000)
  25 Li     4.851164    8.085076   13.469909    ( 0.0000,  0.0000,  0.0000)
  26 Li     8.085303    8.085350   13.470306    ( 0.0000,  0.0000,  0.0000)
  27 Li     0.000530    0.000717   15.445934    ( 0.0000,  0.0000,  0.0000)
  28 Li     3.234800   -0.000517   15.445525    ( 0.0000,  0.0000,  0.0000)
  29 Li     6.466986   -0.000397   15.444756    ( 0.0000,  0.0000,  0.0000)
  30 Li     0.000000    3.250478   15.409836    ( 0.0000,  0.0000,  0.0000)
  31 Li     3.234545    3.234428   15.445854    ( 0.0000,  0.0000,  0.0000)
  32 Li     6.467513    3.234370   15.445557    ( 0.0000,  0.0000,  0.0000)
  33 Li    -0.000459    6.467815   15.443369    ( 0.0000,  0.0000,  0.0000)
  34 Li     3.233926    6.468209   15.445793    ( 0.0000,  0.0000,  0.0000)
  35 Li     6.467872    6.468147   15.445407    ( 0.0000,  0.0000,  0.0000)
  36 O     -0.005440    1.578306   18.515635    ( 0.0000,  0.0000,  0.0000)
  37 O     -0.022626   -3.244601   18.441303    ( 0.0000,  0.0000,  0.0000)
  38 C     -0.002351   -0.779910   18.461564    ( 0.0000,  0.0000,  0.0000)
  39 C     -0.878172    0.455974   18.467518    ( 0.0000,  0.0000,  0.0000)
  40 C     -0.831869   -2.062444   18.438104    ( 0.0000,  0.0000,  0.0000)
  41 H      0.659682   -0.757663   17.586120    ( 0.0000,  0.0000,  0.0000)
  42 H      0.636084   -0.778546   19.348113    ( 0.0000,  0.0000,  0.0000)
  43 H     -1.508748    0.478035   17.558097    ( 0.0000,  0.0000,  0.0000)
  44 H     -1.517073    0.485625   19.336705    ( 0.0000,  0.0000,  0.0000)
  45 H     -1.507610   -2.061912   17.568920    ( 0.0000,  0.0000,  0.0000)
  46 H     -1.448167   -2.138132   19.336488    ( 0.0000,  0.0000,  0.0000)
  47 H     -0.543943    2.415214   18.448636    ( 0.0000,  0.0000,  0.0000)
  48 H      0.557750   -3.213058   17.664638    ( 0.0000,  0.0000,  0.0000)
  49 N      0.018585    1.612905   16.905942    ( 0.0000,  0.0000,  0.0000)
  50 N     -0.001911    2.753857   16.923953    ( 0.0000,  0.0000,  0.0000)

Unit cell:
           periodic     x           y           z      points  spacing
  1. axis:    yes    9.702222    0.000000    0.000000    60     0.1617
  2. axis:    yes    0.000000    9.702222    0.000000    60     0.1617
  3. axis:    no     0.000000    0.000000   28.351111   176     0.1611

  Lengths:   9.702222   9.702222  28.351111
  Angles:   90.000000  90.000000  90.000000

Effective grid spacing dv^(1/3) = 0.1615

     iter     time        total  log10-change:
                         energy  eigst   dens
iter:   1 22:14:54  -346.942246  -0.83
iter:   2 22:15:03  -346.938860  -1.23  -2.03
iter:   3 22:15:14  -346.935050c -1.63  -2.07
iter:   4 22:15:26  -346.927857c -1.72  -2.26
Writing to output.gpw (mode='')

iter:   5 22:15:34  -346.927317c -1.98  -2.40
iter:   6 22:15:42  -346.924625c -2.20  -2.38
iter:   7 22:15:50  -346.919121c -2.32  -2.42
iter:   8 22:15:58  -346.918699c -2.38  -2.62
iter:   9 22:16:05  -346.918288c -2.62  -2.65
Writing to output.gpw (mode='')

iter:  10 22:16:13  -346.918353c -2.92  -2.76
iter:  11 22:16:21  -346.918047c -3.08  -2.96
iter:  12 22:16:29  -346.918226c -3.54  -3.13
iter:  13 22:16:37  -346.918134c -3.41  -3.18
iter:  14 22:16:45  -346.918084c -3.63  -3.30
Writing to output.gpw (mode='')

iter:  15 22:16:53  -346.918062c -3.84  -3.38
iter:  16 22:17:01  -346.918098c -3.99  -3.41
iter:  17 22:17:09  -346.918098c -4.21  -3.57
iter:  18 22:17:17  -346.918096c -4.37  -3.65
iter:  19 22:17:25  -346.918117c -4.50  -3.73
Writing to output.gpw (mode='')

iter:  20 22:17:32  -346.918119c -4.41  -3.93
iter:  21 22:17:40  -346.918120c -4.80  -3.93
iter:  22 22:17:48  -346.918124c -4.66  -4.08c
iter:  23 22:17:56  -346.918132c -4.73  -4.15c
iter:  24 22:18:04  -346.918137c -4.85  -4.22c
Writing to output.gpw (mode='')

iter:  25 22:18:12  -346.918149c -4.86  -4.44c
iter:  26 22:18:20  -346.918148c -5.28  -4.33c
iter:  27 22:18:28  -346.918145c -5.37  -4.40c
iter:  28 22:18:36  -346.918149c -5.41  -4.48c
iter:  29 22:18:44  -346.918153c -5.40  -4.66c
Writing to output.gpw (mode='')

iter:  30 22:18:51  -346.918150c -5.61  -4.68c
iter:  31 22:18:59  -346.918152c -5.93  -4.72c
iter:  32 22:19:07  -346.918153c -5.56  -4.83c
iter:  33 22:19:15  -346.918154c -6.21  -4.92c
iter:  34 22:19:23  -346.918153c -6.05  -5.02c
Writing to output.gpw (mode='')

iter:  35 22:19:31  -346.918154c -6.04  -5.12c
iter:  36 22:19:45  -346.918154c -6.19  -5.15c
iter:  37 22:19:53  -346.918156c -6.32  -5.16c
iter:  38 22:20:01  -346.918155c -6.50  -5.26c
iter:  39 22:20:09  -346.918156c -6.46  -5.47c
Writing to output.gpw (mode='')

iter:  40 22:20:17  -346.918156c -6.61  -5.67c
iter:  41 22:20:25  -346.918156c -6.50  -5.72c
iter:  42 22:20:33  -346.918156c -6.66  -5.59c
iter:  43 22:20:40  -346.918156c -7.09  -5.52c
iter:  44 22:20:48  -346.918156c -6.98  -5.49c
Writing to output.gpw (mode='')

iter:  45 22:20:56  -346.918156c -7.24  -5.43c
iter:  46 22:21:04  -346.918156c -7.10  -5.45c
iter:  47 22:21:12  -346.918156c -7.13  -5.44c
iter:  48 22:21:20  -346.918156c -7.12  -5.28c
iter:  49 22:21:28  -346.918156c -7.63c -5.40c

Converged after 49 iterations.

Dipole moment: (-15.606802, -7.406054, 0.195533) |e|*Ang

Energy contributions relative to reference atoms: (reference = -17528.314784)

Kinetic:       +210.909157
Potential:     -194.861943
External:        +0.000000
XC:            -364.057813
Entropy (-ST):   -0.152879
Local:           +1.168883
--------------------------
Free energy:   -346.994595
Extrapolated:  -346.918156

Dipole-layer corrected work functions: 3.397793, 3.021911 eV

Showing only first 2 kpts
 Kpt  Band  Eigenvalues  Occupancy
  0    37     -3.46400    1.98767
  0    38     -3.36070    1.90666
  0    39     -3.09120    0.17051
  0    40     -2.97668    0.01869

  1    37     -3.29975    1.71582
  1    38     -3.22346    1.13525
  1    39     -3.14438    0.42517
  1    40     -3.10238    0.20877


Fermi level: -3.20985

Gap: 0.011 eV
Transition (v -> c):
  (s=0, k=2, n=38, [0.12, 0.12, 0.00]) -> (s=0, k=7, n=39, [0.38, 0.38, 0.00])
Writing to output.gpw (mode='')


Forces in eV/Ang:
  0 Li    0.01539   -0.00406   -0.27766
  1 Li    0.00635   -0.00168   -0.26958
  2 Li   -0.02175   -0.00038   -0.28058
  3 Li   -0.00206    0.02010   -0.27524
  4 Li    0.00122   -0.00591   -0.26830
  5 Li    0.00183    0.01462   -0.27963
  6 Li   -0.00477   -0.01695   -0.26496
  7 Li    0.00018    0.00406   -0.27938
  8 Li    0.00531   -0.00949   -0.26711
  9 Li   -0.00034   -0.00569    0.28948
 10 Li    0.00851   -0.00912    0.26432
 11 Li   -0.00764    0.00625    0.25670
 12 Li    0.00402    0.00054    0.33496
 13 Li    0.01204    0.00372    0.27216
 14 Li   -0.01545   -0.00689    0.25123
 15 Li   -0.00161   -0.00084    0.23836
 16 Li   -0.00024    0.01394    0.24576
 17 Li    0.00106   -0.00057    0.25541
 18 Li    0.03460   -0.01922   -0.11359
 19 Li   -0.00038    0.00760    0.07942
 20 Li   -0.03674   -0.01439   -0.09685
 21 Li    0.01337    0.01269    0.00815
 22 Li    0.00325    0.00387    0.03970
 23 Li   -0.01933   -0.00412   -0.02291
 24 Li   -0.02304    0.01040    0.08628
 25 Li    0.00625   -0.01317    0.02309
 26 Li    0.01444    0.02022    0.06999
 27 Li    0.07017    0.09117    0.01137
 28 Li    0.08816   -0.06386   -0.04981
 29 Li   -0.14256   -0.04999   -0.14307
 30 Li    0.00188    1.91323   -4.27345
 31 Li    0.05939    0.04412   -0.01008
 32 Li   -0.08422    0.03881   -0.05056
 33 Li   -0.05841   -0.04148   -0.32025
 34 Li   -0.01912    0.00594   -0.01894
 35 Li   -0.03437   -0.00080   -0.06679
 36 O    -0.88422   -3.11563    7.40205
 37 O    -0.19436    0.02746    0.08086
 38 C    -0.14064   -0.27995    0.18588
 39 C    -0.97545   -1.55837    1.73593
 40 C     0.00792   -0.10875    0.16149
 41 H     0.04793   -0.07206    0.06651
 42 H     0.07080    0.01014   -0.02768
 43 H    -0.03903    0.09642    0.42259
 44 H    -0.36615   -0.17215    0.41285
 45 H    -0.02162    0.03406   -0.00826
 46 H    -0.04572    0.02247    0.00939
 47 H     0.41398   -0.43005    1.01206
 48 H     0.30818   -0.03967    0.01950
 49 N     2.12744    0.36229   -4.82049
 50 N    -0.22869    3.28028   -1.75117

System changes: positions 

Initializing position-dependent things.

Density initialized from wave functions
       .-----------------------.  
      /|                       |  
     / |                       |  
    /  |                       |  
   /   |                       |  
  /    |                       |  
 *     |                       |  
 |     |                       |  
 |     |                       |  
 |     |                       |  
 |     |                       |  
 |     |                       |  
 |     |H                 H    |  
 |     |                       C  
 |     |H                   CO |  
 |    H|                  H    |  
 |     |       Li      Li      |  
 |     |              H  HO    |  
 |     |     Li      LiC   N Li|  
 |N    |  Li      Li  H   Li   |  
 | Li  |   Li      Li          |  
 |     |Li      Li      Li     |  
 Li    |                       |  
 |   LLi     LLi     LLi       |  
 |     |  Li      Li      Li   |  
 | Li  |   Li      Li          |  
 |     |Li      Li      Li     |  
 Li    | Li      Li            |  
 |    Li      Li      Li       |  
 |     |                       |  
 |     |                       |  
 |     |                       |  
 |     |                       |  
 |     |                       |  
 |     |                       |  
 |     .-----------------------.  
 |    /                       /   
 |   /                       /    
 |  /                       /     
 | /                       /      
 |/                       /       
 *-----------------------*        

Positions:
   0 Li     1.617037    1.617037   10.000000    ( 0.0000,  0.0000,  0.0000)
   1 Li     4.851111    1.617037   10.000000    ( 0.0000,  0.0000,  0.0000)
   2 Li     8.085185    1.617037   10.000000    ( 0.0000,  0.0000,  0.0000)
   3 Li     1.617037    4.851111   10.000000    ( 0.0000,  0.0000,  0.0000)
   4 Li     4.851111    4.851111   10.000000    ( 0.0000,  0.0000,  0.0000)
   5 Li     8.085185    4.851111   10.000000    ( 0.0000,  0.0000,  0.0000)
   6 Li     1.617037    8.085185   10.000000    ( 0.0000,  0.0000,  0.0000)
   7 Li     4.851111    8.085185   10.000000    ( 0.0000,  0.0000,  0.0000)
   8 Li     8.085185    8.085185   10.000000    ( 0.0000,  0.0000,  0.0000)
   9 Li     0.000000    0.000000   11.617037    ( 0.0000,  0.0000,  0.0000)
  10 Li     3.234074    0.000000   11.617037    ( 0.0000,  0.0000,  0.0000)
  11 Li     6.468148    0.000000   11.617037    ( 0.0000,  0.0000,  0.0000)
  12 Li     0.000000    3.234074   11.617037    ( 0.0000,  0.0000,  0.0000)
  13 Li     3.234074    3.234074   11.617037    ( 0.0000,  0.0000,  0.0000)
  14 Li     6.468148    3.234074   11.617037    ( 0.0000,  0.0000,  0.0000)
  15 Li     0.000000    6.468148   11.617037    ( 0.0000,  0.0000,  0.0000)
  16 Li     3.234074    6.468148   11.617037    ( 0.0000,  0.0000,  0.0000)
  17 Li     6.468148    6.468148   11.617037    ( 0.0000,  0.0000,  0.0000)
  18 Li     1.617537    1.616766   13.468089    ( 0.0000,  0.0000,  0.0000)
  19 Li     4.851105    1.617148   13.470875    ( 0.0000,  0.0000,  0.0000)
  20 Li     8.084655    1.616833   13.468334    ( 0.0000,  0.0000,  0.0000)
  21 Li     1.617226    4.851288   13.469853    ( 0.0000,  0.0000,  0.0000)
  22 Li     4.851158    4.851168   13.470301    ( 0.0000,  0.0000,  0.0000)
  23 Li     8.084910    4.851047   13.469406    ( 0.0000,  0.0000,  0.0000)
  24 Li     1.616705    8.085334   13.470975    ( 0.0000,  0.0000,  0.0000)
  25 Li     4.851202    8.084993   13.470062    ( 0.0000,  0.0000,  0.0000)
  26 Li     8.085393    8.085476   13.470741    ( 0.0000,  0.0000,  0.0000)
  27 Li     0.001010    0.001324   15.446101    ( 0.0000,  0.0000,  0.0000)
  28 Li     3.235349   -0.000923   15.445218    ( 0.0000,  0.0000,  0.0000)
  29 Li     6.466086   -0.000722   15.443868    ( 0.0000,  0.0000,  0.0000)
  30 Li     0.000026    3.261885   15.383851    ( 0.0000,  0.0000,  0.0000)
  31 Li     3.234929    3.234713   15.445796    ( 0.0000,  0.0000,  0.0000)
  32 Li     6.466940    3.234634   15.445215    ( 0.0000,  0.0000,  0.0000)
  33 Li    -0.000842    6.467549   15.441315    ( 0.0000,  0.0000,  0.0000)
  34 Li     3.233802    6.468234   15.445665    ( 0.0000,  0.0000,  0.0000)
  35 Li     6.467649    6.468136   15.444974    ( 0.0000,  0.0000,  0.0000)
  36 O     -0.012545    1.570063   18.554126    ( 0.0000,  0.0000,  0.0000)
  37 O     -0.023242   -3.244835   18.441111    ( 0.0000,  0.0000,  0.0000)
  38 C     -0.003535   -0.782753   18.463025    ( 0.0000,  0.0000,  0.0000)
  39 C     -0.882312    0.449076   18.474615    ( 0.0000,  0.0000,  0.0000)
  40 C     -0.831709   -2.063070   18.438845    ( 0.0000,  0.0000,  0.0000)
  41 H      0.659704   -0.757878   17.586667    ( 0.0000,  0.0000,  0.0000)
  42 H      0.636582   -0.778573   19.347983    ( 0.0000,  0.0000,  0.0000)
  43 H     -1.508693    0.478514   17.561307    ( 0.0000,  0.0000,  0.0000)
  44 H     -1.521426    0.483419   19.341160    ( 0.0000,  0.0000,  0.0000)
  45 H     -1.507700   -2.061702   17.568991    ( 0.0000,  0.0000,  0.0000)
  46 H     -1.448548   -2.138014   19.336674    ( 0.0000,  0.0000,  0.0000)
  47 H     -0.538772    2.407258   18.455544    ( 0.0000,  0.0000,  0.0000)
  48 H      0.559241   -3.213299   17.665479    ( 0.0000,  0.0000,  0.0000)
  49 N      0.030981    1.622416   16.876225    ( 0.0000,  0.0000,  0.0000)
  50 N     -0.003333    2.761741   16.919735    ( 0.0000,  0.0000,  0.0000)

Unit cell:
           periodic     x           y           z      points  spacing
  1. axis:    yes    9.702222    0.000000    0.000000    60     0.1617
  2. axis:    yes    0.000000    9.702222    0.000000    60     0.1617
  3. axis:    no     0.000000    0.000000   28.351111   176     0.1611

  Lengths:   9.702222   9.702222  28.351111
  Angles:   90.000000  90.000000  90.000000

Effective grid spacing dv^(1/3) = 0.1615

     iter     time        total  log10-change:
                         energy  eigst   dens
iter:   1 22:21:38  -347.592486  -0.78
iter:   2 22:21:46  -347.597174  -1.23  -2.13
iter:   3 22:21:54  -347.597312c -1.60  -2.20
iter:   4 22:22:01  -347.598309c -1.75  -2.35
Writing to output.gpw (mode='')

iter:   5 22:22:09  -347.602518c -1.93  -2.37
iter:   6 22:22:17  -347.613890c -1.64  -2.31
iter:   7 22:22:25  -347.586781c -1.71  -2.23
iter:   8 22:22:33  -347.587566c -2.53  -2.54
iter:   9 22:22:41  -347.588358c -1.94  -2.61
Writing to output.gpw (mode='')

iter:  10 22:22:49  -347.585781c -2.50  -2.62
iter:  11 22:22:57  -347.585953c -2.44  -2.97
iter:  12 22:23:05  -347.585951c -3.26  -3.06
iter:  13 22:23:13  -347.586117c -3.15  -3.08
iter:  14 22:23:21  -347.586061c -3.29  -3.15
Writing to output.gpw (mode='')

iter:  15 22:23:29  -347.586046c -3.25  -3.20
iter:  16 22:23:37  -347.586025c -4.05  -3.25
iter:  17 22:23:45  -347.585979c -3.80  -3.32
iter:  18 22:23:53  -347.586123c -3.55  -3.47
iter:  19 22:24:01  -347.586044c -3.93  -3.46
Writing to output.gpw (mode='')

iter:  20 22:24:09  -347.586039c -3.66  -3.53
iter:  21 22:24:17  -347.586066c -4.59  -3.62
iter:  22 22:24:25  -347.586055c -4.60  -3.78
iter:  23 22:24:35  -347.586049c -4.44  -3.81
iter:  24 22:24:47  -347.586070c -4.34  -3.91
Writing to output.gpw (mode='')

iter:  25 22:24:55  -347.586062c -4.51  -3.84
iter:  26 22:25:03  -347.586063c -5.07  -4.13c
iter:  27 22:25:11  -347.586073c -5.34  -4.20c
iter:  28 22:25:19  -347.586071c -5.19  -4.26c
iter:  29 22:25:27  -347.586072c -5.22  -4.42c
Writing to output.gpw (mode='')

iter:  30 22:25:35  -347.586071c -5.49  -4.54c
iter:  31 22:25:43  -347.586072c -5.47  -4.61c
iter:  32 22:25:51  -347.586073c -5.86  -4.66c
iter:  33 22:25:59  -347.586076c -5.77  -4.69c
iter:  34 22:26:07  -347.586075c -5.76  -4.91c
Writing to output.gpw (mode='')

iter:  35 22:26:15  -347.586075c -6.12  -4.91c
iter:  36 22:26:23  -347.586075c -6.23  -4.98c
iter:  37 22:26:31  -347.586078c -6.18  -4.99c
iter:  38 22:26:39  -347.586078c -6.26  -5.04c
iter:  39 22:26:47  -347.586078c -6.51  -5.10c
Writing to output.gpw (mode='')

iter:  40 22:26:55  -347.586077c -6.35  -5.07c
iter:  41 22:27:03  -347.586077c -6.60  -5.09c
iter:  42 22:27:11  -347.586077c -6.77  -5.09c
iter:  43 22:27:19  -347.586079c -6.86  -5.11c
iter:  44 22:27:27  -347.586079c -7.07  -5.02c
Writing to output.gpw (mode='')

iter:  45 22:27:35  -347.586078c -6.70  -5.21c
iter:  46 22:27:43  -347.586078c -7.18  -5.30c
iter:  47 22:27:51  -347.586078c -7.05  -5.33c
iter:  48 22:27:59  -347.586078c -7.05  -5.48c
iter:  49 22:28:07  -347.586078c -7.29  -5.66c
Writing to output.gpw (mode='')

iter:  50 22:28:15  -347.586078c -7.27  -5.81c
iter:  51 22:28:23  -347.586078c -7.31  -5.85c
iter:  52 22:28:31  -347.586078c -7.61c -5.85c

Converged after 52 iterations.

Dipole moment: (-15.786730, -7.492124, 0.151893) |e|*Ang

Energy contributions relative to reference atoms: (reference = -17528.314784)

Kinetic:       +208.135731
Potential:     -193.160956
External:        +0.000000
XC:            -363.653013
Entropy (-ST):   -0.151826
Local:           +1.168074
--------------------------
Free energy:   -347.661991
Extrapolated:  -347.586078

Dipole-layer corrected work functions: 3.399627, 3.107637 eV

Showing only first 2 kpts
 Kpt  Band  Eigenvalues  Occupancy
  0    37     -3.50943    1.98807
  0    38     -3.41040    1.91666
  0    39     -3.13050    0.15703
  0    40     -3.01820    0.01787

  1    37     -3.34532    1.72443
  1    38     -3.26430    1.10630
  1    39     -3.18773    0.42230
  1    40     -3.14542    0.20603


Fermi level: -3.25363

No gap
Writing to output.gpw (mode='')


Forces in eV/Ang:
  0 Li    0.01531   -0.00429   -0.27805
  1 Li    0.00601   -0.00178   -0.26945
  2 Li   -0.02139   -0.00054   -0.28078
  3 Li   -0.00225    0.02019   -0.27592
  4 Li    0.00112   -0.00600   -0.26770
  5 Li    0.00195    0.01492   -0.28019
  6 Li   -0.00470   -0.01679   -0.26438
  7 Li    0.00016    0.00446   -0.28033
  8 Li    0.00549   -0.00964   -0.26674
  9 Li   -0.00061   -0.00718    0.28783
 10 Li    0.00932   -0.00868    0.26340
 11 Li   -0.00831    0.00634    0.25674
 12 Li    0.00412    0.00120    0.33845
 13 Li    0.01129    0.00348    0.27255
 14 Li   -0.01443   -0.00699    0.25139
 15 Li   -0.00171   -0.00000    0.23850
 16 Li    0.00131    0.01395    0.24495
 17 Li   -0.00032   -0.00056    0.25429
 18 Li    0.03355   -0.02285   -0.11060
 19 Li   -0.00012    0.00795    0.07826
 20 Li   -0.03589   -0.01740   -0.09687
 21 Li    0.01825    0.01849    0.00127
 22 Li    0.00329    0.00228    0.04097
 23 Li   -0.02441    0.00142   -0.02960
 24 Li   -0.02160    0.00987    0.08257
 25 Li    0.00573   -0.01243    0.02287
 26 Li    0.01310    0.01984    0.06622
 27 Li    0.07295    0.08340    0.01222
 28 Li    0.08382   -0.06123   -0.04720
 29 Li   -0.13573   -0.04862   -0.13601
 30 Li    0.00368    1.68219   -3.78389
 31 Li    0.06052    0.04299   -0.01104
 32 Li   -0.08885    0.03952   -0.05340
 33 Li   -0.05844   -0.04067   -0.31164
 34 Li   -0.01895    0.00409   -0.01946
 35 Li   -0.03309   -0.00229   -0.06543
 36 O    -0.68370   -2.50705    6.52094
 37 O    -0.16501   -0.02024    0.05359
 38 C    -0.11686   -0.26160    0.16925
 39 C    -0.79752   -1.10593    1.50357
 40 C    -0.00561   -0.12259    0.13997
 41 H     0.01229   -0.05806    0.08962
 42 H     0.07064   -0.00687   -0.01631
 43 H    -0.02054    0.09363    0.40382
 44 H    -0.48815   -0.30869    0.43088
 45 H    -0.01716    0.03031    0.00331
 46 H    -0.04630    0.01297    0.01229
 47 H     0.33696   -0.55516    1.03213
 48 H     0.28634   -0.03257    0.04607
 49 N     1.82229    0.66215   -4.47356
 50 N    -0.16088    2.49307   -1.46126

System changes: positions 

Initializing position-dependent things.

Density initialized from wave functions
       .-----------------------.  
      /|                       |  
     / |                       |  
    /  |                       |  
   /   |                       |  
  /    |                       |  
 *     |                       |  
 |     |                       |  
 |     |                       |  
 |     |                       |  
 |     |                       |  
 |     |                       |  
 |     |H                 H    |  
 |     |                       C  
 |     |H                   CO |  
 |    H|                  H    |  
 |     |       Li      Li      |  
 |     |              H  HO    |  
 |     |     Li      LiC   N Li|  
 |N    |  Li      Li  H   Li   |  
 | Li  |   Li      Li          |  
 |     |Li      Li      Li     |  
 Li    |                       |  
 |   LLi     LLi     LLi       |  
 |     |  Li      Li      Li   |  
 | Li  |   Li      Li          |  
 |     |Li      Li      Li     |  
 Li    | Li      Li            |  
 |    Li      Li      Li       |  
 |     |                       |  
 |     |                       |  
 |     |                       |  
 |     |                       |  
 |     |                       |  
 |     |                       |  
 |     .-----------------------.  
 |    /                       /   
 |   /                       /    
 |  /                       /     
 | /                       /      
 |/                       /       
 *-----------------------*        

Positions:
   0 Li     1.617037    1.617037   10.000000    ( 0.0000,  0.0000,  0.0000)
   1 Li     4.851111    1.617037   10.000000    ( 0.0000,  0.0000,  0.0000)
   2 Li     8.085185    1.617037   10.000000    ( 0.0000,  0.0000,  0.0000)
   3 Li     1.617037    4.851111   10.000000    ( 0.0000,  0.0000,  0.0000)
   4 Li     4.851111    4.851111   10.000000    ( 0.0000,  0.0000,  0.0000)
   5 Li     8.085185    4.851111   10.000000    ( 0.0000,  0.0000,  0.0000)
   6 Li     1.617037    8.085185   10.000000    ( 0.0000,  0.0000,  0.0000)
   7 Li     4.851111    8.085185   10.000000    ( 0.0000,  0.0000,  0.0000)
   8 Li     8.085185    8.085185   10.000000    ( 0.0000,  0.0000,  0.0000)
   9 Li     0.000000    0.000000   11.617037    ( 0.0000,  0.0000,  0.0000)
  10 Li     3.234074    0.000000   11.617037    ( 0.0000,  0.0000,  0.0000)
  11 Li     6.468148    0.000000   11.617037    ( 0.0000,  0.0000,  0.0000)
  12 Li     0.000000    3.234074   11.617037    ( 0.0000,  0.0000,  0.0000)
  13 Li     3.234074    3.234074   11.617037    ( 0.0000,  0.0000,  0.0000)
  14 Li     6.468148    3.234074   11.617037    ( 0.0000,  0.0000,  0.0000)
  15 Li     0.000000    6.468148   11.617037    ( 0.0000,  0.0000,  0.0000)
  16 Li     3.234074    6.468148   11.617037    ( 0.0000,  0.0000,  0.0000)
  17 Li     6.468148    6.468148   11.617037    ( 0.0000,  0.0000,  0.0000)
  18 Li     1.617801    1.616534   13.467212    ( 0.0000,  0.0000,  0.0000)
  19 Li     4.851108    1.617217   13.471503    ( 0.0000,  0.0000,  0.0000)
  20 Li     8.084368    1.616660   13.467530    ( 0.0000,  0.0000,  0.0000)
  21 Li     1.617433    4.851507   13.469782    ( 0.0000,  0.0000,  0.0000)
  22 Li     4.851186    4.851168   13.470650    ( 0.0000,  0.0000,  0.0000)
  23 Li     8.084651    4.851120   13.469082    ( 0.0000,  0.0000,  0.0000)
  24 Li     1.616545    8.085410   13.471603    ( 0.0000,  0.0000,  0.0000)
  25 Li     4.851242    8.084900   13.470248    ( 0.0000,  0.0000,  0.0000)
  26 Li     8.085486    8.085630   13.471234    ( 0.0000,  0.0000,  0.0000)
  27 Li     0.001636    0.001940   15.446262    ( 0.0000,  0.0000,  0.0000)
  28 Li     3.235978   -0.001392   15.444868    ( 0.0000,  0.0000,  0.0000)
  29 Li     6.465060   -0.001104   15.442852    ( 0.0000,  0.0000,  0.0000)
  30 Li     0.000077    3.272995   15.358304    ( 0.0000,  0.0000,  0.0000)
  31 Li     3.235431    3.235051   15.445699    ( 0.0000,  0.0000,  0.0000)
  32 Li     6.466162    3.234968   15.444747    ( 0.0000,  0.0000,  0.0000)
  33 Li    -0.001317    6.467229   15.438878    ( 0.0000,  0.0000,  0.0000)
  34 Li     3.233648    6.468243   15.445501    ( 0.0000,  0.0000,  0.0000)
  35 Li     6.467392    6.468101   15.444456    ( 0.0000,  0.0000,  0.0000)
  36 O     -0.017753    1.563699   18.593271    ( 0.0000,  0.0000,  0.0000)
  37 O     -0.023850   -3.245666   18.440785    ( 0.0000,  0.0000,  0.0000)
  38 C     -0.004523   -0.785551   18.464482    ( 0.0000,  0.0000,  0.0000)
  39 C     -0.885681    0.445964   18.481712    ( 0.0000,  0.0000,  0.0000)
  40 C     -0.831770   -2.064100   18.439570    ( 0.0000,  0.0000,  0.0000)
  41 H      0.659321   -0.758045   17.587642    ( 0.0000,  0.0000,  0.0000)
  42 H      0.637181   -0.778823   19.347971    ( 0.0000,  0.0000,  0.0000)
  43 H     -1.508483    0.479130   17.564787    ( 0.0000,  0.0000,  0.0000)
  44 H     -1.527831    0.479091   19.346194    ( 0.0000,  0.0000,  0.0000)
  45 H     -1.507764   -2.061493   17.569203    ( 0.0000,  0.0000,  0.0000)
  46 H     -1.448994   -2.137997   19.336895    ( 0.0000,  0.0000,  0.0000)
  47 H     -0.534626    2.397707   18.464390    ( 0.0000,  0.0000,  0.0000)
  48 H      0.560993   -3.213497   17.666602    ( 0.0000,  0.0000,  0.0000)
  49 N      0.042370    1.633616   16.843645    ( 0.0000,  0.0000,  0.0000)
  50 N     -0.004080    2.767701   16.915330    ( 0.0000,  0.0000,  0.0000)

Unit cell:
           periodic     x           y           z      points  spacing
  1. axis:    yes    9.702222    0.000000    0.000000    60     0.1617
  2. axis:    yes    0.000000    9.702222    0.000000    60     0.1617
  3. axis:    no     0.000000    0.000000   28.351111   176     0.1611

  Lengths:   9.702222   9.702222  28.351111
  Angles:   90.000000  90.000000  90.000000

Effective grid spacing dv^(1/3) = 0.1615

     iter     time        total  log10-change:
                         energy  eigst   dens
iter:   1 22:28:41  -348.201467  -0.80
iter:   2 22:28:49  -348.199314  -1.22  -2.07
iter:   3 22:28:57  -348.196212c -1.65  -2.12
iter:   4 22:29:05  -348.184882c -1.61  -2.24
Writing to output.gpw (mode='')

iter:   5 22:29:13  -348.188127c -2.18  -2.40
iter:   6 22:29:21  -348.185606c -2.27  -2.46
iter:   7 22:29:29  -348.181937c -2.10  -2.50
iter:   8 22:29:41  -348.182706c -2.49  -2.67
iter:   9 22:29:50  -348.182361c -2.81  -2.70
Writing to output.gpw (mode='')

iter:  10 22:29:58  -348.182006c -3.10  -2.84
iter:  11 22:30:06  -348.182333c -3.09  -3.00
iter:  12 22:30:14  -348.182270c -3.46  -3.10
iter:  13 22:30:22  -348.182186c -3.96  -3.16
iter:  14 22:30:30  -348.182203c -3.84  -3.37
Writing to output.gpw (mode='')

iter:  15 22:30:38  -348.182239c -3.78  -3.46
iter:  16 22:30:46  -348.182225c -4.00  -3.45
iter:  17 22:30:54  -348.182260c -4.13  -3.62
iter:  18 22:31:02  -348.182264c -4.56  -3.82
iter:  19 22:31:09  -348.182260c -4.58  -3.80
Writing to output.gpw (mode='')

iter:  20 22:31:17  -348.182286c -4.68  -3.94
iter:  21 22:31:25  -348.182286c -4.78  -3.96
iter:  22 22:31:33  -348.182289c -4.69  -4.02c
iter:  23 22:31:41  -348.182303c -4.94  -4.06c
iter:  24 22:31:49  -348.182306c -5.13  -4.21c
Writing to output.gpw (mode='')

iter:  25 22:31:57  -348.182297c -5.17  -4.27c
iter:  26 22:32:05  -348.182297c -5.09  -4.38c
iter:  27 22:32:13  -348.182310c -5.46  -4.52c
iter:  28 22:32:21  -348.182313c -5.33  -4.63c
iter:  29 22:32:29  -348.182311c -5.55  -4.64c
Writing to output.gpw (mode='')

iter:  30 22:32:37  -348.182313c -5.69  -4.77c
iter:  31 22:32:45  -348.182313c -5.51  -4.83c
iter:  32 22:32:53  -348.182314c -5.62  -4.91c
iter:  33 22:33:01  -348.182315c -5.87  -4.97c
iter:  34 22:33:09  -348.182315c -6.10  -5.13c
Writing to output.gpw (mode='')

iter:  35 22:33:17  -348.182315c -5.77  -5.17c
iter:  36 22:33:25  -348.182316c -5.74  -5.15c
iter:  37 22:33:33  -348.182315c -6.08  -5.13c
iter:  38 22:33:41  -348.182314c -6.41  -5.05c
iter:  39 22:33:48  -348.182316c -6.50  -4.95c
Writing to output.gpw (mode='')

iter:  40 22:33:56  -348.182316c -6.53  -5.05c
iter:  41 22:34:04  -348.182317c -6.60  -5.07c
iter:  42 22:34:12  -348.182319c -6.57  -5.10c
iter:  43 22:34:20  -348.182319c -6.55  -5.12c
iter:  44 22:34:28  -348.182321c -6.66  -5.17c
Writing to output.gpw (mode='')

iter:  45 22:34:41  -348.182320c -7.13  -5.44c
iter:  46 22:34:50  -348.182321c -6.98  -5.54c
iter:  47 22:34:58  -348.182321c -6.99  -5.56c
iter:  48 22:35:06  -348.182321c -6.86  -5.60c
iter:  49 22:35:14  -348.182321c -7.24  -5.67c
Writing to output.gpw (mode='')

iter:  50 22:35:22  -348.182321c -7.18  -5.75c
iter:  51 22:35:33  -348.182321c -7.21  -5.89c
iter:  52 22:35:41  -348.182321c -7.35  -5.97c
iter:  53 22:35:49  -348.182321c -7.43c -5.98c

Converged after 53 iterations.

Dipole moment: (-16.046289, -7.517979, 0.104407) |e|*Ang

Energy contributions relative to reference atoms: (reference = -17528.314784)

Kinetic:       +205.843257
Potential:     -191.767847
External:        +0.000000
XC:            -363.351561
Entropy (-ST):   -0.150771
Local:           +1.169215
--------------------------
Free energy:   -348.257707
Extrapolated:  -348.182321

Dipole-layer corrected work functions: 3.401675, 3.200970 eV

Showing only first 2 kpts
 Kpt  Band  Eigenvalues  Occupancy
  0    37     -3.55876    1.98845
  0    38     -3.46506    1.92710
  0    39     -3.17070    0.13667
  0    40     -3.06415    0.01727

  1    37     -3.39294    1.72409
  1    38     -3.30880    1.07463
  1    39     -3.23610    0.42682
  1    40     -3.19216    0.20255


Fermi level: -3.30132

No gap
Writing to output.gpw (mode='')


Forces in eV/Ang:
  0 Li    0.01503   -0.00457   -0.27831
  1 Li    0.00570   -0.00194   -0.26941
  2 Li   -0.02084   -0.00084   -0.28083
  3 Li   -0.00258    0.02043   -0.27652
  4 Li    0.00103   -0.00603   -0.26730
  5 Li    0.00208    0.01517   -0.28080
  6 Li   -0.00461   -0.01659   -0.26389
  7 Li    0.00017    0.00500   -0.28156
  8 Li    0.00578   -0.00984   -0.26638
  9 Li   -0.00081   -0.00884    0.28575
 10 Li    0.01006   -0.00820    0.26256
 11 Li   -0.00919    0.00647    0.25656
 12 Li    0.00417    0.00192    0.34149
 13 Li    0.01056    0.00318    0.27284
 14 Li   -0.01320   -0.00729    0.25185
 15 Li   -0.00184    0.00116    0.23864
 16 Li    0.00308    0.01354    0.24399
 17 Li   -0.00189   -0.00014    0.25310
 18 Li    0.03183   -0.02616   -0.10618
 19 Li   -0.00006    0.00816    0.07646
 20 Li   -0.03427   -0.02071   -0.09534
 21 Li    0.02329    0.02451   -0.00592
 22 Li    0.00324    0.00073    0.04218
 23 Li   -0.02954    0.00748   -0.03609
 24 Li   -0.01992    0.00893    0.07854
 25 Li    0.00526   -0.01147    0.02266
 26 Li    0.01136    0.01968    0.06196
 27 Li    0.07513    0.07642    0.01149
 28 Li    0.08031   -0.05864   -0.04515
 29 Li   -0.12849   -0.04695   -0.12867
 30 Li    0.00550    1.47423   -3.36036
 31 Li    0.06250    0.04185   -0.01284
 32 Li   -0.09354    0.03999   -0.05603
 33 Li   -0.05862   -0.04039   -0.30153
 34 Li   -0.01887    0.00260   -0.02008
 35 Li   -0.03132   -0.00399   -0.06369
 36 O    -0.56745   -1.99237    5.66434
 37 O    -0.14169   -0.06090    0.02993
 38 C    -0.13118   -0.20306    0.16412
 39 C    -0.60948   -0.82757    1.34635
 40 C    -0.00614   -0.11811    0.12308
 41 H    -0.00817   -0.04528    0.09584
 42 H     0.06914   -0.02264   -0.00657
 43 H     0.00585    0.11858    0.38172
 44 H    -0.55650   -0.40967    0.39711
 45 H    -0.01741    0.02406    0.00912
 46 H    -0.04738    0.00127    0.01611
 47 H     0.29210   -0.60405    1.04307
 48 H     0.26788   -0.02551    0.06789
 49 N     1.61787    0.59035   -4.20947
 50 N    -0.10810    2.09501   -1.14107

System changes: positions 

Initializing position-dependent things.

Density initialized from wave functions
       .-----------------------.  
      /|                       |  
     / |                       |  
    /  |                       |  
   /   |                       |  
  /    |                       |  
 *     |                       |  
 |     |                       |  
 |     |                       |  
 |     |                       |  
 |     |                       |  
 |     |                       |  
 |     |H                 H    |  
 |     |                      C|  
 |     |H                   CO |  
 |    H|                  H    |  
 |     |       Li      Li      |  
 |     |             H   HO    |  
 |     |     Li      LiC   N Li|  
 |N    |  Li      Li  H   Li   |  
 | Li  |   Li      Li          |  
 |     |Li      Li      Li     |  
 Li    |                       |  
 |   LLi     LLi     LLi       |  
 |     |  Li      Li      Li   |  
 | Li  |   Li      Li          |  
 |     |Li      Li      Li     |  
 Li    | Li      Li            |  
 |    Li      Li      Li       |  
 |     |                       |  
 |     |                       |  
 |     |                       |  
 |     |                       |  
 |     |                       |  
 |     |                       |  
 |     .-----------------------.  
 |    /                       /   
 |   /                       /    
 |  /                       /     
 | /                       /      
 |/                       /       
 *-----------------------*        

Positions:
   0 Li     1.617037    1.617037   10.000000    ( 0.0000,  0.0000,  0.0000)
   1 Li     4.851111    1.617037   10.000000    ( 0.0000,  0.0000,  0.0000)
   2 Li     8.085185    1.617037   10.000000    ( 0.0000,  0.0000,  0.0000)
   3 Li     1.617037    4.851111   10.000000    ( 0.0000,  0.0000,  0.0000)
   4 Li     4.851111    4.851111   10.000000    ( 0.0000,  0.0000,  0.0000)
   5 Li     8.085185    4.851111   10.000000    ( 0.0000,  0.0000,  0.0000)
   6 Li     1.617037    8.085185   10.000000    ( 0.0000,  0.0000,  0.0000)
   7 Li     4.851111    8.085185   10.000000    ( 0.0000,  0.0000,  0.0000)
   8 Li     8.085185    8.085185   10.000000    ( 0.0000,  0.0000,  0.0000)
   9 Li     0.000000    0.000000   11.617037    ( 0.0000,  0.0000,  0.0000)
  10 Li     3.234074    0.000000   11.617037    ( 0.0000,  0.0000,  0.0000)
  11 Li     6.468148    0.000000   11.617037    ( 0.0000,  0.0000,  0.0000)
  12 Li     0.000000    3.234074   11.617037    ( 0.0000,  0.0000,  0.0000)
  13 Li     3.234074    3.234074   11.617037    ( 0.0000,  0.0000,  0.0000)
  14 Li     6.468148    3.234074   11.617037    ( 0.0000,  0.0000,  0.0000)
  15 Li     0.000000    6.468148   11.617037    ( 0.0000,  0.0000,  0.0000)
  16 Li     3.234074    6.468148   11.617037    ( 0.0000,  0.0000,  0.0000)
  17 Li     6.468148    6.468148   11.617037    ( 0.0000,  0.0000,  0.0000)
  18 Li     1.618098    1.616214   13.466206    ( 0.0000,  0.0000,  0.0000)
  19 Li     4.851111    1.617303   13.472242    ( 0.0000,  0.0000,  0.0000)
  20 Li     8.084044    1.616406   13.466581    ( 0.0000,  0.0000,  0.0000)
  21 Li     1.617745    4.851847   13.469609    ( 0.0000,  0.0000,  0.0000)
  22 Li     4.851219    4.851149   13.471089    ( 0.0000,  0.0000,  0.0000)
  23 Li     8.084273    4.851284   13.468613    ( 0.0000,  0.0000,  0.0000)
  24 Li     1.616371    8.085489   13.472319    ( 0.0000,  0.0000,  0.0000)
  25 Li     4.851285    8.084799   13.470471    ( 0.0000,  0.0000,  0.0000)
  26 Li     8.085577    8.085818   13.471782    ( 0.0000,  0.0000,  0.0000)
  27 Li     0.002422    0.002600   15.446424    ( 0.0000,  0.0000,  0.0000)
  28 Li     3.236705   -0.001932   15.444462    ( 0.0000,  0.0000,  0.0000)
  29 Li     6.463899   -0.001547   15.441700    ( 0.0000,  0.0000,  0.0000)
  30 Li     0.000162    3.284077   15.332194    ( 0.0000,  0.0000,  0.0000)
  31 Li     3.236070    3.235449   15.445555    ( 0.0000,  0.0000,  0.0000)
  32 Li     6.465159    3.235378   15.444146    ( 0.0000,  0.0000,  0.0000)
  33 Li    -0.001899    6.466841   15.436037    ( 0.0000,  0.0000,  0.0000)
  34 Li     3.233463    6.468238   15.445293    ( 0.0000,  0.0000,  0.0000)
  35 Li     6.467102    6.468037   15.443849    ( 0.0000,  0.0000,  0.0000)
  36 O     -0.022288    1.559265   18.632092    ( 0.0000,  0.0000,  0.0000)
  37 O     -0.024475   -3.247101   18.440278    ( 0.0000,  0.0000,  0.0000)
  38 C     -0.005921   -0.787793   18.466137    ( 0.0000,  0.0000,  0.0000)
  39 C     -0.887873    0.444659   18.489624    ( 0.0000,  0.0000,  0.0000)
  40 C     -0.831855   -2.065282   18.440326    ( 0.0000,  0.0000,  0.0000)
  41 H      0.658689   -0.758151   17.588852    ( 0.0000,  0.0000,  0.0000)
  42 H      0.637878   -0.779314   19.348071    ( 0.0000,  0.0000,  0.0000)
  43 H     -1.507941    0.480321   17.568600    ( 0.0000,  0.0000,  0.0000)
  44 H     -1.535894    0.472818   19.351256    ( 0.0000,  0.0000,  0.0000)
  45 H     -1.507871   -2.061324   17.569491    ( 0.0000,  0.0000,  0.0000)
  46 H     -1.449529   -2.138133   19.337182    ( 0.0000,  0.0000,  0.0000)
  47 H     -0.530832    2.387057   18.475187    ( 0.0000,  0.0000,  0.0000)
  48 H      0.563035   -3.213649   17.668056    ( 0.0000,  0.0000,  0.0000)
  49 N      0.054114    1.644214   16.806906    ( 0.0000,  0.0000,  0.0000)
  50 N     -0.004328    2.773462   16.912426    ( 0.0000,  0.0000,  0.0000)

Unit cell:
           periodic     x           y           z      points  spacing
  1. axis:    yes    9.702222    0.000000    0.000000    60     0.1617
  2. axis:    yes    0.000000    9.702222    0.000000    60     0.1617
  3. axis:    no     0.000000    0.000000   28.351111   176     0.1611

  Lengths:   9.702222   9.702222  28.351111
  Angles:   90.000000  90.000000  90.000000

Effective grid spacing dv^(1/3) = 0.1615

     iter     time        total  log10-change:
                         energy  eigst   dens
iter:   1 22:35:59  -348.736772  -0.83
iter:   2 22:36:07  -348.738059  -1.38  -2.17
iter:   3 22:36:14  -348.736577c -1.73  -2.25
iter:   4 22:36:23  -348.727822c -1.55  -2.25
Writing to output.gpw (mode='')

iter:   5 22:36:31  -348.728439c -2.35  -2.35
iter:   6 22:36:39  -348.728240c -2.45  -2.56
iter:   7 22:36:47  -348.728028c -2.17  -2.56
iter:   8 22:36:54  -348.726315c -2.47  -2.73
iter:   9 22:37:02  -348.726902c -2.69  -2.71
Writing to output.gpw (mode='')

iter:  10 22:37:10  -348.726473c -3.10  -2.79
iter:  11 22:37:18  -348.726706c -3.02  -2.94
iter:  12 22:37:26  -348.726633c -3.40  -3.04
iter:  13 22:37:34  -348.726567c -3.93  -3.23
iter:  14 22:37:42  -348.726563c -3.67  -3.34
Writing to output.gpw (mode='')

iter:  15 22:37:50  -348.726598c -4.13  -3.43
iter:  16 22:37:58  -348.726634c -4.05  -3.57
iter:  17 22:38:06  -348.726617c -4.47  -3.61
iter:  18 22:38:14  -348.726623c -4.55  -3.62
iter:  19 22:38:22  -348.726615c -4.64  -3.66
Writing to output.gpw (mode='')

iter:  20 22:38:30  -348.726637c -4.56  -3.85
iter:  21 22:38:38  -348.726631c -4.83  -3.91
iter:  22 22:38:46  -348.726626c -4.85  -3.90
iter:  23 22:38:54  -348.726633c -5.26  -4.24c
iter:  24 22:39:02  -348.726637c -5.31  -4.37c
Writing to output.gpw (mode='')

iter:  25 22:39:10  -348.726637c -5.45  -4.41c
iter:  26 22:39:18  -348.726642c -5.41  -4.53c
iter:  27 22:39:26  -348.726642c -5.80  -4.59c
iter:  28 22:39:40  -348.726641c -5.72  -4.62c
iter:  29 22:39:49  -348.726640c -5.71  -4.59c
Writing to output.gpw (mode='')

iter:  30 22:39:57  -348.726641c -5.72  -4.56c
iter:  31 22:40:05  -348.726643c -5.96  -4.57c
iter:  32 22:40:13  -348.726645c -6.16  -4.61c
iter:  33 22:40:21  -348.726645c -6.05  -4.63c
iter:  34 22:40:29  -348.726645c -6.28  -4.69c
Writing to output.gpw (mode='')

iter:  35 22:40:37  -348.726645c -6.08  -4.80c
iter:  36 22:40:45  -348.726645c -6.36  -4.94c
iter:  37 22:40:53  -348.726646c -6.39  -4.94c
iter:  38 22:41:01  -348.726646c -6.49  -4.97c
iter:  39 22:41:08  -348.726646c -6.40  -5.16c
Writing to output.gpw (mode='')

iter:  40 22:41:16  -348.726647c -6.59  -5.04c
iter:  41 22:41:24  -348.726647c -6.64  -5.09c
iter:  42 22:41:32  -348.726647c -6.92  -5.36c
iter:  43 22:41:40  -348.726647c -7.02  -5.47c
iter:  44 22:41:48  -348.726647c -6.99  -5.58c
Writing to output.gpw (mode='')

iter:  45 22:41:56  -348.726647c -6.95  -5.73c
iter:  46 22:42:04  -348.726647c -7.11  -5.76c
iter:  47 22:42:12  -348.726647c -7.29  -5.78c
iter:  48 22:42:20  -348.726647c -7.20  -5.79c
iter:  49 22:42:28  -348.726647c -7.48c -5.74c

Converged after 49 iterations.

Dipole moment: (-16.319538, -7.510431, 0.052441) |e|*Ang

Energy contributions relative to reference atoms: (reference = -17528.314784)

Kinetic:       +203.526487
Potential:     -190.279791
External:        +0.000000
XC:            -363.068952
Entropy (-ST):   -0.149907
Local:           +1.170562
--------------------------
Free energy:   -348.801601
Extrapolated:  -348.726647

Dipole-layer corrected work functions: 3.404044, 3.303234 eV

Showing only first 2 kpts
 Kpt  Band  Eigenvalues  Occupancy
  0    37     -3.61255    1.98879
  0    38     -3.52501    1.93711
  0    39     -3.21311    0.11350
  0    40     -3.11803    0.01781

  1    37     -3.44332    1.71475
  1    38     -3.35747    1.03828
  1    39     -3.28972    0.43565
  1    40     -3.24205    0.19385


Fermi level: -3.35364

No gap
Writing to output.gpw (mode='')


Forces in eV/Ang:
  0 Li    0.01460   -0.00489   -0.27860
  1 Li    0.00539   -0.00220   -0.26941
  2 Li   -0.02011   -0.00135   -0.28082
  3 Li   -0.00304    0.02093   -0.27716
  4 Li    0.00096   -0.00602   -0.26705
  5 Li    0.00222    0.01549   -0.28155
  6 Li   -0.00453   -0.01642   -0.26359
  7 Li    0.00023    0.00567   -0.28310
  8 Li    0.00621   -0.01017   -0.26603
  9 Li   -0.00095   -0.01076    0.28357
 10 Li    0.01077   -0.00766    0.26202
 11 Li   -0.01036    0.00668    0.25626
 12 Li    0.00415    0.00273    0.34449
 13 Li    0.00988    0.00279    0.27329
 14 Li   -0.01166   -0.00780    0.25294
 15 Li   -0.00201    0.00260    0.23878
 16 Li    0.00514    0.01265    0.24281
 17 Li   -0.00373    0.00075    0.25190
 18 Li    0.02931   -0.02918   -0.10133
 19 Li   -0.00014    0.00838    0.07435
 20 Li   -0.03182   -0.02459   -0.09317
 21 Li    0.02883    0.03126   -0.01462
 22 Li    0.00304   -0.00095    0.04349
 23 Li   -0.03500    0.01462   -0.04346
 24 Li   -0.01807    0.00729    0.07405
 25 Li    0.00487   -0.01027    0.02255
 26 Li    0.00931    0.01966    0.05706
 27 Li    0.07749    0.07591    0.01346
 28 Li    0.07777   -0.05639   -0.04312
 29 Li   -0.12081   -0.04534   -0.12053
 30 Li    0.00803    1.26420   -2.95489
 31 Li    0.06416    0.04064   -0.01409
 32 Li   -0.09685    0.04022   -0.05703
 33 Li   -0.05898   -0.04088   -0.28919
 34 Li   -0.01867    0.00181   -0.02087
 35 Li   -0.02921   -0.00574   -0.06159
 36 O    -0.45243   -1.65109    4.90068
 37 O    -0.12511   -0.08689    0.01099
 38 C    -0.12586   -0.14906    0.16301
 39 C    -0.45614   -0.62423    1.19547
 40 C    -0.00828   -0.10787    0.10919
 41 H    -0.02875   -0.03142    0.10235
 42 H     0.06371   -0.03787   -0.00100
 43 H     0.04810    0.15519    0.37298
 44 H    -0.59199   -0.48200    0.34402
[...]
  0    39     -3.28903    0.22712
  0    40     -3.18678    0.03261

  1    37     -3.46413    1.61911
  1    38     -3.39152    0.99746
  1    39     -3.30922    0.32192
  1    40     -3.25428    0.12019


Fermi level: -3.39177

No gap
Writing to output.gpw (mode='')


Forces in eV/Ang:
  0 Li    0.00816   -0.00693   -0.27868
  1 Li    0.01978   -0.00954   -0.25997
  2 Li   -0.02484   -0.00295   -0.28035
  3 Li   -0.00480    0.01959   -0.26916
  4 Li    0.00299   -0.00148   -0.28930
  5 Li   -0.00167    0.00392   -0.27555
  6 Li   -0.00160   -0.02578   -0.26124
  7 Li    0.00625   -0.00335   -0.29942
  8 Li   -0.00832   -0.00953   -0.27743
  9 Li   -0.01150   -0.00194    0.29411
 10 Li    0.00599   -0.03180    0.27693
 11 Li    0.00375    0.01154    0.28196
 12 Li    0.00110    0.04571    0.30138
 13 Li   -0.00972    0.07054    0.26444
 14 Li   -0.00519    0.03923    0.23727
 15 Li   -0.00289    0.01262    0.17469
 16 Li   -0.02423    0.01112    0.24525
 17 Li    0.03754   -0.01248    0.28834
 18 Li    0.00676   -0.00385   -0.00256
 19 Li   -0.00257    0.00011    0.00624
 20 Li   -0.00516   -0.00735   -0.00236
 21 Li    0.00158   -0.00708   -0.00064
 22 Li    0.00278   -0.00341   -0.00272
 23 Li    0.00179   -0.00292   -0.00193
 24 Li    0.00680    0.00202    0.00570
 25 Li    0.00182    0.00004    0.00345
 26 Li   -0.00601    0.00256    0.00446
 27 Li    0.00255    0.00203    0.02001
 28 Li    0.00333   -0.00203    0.00210
 29 Li   -0.00618    0.00155   -0.00382
 30 Li    0.00127    0.00454   -0.01222
 31 Li    0.00486    0.00316    0.00581
 32 Li   -0.00014    0.00281   -0.00003
 33 Li   -0.00857   -0.01552    0.01960
 34 Li    0.00591    0.00092    0.00548
 35 Li   -0.00412   -0.00115    0.00510
 36 O     0.02162    0.00404    0.01736
 37 O    -0.01172    0.00677    0.00776
 38 C     0.01016   -0.01340   -0.00361
 39 C     0.00635   -0.00192   -0.00007
 40 C    -0.00145   -0.01535    0.00033
 41 H     0.01109    0.00942    0.00626
 42 H    -0.00371    0.00536    0.02642
 43 H    -0.00939    0.00109   -0.01090
 44 H     0.00373   -0.00314    0.01541
 45 H     0.00579    0.02082   -0.00091
 46 H     0.00392    0.00909    0.02021
 47 H     0.00528   -0.01760    0.00219
 48 H     0.00553    0.00834    0.02788
 49 N     0.02088   -0.03839   -0.02204
 50 N    -0.04596    0.02687   -0.00671

System changes: positions 

Initializing position-dependent things.

Density initialized from wave functions
       .-----------------------.  
      /|                       |  
     / |                       |  
    /  |                       |  
   /   |                       |  
  /    |                       |  
 *     |                       |  
 |     |                       |  
 |     |                       |  
 |     |                       |  
 |     |                  H    |  
 |     H                       |  
 |     |                      C|  
 |     |H                 H C  |  
 |     |                  H    |  
 |   OH|                 O     |  
 |H    |       Li              |  
 |   Li|              C        |  
 |   N |     Li      Hi        |  
 | N   |  Li      Li      Li   |  
 |     |   Li      Li      Li  |  
 |     |Li      Li      Li     |  
 Li    |         Li            |  
 |   LLi     LLi     LLi       |  
 |     |  Li      Li      Li   |  
 | Li  |   Li      Li          |  
 |     |Li      Li      Li     |  
 Li    | Li      Li            |  
 |    Li      Li      Li       |  
 |     |                       |  
 |     |                       |  
 |     |                       |  
 |     |                       |  
 |     |                       |  
 |     |                       |  
 |     .-----------------------.  
 |    /                       /   
 |   /                       /    
 |  /                       /     
 | /                       /      
 |/                       /       
 *-----------------------*        

Positions:
   0 Li     1.617037    1.617037   10.000000    ( 0.0000,  0.0000,  0.0000)
   1 Li     4.851111    1.617037   10.000000    ( 0.0000,  0.0000,  0.0000)
   2 Li     8.085185    1.617037   10.000000    ( 0.0000,  0.0000,  0.0000)
   3 Li     1.617037    4.851111   10.000000    ( 0.0000,  0.0000,  0.0000)
   4 Li     4.851111    4.851111   10.000000    ( 0.0000,  0.0000,  0.0000)
   5 Li     8.085185    4.851111   10.000000    ( 0.0000,  0.0000,  0.0000)
   6 Li     1.617037    8.085185   10.000000    ( 0.0000,  0.0000,  0.0000)
   7 Li     4.851111    8.085185   10.000000    ( 0.0000,  0.0000,  0.0000)
   8 Li     8.085185    8.085185   10.000000    ( 0.0000,  0.0000,  0.0000)
   9 Li     0.000000    0.000000   11.617037    ( 0.0000,  0.0000,  0.0000)
  10 Li     3.234074    0.000000   11.617037    ( 0.0000,  0.0000,  0.0000)
  11 Li     6.468148    0.000000   11.617037    ( 0.0000,  0.0000,  0.0000)
  12 Li     0.000000    3.234074   11.617037    ( 0.0000,  0.0000,  0.0000)
  13 Li     3.234074    3.234074   11.617037    ( 0.0000,  0.0000,  0.0000)
  14 Li     6.468148    3.234074   11.617037    ( 0.0000,  0.0000,  0.0000)
  15 Li     0.000000    6.468148   11.617037    ( 0.0000,  0.0000,  0.0000)
  16 Li     3.234074    6.468148   11.617037    ( 0.0000,  0.0000,  0.0000)
  17 Li     6.468148    6.468148   11.617037    ( 0.0000,  0.0000,  0.0000)
  18 Li     1.626740    1.658884   13.360270    ( 0.0000,  0.0000,  0.0000)
  19 Li     4.822193    1.641569   13.447443    ( 0.0000,  0.0000,  0.0000)
  20 Li     8.083235    1.678731   13.434600    ( 0.0000,  0.0000,  0.0000)
  21 Li     1.576362    4.925259   13.496129    ( 0.0000,  0.0000,  0.0000)
  22 Li     4.838917    4.836054   13.451655    ( 0.0000,  0.0000,  0.0000)
  23 Li     8.130851    4.890125   13.513214    ( 0.0000,  0.0000,  0.0000)
  24 Li     1.575811    8.088120   13.497635    ( 0.0000,  0.0000,  0.0000)
  25 Li     4.856996    8.066894   13.419944    ( 0.0000,  0.0000,  0.0000)
  26 Li     8.161416    8.085656   13.520506    ( 0.0000,  0.0000,  0.0000)
  27 Li     0.033282    0.250205   15.349607    ( 0.0000,  0.0000,  0.0000)
  28 Li     3.304320   -0.045881   15.335068    ( 0.0000,  0.0000,  0.0000)
  29 Li     6.439803    0.005561   15.311808    ( 0.0000,  0.0000,  0.0000)
  30 Li    -0.010344    3.327212   15.466004    ( 0.0000,  0.0000,  0.0000)
  31 Li     3.241441    3.287869   15.413984    ( 0.0000,  0.0000,  0.0000)
  32 Li     6.401961    3.212224   15.374696    ( 0.0000,  0.0000,  0.0000)
  33 Li     0.075461    6.562887   15.815604    ( 0.0000,  0.0000,  0.0000)
  34 Li     3.296322    6.461917   15.361312    ( 0.0000,  0.0000,  0.0000)
  35 Li     6.415001    6.454881   15.349886    ( 0.0000,  0.0000,  0.0000)
  36 O     -0.403323    1.286544   20.213213    ( 0.0000,  0.0000,  0.0000)
  37 O      0.005226   -2.979257   17.739199    ( 0.0000,  0.0000,  0.0000)
  38 C     -0.106529   -0.913056   19.116364    ( 0.0000,  0.0000,  0.0000)
  39 C     -1.066046    0.194904   19.574140    ( 0.0000,  0.0000,  0.0000)
  40 C     -0.858329   -2.089226   18.502913    ( 0.0000,  0.0000,  0.0000)
  41 H      0.575664   -0.510960   18.362578    ( 0.0000,  0.0000,  0.0000)
  42 H      0.499669   -1.245901   19.963841    ( 0.0000,  0.0000,  0.0000)
  43 H     -1.651915    0.547479   18.714251    ( 0.0000,  0.0000,  0.0000)
  44 H     -1.772367   -0.190471   20.313335    ( 0.0000,  0.0000,  0.0000)
  45 H     -1.588075   -1.740561   17.768126    ( 0.0000,  0.0000,  0.0000)
  46 H     -1.390946   -2.677449   19.255577    ( 0.0000,  0.0000,  0.0000)
  47 H      0.120637    1.753118   19.547930    ( 0.0000,  0.0000,  0.0000)
  48 H      0.598844   -3.455465   18.333318    ( 0.0000,  0.0000,  0.0000)
  49 N      0.564718    1.617077   16.635966    ( 0.0000,  0.0000,  0.0000)
  50 N      0.849906    2.504284   17.318303    ( 0.0000,  0.0000,  0.0000)

Unit cell:
           periodic     x           y           z      points  spacing
  1. axis:    yes    9.702222    0.000000    0.000000    60     0.1617
  2. axis:    yes    0.000000    9.702222    0.000000    60     0.1617
  3. axis:    no     0.000000    0.000000   28.351111   176     0.1611

  Lengths:   9.702222   9.702222  28.351111
  Angles:   90.000000  90.000000  90.000000

Effective grid spacing dv^(1/3) = 0.1615

     iter     time        total  log10-change:
                         energy  eigst   dens
iter:   1 06:35:49  -352.976603  -2.08
iter:   2 06:35:59  -352.975059  -2.51  -2.23
iter:   3 06:36:07  -352.971114c -3.44  -2.30
iter:   4 06:36:15  -352.970474c -3.76  -2.66
Writing to output.gpw (mode='')

iter:   5 06:36:23  -352.970022c -3.19  -2.88
iter:   6 06:36:31  -352.969944c -3.38  -3.12
iter:   7 06:36:39  -352.969966c -3.57  -3.23
iter:   8 06:36:47  -352.969996c -4.34  -3.35
iter:   9 06:36:55  -352.970010c -4.34  -3.44
Writing to output.gpw (mode='')

iter:  10 06:37:03  -352.969992c -4.85  -3.56
iter:  11 06:37:11  -352.969982c -4.91  -3.70
iter:  12 06:37:19  -352.970009c -5.10  -3.75
iter:  13 06:37:27  -352.969992c -5.41  -3.92
iter:  14 06:37:35  -352.969989c -5.55  -4.11c
Writing to output.gpw (mode='')

iter:  15 06:37:43  -352.969992c -5.69  -4.22c
iter:  16 06:37:51  -352.969988c -5.84  -4.29c
iter:  17 06:37:59  -352.969992c -6.24  -4.44c
iter:  18 06:38:07  -352.969991c -6.62  -4.56c
iter:  19 06:38:15  -352.969990c -6.61  -4.63c
Writing to output.gpw (mode='')

iter:  20 06:38:23  -352.969990c -6.69  -4.68c
iter:  21 06:38:32  -352.969992c -6.92  -4.73c
iter:  22 06:38:39  -352.969991c -6.80  -4.81c
iter:  23 06:38:47  -352.969991c -7.36  -4.98c
iter:  24 06:38:56  -352.969992c -7.39  -5.04c
Writing to output.gpw (mode='')

iter:  25 06:39:04  -352.969992c -7.49c -5.09c

Converged after 25 iterations.

Dipole moment: (-1.108815, -9.825079, 0.018915) |e|*Ang

Energy contributions relative to reference atoms: (reference = -17528.314784)

Kinetic:       +180.609952
Potential:     -175.185871
External:        +0.000000
XC:            -359.516198
Entropy (-ST):   -0.148110
Local:           +1.196181
--------------------------
Free energy:   -353.044046
Extrapolated:  -352.969992

Dipole-layer corrected work functions: 3.409039, 3.372677 eV

Showing only first 2 kpts
 Kpt  Band  Eigenvalues  Occupancy
  0    37     -3.63485    1.98492
  0    38     -3.57257    1.94855
  0    39     -3.28803    0.22677
  0    40     -3.18601    0.03270

  1    37     -3.46322    1.61912
  1    38     -3.39073    0.99869
  1    39     -3.30841    0.32250
  1    40     -3.25341    0.12028


Fermi level: -3.39086

No gap

Forces in eV/Ang:
  0 Li    0.00823   -0.00691   -0.27863
  1 Li    0.01966   -0.00950   -0.25970
  2 Li   -0.02480   -0.00299   -0.28037
  3 Li   -0.00479    0.01967   -0.26894
  4 Li    0.00295   -0.00160   -0.28888
  5 Li   -0.00191    0.00402   -0.27549
  6 Li   -0.00153   -0.02586   -0.26107
  7 Li    0.00610   -0.00324   -0.29954
  8 Li   -0.00830   -0.00960   -0.27710
  9 Li   -0.01080   -0.00301    0.29532
 10 Li    0.00649   -0.03179    0.27769
 11 Li    0.00277    0.01163    0.28309
 12 Li    0.00132    0.04668    0.30220
 13 Li   -0.00830    0.07063    0.26327
 14 Li   -0.00571    0.03832    0.23727
 15 Li   -0.00233    0.01367    0.17534
 16 Li   -0.02228    0.01169    0.24462
 17 Li    0.03631   -0.01108    0.28831
 18 Li    0.00629   -0.00584   -0.00003
 19 Li   -0.00239   -0.00103    0.00374
 20 Li   -0.00495   -0.00850   -0.00061
 21 Li   -0.00191   -0.00797    0.00188
 22 Li    0.00210   -0.00245   -0.00366
 23 Li    0.00389   -0.00430    0.00113
 24 Li    0.00495    0.00179    0.00469
 25 Li    0.00271   -0.00059    0.00141
 26 Li   -0.00536    0.00180    0.00315
 27 Li    0.00141    0.00412    0.01787
 28 Li    0.00287   -0.00095    0.00160
 29 Li   -0.00349    0.00154   -0.00305
 30 Li    0.00197   -0.00019   -0.01001
 31 Li    0.00463    0.00326    0.00487
 32 Li   -0.00005    0.00325   -0.00034
 33 Li   -0.00779   -0.01413    0.01392
 34 Li    0.00248    0.00052    0.00643
 35 Li   -0.00218   -0.00069    0.00459
 36 O     0.02091    0.00445    0.01922
 37 O    -0.00811    0.01001   -0.00024
 38 C     0.01430   -0.02253   -0.01154
 39 C     0.00194   -0.00075   -0.00619
 40 C    -0.01028   -0.02201   -0.01156
 41 H     0.01251    0.01263    0.00284
 42 H     0.00288    0.00765    0.03950
 43 H    -0.01659    0.00332   -0.02200
 44 H     0.00159   -0.00871    0.01783
 45 H    -0.01767    0.02602   -0.00338
 46 H    -0.01028    0.02224    0.03425
 47 H     0.01053   -0.01066   -0.00919
 48 H     0.01531   -0.00187    0.03770
 49 N     0.01772   -0.02509   -0.02686
 50 N    -0.00282    0.01814   -0.00802

Timing:                                      incl.     excl.
-------------------------------------------------------------------
Density initialized from wave functions:     3.796     3.793   0.0% |
 Symmetrize density:                         0.004     0.004   0.0% |
Forces:                                     60.205    60.205   0.2% |
Hamiltonian:                               677.717     0.015   0.0% |
 Atomic:                                     0.024     0.024   0.0% |
  XC Correction:                             0.000     0.000   0.0% |
 Calculate atomic Hamiltonians:              0.053     0.053   0.0% |
 Communicate:                               10.460    10.460   0.0% |
 Hartree integrate/restrict:                 2.774     2.774   0.0% |
 Initialize Hamiltonian:                     0.000     0.000   0.0% |
 Poisson:                                   32.956    12.196   0.0% |
  Communicate from 1D:                       3.295     3.295   0.0% |
  Communicate from 2D:                       3.210     3.210   0.0% |
  Communicate to 1D:                         1.880     1.880   0.0% |
  Communicate to 2D:                         3.690     3.690   0.0% |
  FFT 1D:                                    4.263     4.263   0.0% |
  FFT 2D:                                    4.423     4.423   0.0% |
 XC 3D grid:                               630.872    96.632   0.3% |
  VdW-DF integral:                         534.239     4.366   0.0% |
   Convolution:                             46.809    46.809   0.1% |
   FFT:                                     20.738    20.738   0.1% |
   gather:                                 179.813   179.813   0.6% |
   hmm1:                                    18.341    18.341   0.1% |
   hmm2:                                    24.059    24.059   0.1% |
   iFFT:                                    21.259    21.259   0.1% |
   potential:                              215.174     5.657   0.0% |
    collect:                                36.357    36.357   0.1% |
    p1:                                     98.347    98.347   0.3% |
    p2:                                     36.431    36.431   0.1% |
    sum:                                    38.383    38.383   0.1% |
   splines:                                  3.679     3.679   0.0% |
 vbar:                                       0.563     0.563   0.0% |
LCAO initialization:                         1.232     0.187   0.0% |
 LCAO eigensolver:                           0.216     0.000   0.0% |
  Calculate projections:                     0.000     0.000   0.0% |
  DenseAtomicCorrection:                     0.000     0.000   0.0% |
  Distribute overlap matrix:                 0.196     0.196   0.0% |
  Orbital Layouts:                           0.018     0.018   0.0% |
  Potential matrix:                          0.001     0.001   0.0% |
  Sum over cells:                            0.001     0.001   0.0% |
 LCAO to grid:                               0.710     0.710   0.0% |
 Set positions (LCAO WFS):                   0.119     0.069   0.0% |
  Basic WFS set positions:                   0.001     0.001   0.0% |
  Basis functions set positions:             0.000     0.000   0.0% |
  P tci:                                     0.000     0.000   0.0% |
  ST tci:                                    0.014     0.014   0.0% |
  mktci:                                     0.035     0.035   0.0% |
Redistribute:                                0.064     0.064   0.0% |
SCF-cycle:                               30716.066   496.105   1.6% ||
 Davidson:                                8910.472  2649.358   8.4% |--|
  Apply hamiltonian:                       572.770   572.770   1.8% ||
  Subspace diag:                          1654.180     0.449   0.0% |
   calc_h_matrix:                          871.911   294.733   0.9% |
    Apply hamiltonian:                     577.177   577.177   1.8% ||
   diagonalize:                             50.735    50.735   0.2% |
   rotate_psi:                             731.085   731.085   2.3% ||
  calc. matrices:                         2842.589  1471.593   4.7% |-|
   Apply hamiltonian:                     1370.996  1370.996   4.3% |-|
  diagonalize:                              26.710    26.710   0.1% |
  rotate_psi:                             1164.865  1164.865   3.7% ||
 Density:                                  155.160     0.096   0.0% |
  Atomic density matrices:                  16.840    16.840   0.1% |
  Mix:                                      66.875    66.875   0.2% |
  Multipole moments:                         7.480     7.480   0.0% |
  Pseudo density:                           63.869    63.772   0.2% |
   Symmetrize density:                       0.097     0.097   0.0% |
 Hamiltonian:                            21130.647     0.453   0.0% |
  Atomic:                                    0.838     0.829   0.0% |
   XC Correction:                            0.009     0.009   0.0% |
  Calculate atomic Hamiltonians:             1.267     1.267   0.0% |
  Communicate:                             300.862   300.862   1.0% |
  Hartree integrate/restrict:               85.712    85.712   0.3% |
  Poisson:                                1032.435   383.180   1.2% |
   Communicate from 1D:                    103.312   103.312   0.3% |
   Communicate from 2D:                    100.919   100.919   0.3% |
   Communicate to 1D:                       59.056    59.056   0.2% |
   Communicate to 2D:                      116.529   116.529   0.4% |
   FFT 1D:                                 132.866   132.866   0.4% |
   FFT 2D:                                 136.574   136.574   0.4% |
  XC 3D grid:                            19690.896  3018.456   9.6% |---|
   VdW-DF integral:                      16672.440   135.939   0.4% |
    Convolution:                          1460.012  1460.012   4.6% |-|
    FFT:                                   645.390   645.390   2.0% ||
    gather:                               5700.361  5700.361  18.0% |------|
    hmm1:                                  569.423   569.423   1.8% ||
    hmm2:                                  747.113   747.113   2.4% ||
    iFFT:                                  662.814   662.814   2.1% ||
    potential:                            6751.353   176.579   0.6% |
     collect:                             1031.395  1031.395   3.3% ||
     p1:                                  3066.565  3066.565   9.7% |---|
     p2:                                  1136.020  1136.020   3.6% ||
     sum:                                 1340.794  1340.794   4.2% |-|
    splines:                                 0.035     0.035   0.0% |
  vbar:                                     18.185    18.185   0.1% |
 Orthonormalize:                            23.682     0.017   0.0% |
  calc_s_matrix:                             3.843     3.843   0.0% |
  inverse-cholesky:                          5.793     5.793   0.0% |
  projections:                               0.003     0.003   0.0% |
  rotate_psi_s:                             14.026    14.026   0.0% |
Set symmetry:                                0.002     0.002   0.0% |
Other:                                     130.176   130.176   0.4% |
-------------------------------------------------------------------
Total:                                             31589.259 100.0%

Memory usage: 1.20 GiB
Date: Sat Mar 11 06:39:04 2023
