
  ___ ___ ___ _ _ _  
 |   |   |_  | | | | 
 | | | | | . | | | | 
 |__ |  _|___|_____|  22.8.0
 |___|_|             

User:   vazumah@r350.ib.bridges2.psc.edu
Date:   Fri Mar 10 12:22:51 2023
Arch:   x86_64
Pid:    67178
CWD:    /jet/home/vazumah/Calcs/LiMEAS/proton_donors/ethanediol_z/bridge/0.0_1.617/N2_z
Python: 3.11.0
gpaw:   /jet/home/vazumah/.conda/envs/GPAW_mpich/lib/python3.11/site-packages/gpaw
_gpaw:  /jet/home/vazumah/.conda/envs/GPAW_mpich/lib/python3.11/site-packages/
        _gpaw.cpython-311-x86_64-linux-gnu.so
ase:    /jet/home/vazumah/.conda/envs/GPAW_mpich/lib/python3.11/site-packages/ase (version 3.22.1)
numpy:  /jet/home/vazumah/.conda/envs/GPAW_mpich/lib/python3.11/site-packages/numpy (version 1.24.2)
scipy:  /jet/home/vazumah/.conda/envs/GPAW_mpich/lib/python3.11/site-packages/scipy (version 1.10.1)
libxc:  5.2.3
units:  Angstrom and eV
cores: 128
OpenMP: True
OMP_NUM_THREADS: 1

Input parameters:
  h: 0.16
  kpts: {size: [4, 4, 1]}
  occupations: {name: fermi-dirac,
                width: 0.05}
  poissonsolver: {dipolelayer: xy}
  xc: BEEF-vdW

System changes: positions, numbers, cell, pbc, initial_charges, initial_magmoms 

Initialize ...

species:
  Li:
    name: Lithium
    id: 830b4218f175192f93f959cfc0aad614
    Z: 3.0
    valence: 1
    core: 2
    charge: 0.0
    file: /jet/home/vazumah/datasets/gpaw-setups-0.9.20000/Li.PBE.gz
    compensation charges: {type: gauss,
                           rc: 0.33,
                           lmax: 2}
    cutoffs: {filter: 1.91,
              core: 2.55}
    valence states:
      #              energy  rcut
      - 2s(1.00)    -2.874   1.058
      - 2p(0.00)    -1.090   1.058
      -  s          24.337   1.058
  
    # Using partial waves for Li as LCAO basis

  O:
    name: Oxygen
    id: 32ecd46bf208036f09c70b0ec9a88b78
    Z: 8.0
    valence: 6
    core: 2
    charge: 0.0
    file: /jet/home/vazumah/datasets/gpaw-setups-0.9.20000/O.PBE.gz
    compensation charges: {type: gauss,
                           rc: 0.21,
                           lmax: 2}
    cutoffs: {filter: 1.17,
              core: 0.83}
    valence states:
      #              energy  rcut
      - 2s(2.00)   -23.961   0.688
      - 2p(4.00)    -9.029   0.598
      -  s           3.251   0.688
      -  p          18.182   0.598
      -  d           0.000   0.619
  
    # Using partial waves for O as LCAO basis

  C:
    name: Carbon
    id: 4aa54d4b901d75f77cc0ea3eec22967b
    Z: 6.0
    valence: 4
    core: 2
    charge: 0.0
    file: /jet/home/vazumah/datasets/gpaw-setups-0.9.20000/C.PBE.gz
    compensation charges: {type: gauss,
                           rc: 0.20,
                           lmax: 2}
    cutoffs: {filter: 1.14,
              core: 1.14}
    valence states:
      #              energy  rcut
      - 2s(2.00)   -13.751   0.635
      - 2p(2.00)    -5.284   0.635
      -  s          13.461   0.635
      -  p          21.927   0.635
      -  d           0.000   0.635
  
    # Using partial waves for C as LCAO basis

  H:
    name: Hydrogen
    id: d65de229564ff8ea4db303e23b6d1ecf
    Z: 1.0
    valence: 1
    core: 0
    charge: 0.0
    file: /jet/home/vazumah/datasets/gpaw-setups-0.9.20000/H.PBE.gz
    compensation charges: {type: gauss,
                           rc: 0.15,
                           lmax: 2}
    cutoffs: {filter: 0.85,
              core: 0.53}
    valence states:
      #              energy  rcut
      - 1s(1.00)    -6.494   0.476
      -  s          20.717   0.476
      -  p           0.000   0.476
  
    # Using partial waves for H as LCAO basis

  N:
    name: Nitrogen
    id: f7500608b86eaa90eef8b1d9a670dc53
    Z: 7.0
    valence: 5
    core: 2
    charge: 0.0
    file: /jet/home/vazumah/datasets/gpaw-setups-0.9.20000/N.PBE.gz
    compensation charges: {type: gauss,
                           rc: 0.18,
                           lmax: 2}
    cutoffs: {filter: 1.11,
              core: 0.96}
    valence states:
      #              energy  rcut
      - 2s(2.00)   -18.583   0.603
      - 2p(3.00)    -7.089   0.529
      -  s           8.629   0.603
      -  p          20.123   0.529
      -  d           0.000   0.577
  
    # Using partial waves for N as LCAO basis

Reference energy: -16475.706344  # eV

Spin-paired calculation

Convergence criteria:
 Maximum [total energy] change in last 3 cyles: 0.0005 eV / electron
 Maximum integral of absolute [dens]ity change: 0.0001 electrons / valence electron
 Maximum integral of absolute [eigenst]ate change: 4e-08 eV^2 / valence electron
 Maximum number of scf [iter]ations: 333
 (Square brackets indicate name in SCF output, whereas a 'c' in
 the SCF output indicates the quantity has converged.)

Symmetries present (total): 1

  ( 1  0  0)
  ( 0  1  0)
  ( 0  0  1)

16 k-points: 4 x 4 x 1 Monkhorst-Pack grid
8 k-points in the irreducible part of the Brillouin zone
       k-points in crystal coordinates                weights
   0:     0.12500000   -0.37500000    0.00000000          2/16
   1:     0.12500000   -0.12500000    0.00000000          2/16
   2:     0.12500000    0.12500000    0.00000000          2/16
   3:     0.12500000    0.37500000    0.00000000          2/16
   4:     0.37500000   -0.37500000    0.00000000          2/16
   5:     0.37500000   -0.12500000    0.00000000          2/16
   6:     0.37500000    0.12500000    0.00000000          2/16
   7:     0.37500000    0.37500000    0.00000000          2/16

Wave functions: Uniform real-space grid
  Kinetic energy operator: 6*3+1=19 point O(h^6) finite-difference Laplacian
  ScaLapack parameters: grid=1x1, blocksize=None
  Wavefunction extrapolation:
    Improved wavefunction reuse through dual PAW basis 

Occupation numbers: Fermi-Dirac:
  width: 0.0500  # eV
 

Eigensolver
   Davidson(niter=2) 

Densities:
  Coarse grid: 60*60*168 grid
  Fine grid: 120*120*336 grid
  Total Charge: 0.000000 

Density mixing:
  Method: separate
  Backend: pulay
  Linear mixing parameter: 0.05
  old densities: 5
  Damping of long wavelength oscillations: 50 

Hamiltonian:
  XC and Coulomb potentials evaluated on a 120*120*336 grid
  Using the BEEF-vdW Exchange-Correlation functional
  Interpolation: tri-quintic (5. degree polynomial)
  Poisson solver: FastPoissonSolver using
    Stencil: 6*3+1=19 point O(h^6) finite-difference Laplacian
    FFT axes: [0, 1]
    FST axes: [2]

Dipole correction along z-axis 

XC parameters: BEEF-vdW with 2 nearest neighbor stencil

Memory estimate:
  Process memory now: 125.62 MiB
  Calculator: 86.74 MiB
    Density: 22.99 MiB
      Arrays: 7.40 MiB
      Localized functions: 12.78 MiB
      Mixer: 2.82 MiB
    Hamiltonian: 5.85 MiB
      Arrays: 4.84 MiB
      XC: 0.00 MiB
      Poisson: 0.00 MiB
      vbar: 1.01 MiB
    Wavefunctions: 57.90 MiB
      Arrays psit_nG: 27.03 MiB
      Eigensolver: 30.19 MiB
      Projections: 0.01 MiB
      Projectors: 0.66 MiB

Total number of cores used: 128
Parallelization over k-points: 8
Domain decomposition: 2 x 2 x 4

Number of atoms: 48
Number of atomic orbitals: 174
Number of bands in calculation: 48
Number of valence electrons: 72
Bands to converge: occupied

... initialized

Initializing position-dependent things.

Density initialized from atomic densities
Creating initial wave functions:
  48 bands from LCAO basis set

       .-----------------------.  
      /|                       |  
     / |                       |  
    /  |                       |  
   /   |                       |  
  /    |                       |  
 *     |                       |  
 |     |                       |  
 |     |                       |  
 |     |                   H   |  
 | C  H|                 O     |  
 |     |                 H     |  
 |     |               H  CH   |  
 |     |                       |  
 |O H  |                       |  
 |N    |                       |  
 |   Li|     Li      Li        |  
 |N    |  Li      Li      Li   |  
 | Li  |   Li      Li          |  
 |     |Li      Li      Li     |  
 Li    | Li      Li            |  
 |   LLi     LLi     LLi       |  
 |     |  Li      Li      Li   |  
 | Li  |   Li      Li          |  
 |     |Li      Li      Li     |  
 Li    | Li      Li            |  
 |    Li      Li      Li       |  
 |     |                       |  
 |     |                       |  
 |     |                       |  
 |     |                       |  
 |     |                       |  
 |     |                       |  
 |     .-----------------------.  
 |    /                       /   
 |   /                       /    
 |  /                       /     
 | /                       /      
 |/                       /       
 *-----------------------*        

Positions:
   0 Li     1.617037    1.617037   10.000000    ( 0.0000,  0.0000,  0.0000)
   1 Li     4.851111    1.617037   10.000000    ( 0.0000,  0.0000,  0.0000)
   2 Li     8.085185    1.617037   10.000000    ( 0.0000,  0.0000,  0.0000)
   3 Li     1.617037    4.851111   10.000000    ( 0.0000,  0.0000,  0.0000)
   4 Li     4.851111    4.851111   10.000000    ( 0.0000,  0.0000,  0.0000)
   5 Li     8.085185    4.851111   10.000000    ( 0.0000,  0.0000,  0.0000)
   6 Li     1.617037    8.085185   10.000000    ( 0.0000,  0.0000,  0.0000)
   7 Li     4.851111    8.085185   10.000000    ( 0.0000,  0.0000,  0.0000)
   8 Li     8.085185    8.085185   10.000000    ( 0.0000,  0.0000,  0.0000)
   9 Li     0.000000    0.000000   11.617037    ( 0.0000,  0.0000,  0.0000)
  10 Li     3.234074    0.000000   11.617037    ( 0.0000,  0.0000,  0.0000)
  11 Li     6.468148    0.000000   11.617037    ( 0.0000,  0.0000,  0.0000)
  12 Li     0.000000    3.234074   11.617037    ( 0.0000,  0.0000,  0.0000)
  13 Li     3.234074    3.234074   11.617037    ( 0.0000,  0.0000,  0.0000)
  14 Li     6.468148    3.234074   11.617037    ( 0.0000,  0.0000,  0.0000)
  15 Li     0.000000    6.468148   11.617037    ( 0.0000,  0.0000,  0.0000)
  16 Li     3.234074    6.468148   11.617037    ( 0.0000,  0.0000,  0.0000)
  17 Li     6.468148    6.468148   11.617037    ( 0.0000,  0.0000,  0.0000)
  18 Li     1.617038    1.617038   13.469728    ( 0.0000,  0.0000,  0.0000)
  19 Li     4.851111    1.617038   13.469729    ( 0.0000,  0.0000,  0.0000)
  20 Li     8.085184    1.617038   13.469728    ( 0.0000,  0.0000,  0.0000)
  21 Li     1.617038    4.851111   13.469729    ( 0.0000,  0.0000,  0.0000)
  22 Li     4.851111    4.851111   13.469730    ( 0.0000,  0.0000,  0.0000)
  23 Li     8.085184    4.851111   13.469729    ( 0.0000,  0.0000,  0.0000)
  24 Li     1.617038    8.085184   13.469728    ( 0.0000,  0.0000,  0.0000)
  25 Li     4.851111    8.085184   13.469729    ( 0.0000,  0.0000,  0.0000)
  26 Li     8.085184    8.085184   13.469728    ( 0.0000,  0.0000,  0.0000)
  27 Li    -0.000000   -0.000000   15.445939    ( 0.0000,  0.0000,  0.0000)
  28 Li     3.234074    0.000000   15.445939    ( 0.0000,  0.0000,  0.0000)
  29 Li     6.468148    0.000000   15.445939    ( 0.0000,  0.0000,  0.0000)
  30 Li     0.000000    3.234074   15.445939    ( 0.0000,  0.0000,  0.0000)
  31 Li     3.234076    3.234076   15.445938    ( 0.0000,  0.0000,  0.0000)
  32 Li     6.468146    3.234076   15.445938    ( 0.0000,  0.0000,  0.0000)
  33 Li     0.000000    6.468148   15.445939    ( 0.0000,  0.0000,  0.0000)
  34 Li     3.234076    6.468146   15.445938    ( 0.0000,  0.0000,  0.0000)
  35 Li     6.468146    6.468146   15.445938    ( 0.0000,  0.0000,  0.0000)
  36 O      0.000000    1.617037   19.645939    ( 0.0000,  0.0000,  0.0000)
  37 O     -0.232689    1.661030   22.544137    ( 0.0000,  0.0000,  0.0000)
  38 C     -0.412377    2.788249   20.374500    ( 0.0000,  0.0000,  0.0000)
  39 C      0.156774    2.801939   21.783686    ( 0.0000,  0.0000,  0.0000)
  40 H     -0.119544    3.702639   19.846375    ( 0.0000,  0.0000,  0.0000)
  41 H     -1.501944    2.740951   20.407249    ( 0.0000,  0.0000,  0.0000)
  42 H     -0.219707    3.676205   22.320404    ( 0.0000,  0.0000,  0.0000)
  43 H      1.255834    2.877440   21.733956    ( 0.0000,  0.0000,  0.0000)
  44 H      0.947321    1.691552   19.476515    ( 0.0000,  0.0000,  0.0000)
  45 H     -0.136250    0.893910   21.964672    ( 0.0000,  0.0000,  0.0000)
  46 N      0.000000    1.617000   17.195939    ( 0.0000,  0.0000,  0.0000)
  47 N      0.000000    1.617000   18.292561    ( 0.0000,  0.0000,  0.0000)

Unit cell:
           periodic     x           y           z      points  spacing
  1. axis:    yes    9.702222    0.000000    0.000000    60     0.1617
  2. axis:    yes    0.000000    9.702222    0.000000    60     0.1617
  3. axis:    no     0.000000    0.000000   26.601111   168     0.1583

  Lengths:   9.702222   9.702222  26.601111
  Angles:   90.000000  90.000000  90.000000

Effective grid spacing dv^(1/3) = 0.1606

     iter     time        total  log10-change:
                         energy  eigst   dens
iter:   1 12:23:06  -766.395856
iter:   2 12:23:14    81.894149  +2.65  +0.04
iter:   3 12:23:21   294.891987  +3.40  -0.09
iter:   4 12:23:28  -179.301243  +3.53  -0.15
Writing to output.gpw (mode='')

iter:   5 12:23:36  -270.876077  +3.02  -0.14
iter:   6 12:23:43  -316.081050  +2.66  -0.39
iter:   7 12:23:51  -344.948129  +2.33  -0.51
iter:   8 12:23:58  -367.562019  +2.09  -0.50
iter:   9 12:24:05  -561.273502  +2.75  -0.44
Writing to output.gpw (mode='')

iter:  10 12:24:13  -333.886354  +1.80  -0.23
iter:  11 12:24:20  -335.141093  +1.48  -0.61
iter:  12 12:24:28  -319.079242  +1.58  -0.60
iter:  13 12:24:35  -321.302317  +1.19  -0.78
iter:  14 12:24:48  -318.814422  +1.44  -0.77
Writing to output.gpw (mode='')

iter:  15 12:24:55  -326.120556  +1.77  -0.84
iter:  16 12:25:05  -319.282071  +0.79  -0.71
iter:  17 12:25:12  -318.646034  +0.73  -0.88
iter:  18 12:25:19  -320.858415  +0.86  -0.90
iter:  19 12:25:27  -317.816862  +0.16  -0.80
Writing to output.gpw (mode='')

iter:  20 12:25:34  -318.767707  +0.19  -1.01
iter:  21 12:25:42  -318.129767  -0.26  -0.95
iter:  22 12:25:49  -317.509975  -0.36  -1.00
iter:  23 12:25:57  -317.130927  -0.27  -1.06
iter:  24 12:26:04  -316.963966  -0.51  -1.15
Writing to output.gpw (mode='')

iter:  25 12:26:11  -316.955178  -0.50  -1.19
iter:  26 12:26:19  -316.950859c -0.59  -1.24
iter:  27 12:26:26  -316.646955  -0.50  -1.36
iter:  28 12:26:34  -316.583287  -0.24  -1.53
iter:  29 12:26:41  -316.537395  -0.92  -1.52
Writing to output.gpw (mode='')

iter:  30 12:26:49  -316.538631  -0.93  -1.68
iter:  31 12:26:56  -316.536617c -1.00  -1.70
iter:  32 12:27:03  -316.527132c -1.27  -1.75
iter:  33 12:27:11  -316.532859c -1.07  -1.84
iter:  34 12:27:18  -316.547117c -1.05  -1.98
Writing to output.gpw (mode='')

iter:  35 12:27:26  -316.547703c -1.45  -2.14
iter:  36 12:27:33  -316.541400c -1.69  -2.17
iter:  37 12:27:41  -316.543934c -1.87  -2.25
iter:  38 12:27:48  -316.544098c -1.88  -2.44
iter:  39 12:27:56  -316.545200c -2.17  -2.51
Writing to output.gpw (mode='')

iter:  40 12:28:03  -316.546967c -2.23  -2.51
iter:  41 12:28:10  -316.546793c -2.36  -2.69
iter:  42 12:28:18  -316.547522c -2.45  -2.78
iter:  43 12:28:25  -316.547664c -2.49  -2.86
iter:  44 12:28:33  -316.548139c -2.65  -3.04
Writing to output.gpw (mode='')

iter:  45 12:28:40  -316.548492c -2.69  -3.05
iter:  46 12:28:47  -316.548953c -2.67  -3.08
iter:  47 12:28:55  -316.549290c -2.73  -3.18
iter:  48 12:29:02  -316.549494c -3.04  -3.40
iter:  49 12:29:10  -316.549732c -2.83  -3.44
Writing to output.gpw (mode='')

iter:  50 12:29:17  -316.549894c -3.16  -3.49
iter:  51 12:29:25  -316.550055c -3.06  -3.47
iter:  52 12:29:32  -316.550174c -3.29  -3.47
iter:  53 12:29:43  -316.550323c -3.26  -3.43
iter:  54 12:29:53  -316.550408c -3.41  -3.55
Writing to output.gpw (mode='')

iter:  55 12:30:00  -316.550502c -3.40  -3.50
iter:  56 12:30:08  -316.550578c -3.41  -3.52
iter:  57 12:30:15  -316.550635c -3.51  -3.46
iter:  58 12:30:22  -316.550686c -3.63  -3.43
iter:  59 12:30:30  -316.550753c -3.66  -3.41
Writing to output.gpw (mode='')

iter:  60 12:30:37  -316.550806c -3.67  -3.64
iter:  61 12:30:45  -316.550845c -3.87  -3.68
iter:  62 12:30:52  -316.550888c -3.73  -3.70
iter:  63 12:30:59  -316.550908c -4.15  -3.86
iter:  64 12:31:07  -316.550925c -4.04  -3.92
Writing to output.gpw (mode='')

iter:  65 12:31:14  -316.550938c -4.14  -3.97
iter:  66 12:31:22  -316.550948c -4.07  -4.04c
iter:  67 12:31:29  -316.550959c -4.47  -4.07c
iter:  68 12:31:37  -316.550971c -4.14  -4.23c
iter:  69 12:31:44  -316.550976c -4.55  -4.29c
Writing to output.gpw (mode='')

iter:  70 12:31:51  -316.550983c -4.64  -4.28c
iter:  71 12:31:59  -316.550989c -4.60  -4.32c
iter:  72 12:32:06  -316.550992c -4.48  -4.38c
iter:  73 12:32:14  -316.550997c -4.84  -4.42c
iter:  74 12:32:21  -316.550998c -4.91  -4.54c
Writing to output.gpw (mode='')

iter:  75 12:32:29  -316.551001c -4.97  -4.57c
iter:  76 12:32:36  -316.551003c -5.02  -4.67c
iter:  77 12:32:44  -316.551006c -4.90  -4.68c
iter:  78 12:32:51  -316.551008c -5.00  -4.78c
iter:  79 12:32:58  -316.551010c -4.99  -4.86c
Writing to output.gpw (mode='')

iter:  80 12:33:06  -316.551011c -5.36  -5.09c
iter:  81 12:33:13  -316.551011c -5.33  -5.06c
iter:  82 12:33:21  -316.551011c -5.27  -4.97c
iter:  83 12:33:28  -316.551012c -5.45  -4.98c
iter:  84 12:33:36  -316.551013c -5.51  -5.11c
Writing to output.gpw (mode='')

iter:  85 12:33:43  -316.551013c -5.44  -5.11c
iter:  86 12:33:51  -316.551014c -5.50  -5.17c
iter:  87 12:33:58  -316.551014c -5.64  -5.30c
iter:  88 12:34:05  -316.551015c -5.68  -5.21c
iter:  89 12:34:13  -316.551015c -5.69  -5.21c
Writing to output.gpw (mode='')

iter:  90 12:34:20  -316.551016c -5.82  -5.31c
iter:  91 12:34:28  -316.551016c -5.80  -5.54c
iter:  92 12:34:35  -316.551016c -5.87  -5.77c
iter:  93 12:34:48  -316.551016c -5.95  -5.82c
iter:  94 12:34:55  -316.551016c -5.95  -5.90c
Writing to output.gpw (mode='')

iter:  95 12:35:02  -316.551016c -6.03  -5.95c
iter:  96 12:35:10  -316.551016c -6.10  -5.78c
iter:  97 12:35:17  -316.551016c -6.24  -5.72c
iter:  98 12:35:25  -316.551016c -6.30  -5.76c
iter:  99 12:35:32  -316.551016c -6.37  -5.51c
Writing to output.gpw (mode='')

iter: 100 12:35:39  -316.551016c -6.42  -5.45c
iter: 101 12:35:47  -316.551016c -6.44  -5.63c
iter: 102 12:35:54  -316.551016c -6.40  -5.62c
iter: 103 12:36:02  -316.551016c -6.54  -5.55c
iter: 104 12:36:09  -316.551016c -6.49  -5.44c
Writing to output.gpw (mode='')

iter: 105 12:36:17  -316.551016c -6.55  -5.49c
iter: 106 12:36:24  -316.551016c -6.68  -5.51c
iter: 107 12:36:31  -316.551016c -6.72  -5.58c
iter: 108 12:36:39  -316.551016c -6.73  -5.67c
iter: 109 12:36:46  -316.551016c -6.79  -5.81c
Writing to output.gpw (mode='')

iter: 110 12:36:54  -316.551016c -6.78  -5.84c
iter: 111 12:37:01  -316.551016c -6.82  -5.95c
iter: 112 12:37:09  -316.551016c -6.82  -6.02c
iter: 113 12:37:16  -316.551016c -6.84  -6.10c
iter: 114 12:37:24  -316.551016c -6.93  -6.21c
Writing to output.gpw (mode='')

iter: 115 12:37:31  -316.551016c -7.00  -6.22c
iter: 116 12:37:38  -316.551016c -7.04  -6.24c
iter: 117 12:37:46  -316.551016c -7.03  -6.24c
iter: 118 12:37:53  -316.551016c -7.17  -6.21c
iter: 119 12:38:01  -316.551016c -7.25  -6.15c
Writing to output.gpw (mode='')

iter: 120 12:38:08  -316.551016c -7.31  -6.28c
iter: 121 12:38:16  -316.551016c -7.35  -6.23c
iter: 122 12:38:23  -316.551016c -7.41c -6.23c

Converged after 122 iterations.

Dipole moment: (1.258081, -3.716673, 0.102642) |e|*Ang

Energy contributions relative to reference atoms: (reference = -16475.706344)

Kinetic:       +193.335320
Potential:     -175.667034
External:        +0.000000
XC:            -335.187312
Entropy (-ST):   -0.170895
Local:           +1.053456
--------------------------
Free energy:   -316.636464
Extrapolated:  -316.551016

Dipole-layer corrected work functions: 3.390436, 3.193123 eV

Showing only first 2 kpts
 Kpt  Band  Eigenvalues  Occupancy
  0    34     -3.47622    1.95121
  0    35     -3.38974    1.75288
  0    36     -3.15389    0.11930
  0    37     -3.11090    0.05229

  1    34     -3.36182    1.60465
  1    35     -3.29566    1.03878
  1    36     -3.27181    0.80292
  1    37     -3.19777    0.26475


Fermi level: -3.29178

No gap
Writing to output.gpw (mode='')


Forces in eV/Ang:
  0 Li    0.01703   -0.00109   -0.27742
  1 Li   -0.00675    0.00094   -0.26277
  2 Li   -0.01147   -0.00167   -0.27529
  3 Li    0.00698    0.00731   -0.27348
  4 Li   -0.00095    0.00219   -0.28292
  5 Li   -0.00645    0.01277   -0.27175
  6 Li    0.00459   -0.00665   -0.27284
  7 Li   -0.00047   -0.00325   -0.28620
  8 Li   -0.00468   -0.01203   -0.27038
  9 Li   -0.00018    0.00813    0.30985
 10 Li    0.01668   -0.00210    0.25275
 11 Li   -0.01606   -0.00832    0.26204
 12 Li   -0.00268   -0.01202    0.32130
 13 Li    0.01758    0.00399    0.24967
 14 Li   -0.01449    0.00641    0.26410
 15 Li   -0.00057    0.00438    0.24512
 16 Li   -0.02022   -0.00087    0.26711
 17 Li    0.02225    0.00279    0.25828
 18 Li    0.05622   -0.00068   -0.05973
 19 Li    0.00206    0.00118    0.04598
 20 Li   -0.05267   -0.00202   -0.07569
 21 Li   -0.01945   -0.01531    0.04652
 22 Li    0.00632   -0.00036    0.03707
 23 Li    0.01471   -0.00310    0.03629
 24 Li   -0.01517    0.01580    0.04577
 25 Li    0.00147   -0.00077    0.02987
 26 Li    0.01451    0.00964    0.04727
 27 Li    0.00296    0.13811    0.08704
 28 Li    0.00705   -0.00128   -0.01097
 29 Li   -0.02000   -0.01665   -0.02027
 30 Li   -0.02680   -0.16741    0.12723
 31 Li    0.01949    0.00709   -0.01595
 32 Li   -0.00746    0.01019   -0.01561
 33 Li   -0.00202    0.00189   -0.01658
 34 Li   -0.00263   -0.00457   -0.01390
 35 Li    0.00345    0.00111   -0.01961
 36 O    -1.28270    0.31290   13.66859
 37 O    -0.05645    0.25205    0.08690
 38 C    -1.77011    2.77666    3.25416
 39 C     0.12125   -0.09321   -0.00559
 40 H     0.27308   -0.27006   -0.37491
 41 H     0.06911   -0.02627   -0.00691
 42 H    -0.04125    0.03499    0.12347
 43 H    -0.13774    0.06379   -0.01111
 44 H     2.00401   -0.44024    1.34783
 45 H     0.04199   -0.23922    0.01470
 46 N    -2.54228    1.96510   -9.32897
 47 N     3.36189   -4.32712   -8.98230

System changes: positions 

Initializing position-dependent things.

Density initialized from wave functions
       .-----------------------.  
      /|                       |  
     / |                       |  
    /  |                       |  
   /   |                       |  
  /    |                       |  
 *     |                       |  
 |     |                       |  
 |     |                       |  
 |     |                   H   |  
 | C  H|                 O     |  
 |     |                 H     |  
 |     |               H  CH   |  
 |     |                       |  
 |  H  |       Li      Li O    |  
 |N    |                       |  
 |     |     Li      Li      Li|  
 |     |  Li      Li      Ni   |  
 |     |   Li      Li      Li  |  
 |     |Li      Li      Li     |  
 Li    |                       |  
 |   LLi     LLi     LLi       |  
 |     |  Li      Li      Li   |  
 | Li  |   Li      Li          |  
 |     |Li      Li      Li     |  
 Li    | Li      Li            |  
 |    Li      Li      Li       |  
 |     |                       |  
 |     |                       |  
 |     |                       |  
 |     |                       |  
 |     |                       |  
 |     |                       |  
 |     .-----------------------.  
 |    /                       /   
 |   /                       /    
 |  /                       /     
 | /                       /      
 |/                       /       
 *-----------------------*        

Positions:
   0 Li     1.617037    1.617037   10.000000    ( 0.0000,  0.0000,  0.0000)
   1 Li     4.851111    1.617037   10.000000    ( 0.0000,  0.0000,  0.0000)
   2 Li     8.085185    1.617037   10.000000    ( 0.0000,  0.0000,  0.0000)
   3 Li     1.617037    4.851111   10.000000    ( 0.0000,  0.0000,  0.0000)
   4 Li     4.851111    4.851111   10.000000    ( 0.0000,  0.0000,  0.0000)
   5 Li     8.085185    4.851111   10.000000    ( 0.0000,  0.0000,  0.0000)
   6 Li     1.617037    8.085185   10.000000    ( 0.0000,  0.0000,  0.0000)
   7 Li     4.851111    8.085185   10.000000    ( 0.0000,  0.0000,  0.0000)
   8 Li     8.085185    8.085185   10.000000    ( 0.0000,  0.0000,  0.0000)
   9 Li     0.000000    0.000000   11.617037    ( 0.0000,  0.0000,  0.0000)
  10 Li     3.234074    0.000000   11.617037    ( 0.0000,  0.0000,  0.0000)
  11 Li     6.468148    0.000000   11.617037    ( 0.0000,  0.0000,  0.0000)
  12 Li     0.000000    3.234074   11.617037    ( 0.0000,  0.0000,  0.0000)
  13 Li     3.234074    3.234074   11.617037    ( 0.0000,  0.0000,  0.0000)
  14 Li     6.468148    3.234074   11.617037    ( 0.0000,  0.0000,  0.0000)
  15 Li     0.000000    6.468148   11.617037    ( 0.0000,  0.0000,  0.0000)
  16 Li     3.234074    6.468148   11.617037    ( 0.0000,  0.0000,  0.0000)
  17 Li     6.468148    6.468148   11.617037    ( 0.0000,  0.0000,  0.0000)
  18 Li     1.617202    1.617036   13.469554    ( 0.0000,  0.0000,  0.0000)
  19 Li     4.851117    1.617042   13.469863    ( 0.0000,  0.0000,  0.0000)
  20 Li     8.085030    1.617032   13.469507    ( 0.0000,  0.0000,  0.0000)
  21 Li     1.616982    4.851066   13.469865    ( 0.0000,  0.0000,  0.0000)
  22 Li     4.851129    4.851110   13.469838    ( 0.0000,  0.0000,  0.0000)
  23 Li     8.085226    4.851102   13.469835    ( 0.0000,  0.0000,  0.0000)
  24 Li     1.616994    8.085230   13.469861    ( 0.0000,  0.0000,  0.0000)
  25 Li     4.851115    8.085181   13.469816    ( 0.0000,  0.0000,  0.0000)
  26 Li     8.085226    8.085212   13.469866    ( 0.0000,  0.0000,  0.0000)
  27 Li     0.000009    0.000402   15.446193    ( 0.0000,  0.0000,  0.0000)
  28 Li     3.234094   -0.000004   15.445907    ( 0.0000,  0.0000,  0.0000)
  29 Li     6.468090   -0.000048   15.445880    ( 0.0000,  0.0000,  0.0000)
  30 Li    -0.000078    3.233586   15.446309    ( 0.0000,  0.0000,  0.0000)
  31 Li     3.234133    3.234097   15.445892    ( 0.0000,  0.0000,  0.0000)
  32 Li     6.468124    3.234106   15.445893    ( 0.0000,  0.0000,  0.0000)
  33 Li    -0.000006    6.468154   15.445891    ( 0.0000,  0.0000,  0.0000)
  34 Li     3.234069    6.468132   15.445898    ( 0.0000,  0.0000,  0.0000)
  35 Li     6.468156    6.468149   15.445881    ( 0.0000,  0.0000,  0.0000)
  36 O     -0.003736    1.617948   19.685754    ( 0.0000,  0.0000,  0.0000)
  37 O     -0.232854    1.661765   22.544390    ( 0.0000,  0.0000,  0.0000)
  38 C     -0.417533    2.796337   20.383979    ( 0.0000,  0.0000,  0.0000)
  39 C      0.157127    2.801667   21.783670    ( 0.0000,  0.0000,  0.0000)
  40 H     -0.118749    3.701853   19.845282    ( 0.0000,  0.0000,  0.0000)
  41 H     -1.501742    2.740874   20.407229    ( 0.0000,  0.0000,  0.0000)
  42 H     -0.219827    3.676306   22.320764    ( 0.0000,  0.0000,  0.0000)
  43 H      1.255433    2.877626   21.733923    ( 0.0000,  0.0000,  0.0000)
  44 H      0.953159    1.690270   19.480441    ( 0.0000,  0.0000,  0.0000)
  45 H     -0.136128    0.893213   21.964714    ( 0.0000,  0.0000,  0.0000)
  46 N     -0.007405    1.622724   17.168765    ( 0.0000,  0.0000,  0.0000)
  47 N      0.009793    1.604396   18.266397    ( 0.0000,  0.0000,  0.0000)

Unit cell:
           periodic     x           y           z      points  spacing
  1. axis:    yes    9.702222    0.000000    0.000000    60     0.1617
  2. axis:    yes    0.000000    9.702222    0.000000    60     0.1617
  3. axis:    no     0.000000    0.000000   26.601111   168     0.1583

  Lengths:   9.702222   9.702222  26.601111
  Angles:   90.000000  90.000000  90.000000

Effective grid spacing dv^(1/3) = 0.1606

     iter     time        total  log10-change:
                         energy  eigst   dens
iter:   1 12:38:32  -318.081036  -0.33
iter:   2 12:38:40  -318.064951  -0.83  -1.71
iter:   3 12:38:47  -317.976175  -0.86  -1.55
iter:   4 12:38:55  -317.928112  -1.17  -1.81
Writing to output.gpw (mode='')

iter:   5 12:39:02  -317.895090  -1.12  -1.98
iter:   6 12:39:10  -317.900294c -1.49  -2.11
iter:   7 12:39:17  -317.899531c -2.16  -2.12
iter:   8 12:39:25  -317.886645c -1.65  -2.11
iter:   9 12:39:32  -317.885150c -2.13  -2.31
Writing to output.gpw (mode='')

iter:  10 12:39:43  -317.884226c -2.34  -2.38
iter:  11 12:39:52  -317.883874c -2.83  -2.51
iter:  12 12:40:00  -317.883153c -2.54  -2.58
iter:  13 12:40:07  -317.883162c -2.75  -2.72
iter:  14 12:40:15  -317.883079c -3.34  -2.83
Writing to output.gpw (mode='')

iter:  15 12:40:22  -317.882839c -3.21  -2.89
iter:  16 12:40:30  -317.883141c -3.27  -3.11
iter:  17 12:40:37  -317.882992c -3.71  -3.15
iter:  18 12:40:45  -317.882978c -3.82  -3.28
iter:  19 12:40:52  -317.882966c -3.77  -3.42
Writing to output.gpw (mode='')

iter:  20 12:41:02  -317.882984c -4.26  -3.41
iter:  21 12:41:10  -317.882982c -4.39  -3.54
iter:  22 12:41:18  -317.882991c -4.22  -3.62
iter:  23 12:41:25  -317.882981c -4.54  -3.72
iter:  24 12:41:32  -317.882984c -5.04  -3.82
Writing to output.gpw (mode='')

iter:  25 12:41:40  -317.882982c -5.02  -3.90
iter:  26 12:41:47  -317.882989c -4.66  -3.97
iter:  27 12:41:55  -317.882983c -4.84  -3.84
iter:  28 12:42:02  -317.882984c -5.54  -4.13c
iter:  29 12:42:10  -317.882987c -5.36  -4.19c
Writing to output.gpw (mode='')

iter:  30 12:42:17  -317.882988c -5.54  -4.26c
iter:  31 12:42:25  -317.882988c -5.48  -4.52c
iter:  32 12:42:32  -317.882988c -5.89  -4.47c
iter:  33 12:42:40  -317.882988c -5.83  -4.69c
iter:  34 12:42:47  -317.882988c -5.78  -4.80c
Writing to output.gpw (mode='')

iter:  35 12:42:55  -317.882988c -6.18  -4.78c
iter:  36 12:43:02  -317.882988c -6.13  -4.89c
iter:  37 12:43:10  -317.882988c -6.25  -4.91c
iter:  38 12:43:17  -317.882988c -6.28  -4.93c
iter:  39 12:43:25  -317.882988c -6.47  -4.96c
Writing to output.gpw (mode='')

iter:  40 12:43:32  -317.882988c -6.66  -5.02c
iter:  41 12:43:40  -317.882988c -6.61  -5.14c
iter:  42 12:43:47  -317.882988c -6.69  -5.13c
iter:  43 12:43:55  -317.882988c -6.93  -5.24c
iter:  44 12:44:02  -317.882988c -6.95  -5.31c
Writing to output.gpw (mode='')

iter:  45 12:44:09  -317.882988c -7.04  -5.38c
iter:  46 12:44:17  -317.882988c -7.01  -5.49c
iter:  47 12:44:25  -317.882988c -7.21  -5.58c
iter:  48 12:44:39  -317.882988c -7.09  -5.70c
iter:  49 12:44:50  -317.882988c -7.23  -5.66c
Writing to output.gpw (mode='')

iter:  50 12:44:59  -317.882988c -7.45c -5.93c

Converged after 50 iterations.

Dipole moment: (1.232531, -3.631557, 0.062429) |e|*Ang

Energy contributions relative to reference atoms: (reference = -16475.706344)

Kinetic:       +194.906721
Potential:     -178.055449
External:        +0.000000
XC:            -335.707218
Entropy (-ST):   -0.149066
Local:           +1.047491
--------------------------
Free energy:   -317.957521
Extrapolated:  -317.882988

Dipole-layer corrected work functions: 3.393419, 3.273410 eV

Showing only first 2 kpts
 Kpt  Band  Eigenvalues  Occupancy
  0    34     -3.57310    1.98357
  0    35     -3.45654    1.84294
  0    36     -3.17725    0.08431
  0    37     -3.08793    0.01464

  1    34     -3.39255    1.53085
  1    35     -3.33050    0.97086
  1    36     -3.31187    0.78784
  1    37     -3.22842    0.21821


Fermi level: -3.33341

No gap

Forces in eV/Ang:
  0 Li    0.01683   -0.00100   -0.27525
  1 Li   -0.00659    0.00048   -0.26191
  2 Li   -0.01180   -0.00150   -0.27390
  3 Li    0.00446    0.00782   -0.27259
  4 Li    0.00024    0.00162   -0.28259
  5 Li   -0.00432    0.01409   -0.27179
  6 Li    0.00307   -0.00729   -0.27208
  7 Li    0.00055   -0.00147   -0.28535
  8 Li   -0.00322   -0.01332   -0.27101
  9 Li   -0.00033    0.01164    0.30827
 10 Li    0.02057   -0.00280    0.25080
 11 Li   -0.01898   -0.00804    0.25851
 12 Li   -0.00174   -0.01452    0.31767
 13 Li    0.02026    0.00388    0.24976
 14 Li   -0.01724    0.00685    0.26083
 15 Li    0.00006    0.00422    0.23840
 16 Li   -0.02552   -0.00061    0.26820
 17 Li    0.02549    0.00175    0.26023
 18 Li    0.05738   -0.00090   -0.05969
 19 Li    0.00411    0.00062    0.05341
 20 Li   -0.05518   -0.00243   -0.08342
 21 Li   -0.02175   -0.01842    0.05280
 22 Li    0.00399    0.00428    0.03383
 23 Li    0.01784   -0.00898    0.04542
 24 Li   -0.01772    0.01991    0.05175
 25 Li    0.00101   -0.00559    0.02919
 26 Li    0.01635    0.01449    0.05170
 27 Li   -0.00178    0.10449    0.03831
 28 Li    0.02186   -0.00752   -0.02832
 29 Li   -0.03474   -0.02381   -0.03412
 30 Li   -0.02363   -0.15009    0.08402
 31 Li    0.02829    0.01090   -0.03202
 32 Li   -0.02912    0.02052   -0.03239
 33 Li   -0.00292   -0.00007   -0.02359
 34 Li   -0.00720   -0.00330   -0.01497
 35 Li    0.00991   -0.00084   -0.01814
 36 O    -0.88876    1.20864   16.03509
 37 O    -0.04056    0.19337    0.02502
 38 C    -0.94837    1.46314    2.60022
 39 C    -0.04917    0.22794    0.30572
 40 H     0.24947   -0.13987   -0.35273
 41 H    -0.13654    0.02496    0.07551
 42 H     0.02476    0.01958    0.18373
 43 H    -0.09899    0.04659   -0.05031
 44 H     0.49671   -0.35883    1.33920
 45 H     0.03214   -0.13876    0.00599
 46 N    -2.70356    2.14574   -7.10677
 47 N     4.10729   -4.68664  -13.10715

System changes: positions 

Initializing position-dependent things.

Density initialized from wave functions
       .-----------------------.  
      /|                       |  
     / |                       |  
    /  |                       |  
   /   |                       |  
  /    |                       |  
 *     |                       |  
 |     |                       |  
 |     |                       |  
 |     |                   H   |  
 | C  H|                 O     |  
 |     |                 H     |  
 |     |               H  CH   |  
 |     |                       |  
 |  H  |               Li O    |  
 |N    |                       |  
 |     |     Li      Li      Li|  
 |     |  Li      Li      Ni   |  
 |     |   Li      Li      Li  |  
 |     |Li      Li      Li     |  
 Li    | Li                    |  
 |   LLi     LLi     LLi       |  
 |     |  Li      Li      Li   |  
 | Li  |   Li      Li          |  
 |     |Li      Li      Li     |  
 Li    | Li      Li            |  
 |    Li      Li      Li       |  
 |     |                       |  
 |     |                       |  
 |     |                       |  
 |     |                       |  
 |     |                       |  
 |     |                       |  
 |     .-----------------------.  
 |    /                       /   
 |   /                       /    
 |  /                       /     
 | /                       /      
 |/                       /       
 *-----------------------*        

Positions:
   0 Li     1.617037    1.617037   10.000000    ( 0.0000,  0.0000,  0.0000)
   1 Li     4.851111    1.617037   10.000000    ( 0.0000,  0.0000,  0.0000)
   2 Li     8.085185    1.617037   10.000000    ( 0.0000,  0.0000,  0.0000)
   3 Li     1.617037    4.851111   10.000000    ( 0.0000,  0.0000,  0.0000)
   4 Li     4.851111    4.851111   10.000000    ( 0.0000,  0.0000,  0.0000)
   5 Li     8.085185    4.851111   10.000000    ( 0.0000,  0.0000,  0.0000)
   6 Li     1.617037    8.085185   10.000000    ( 0.0000,  0.0000,  0.0000)
   7 Li     4.851111    8.085185   10.000000    ( 0.0000,  0.0000,  0.0000)
   8 Li     8.085185    8.085185   10.000000    ( 0.0000,  0.0000,  0.0000)
   9 Li     0.000000    0.000000   11.617037    ( 0.0000,  0.0000,  0.0000)
  10 Li     3.234074    0.000000   11.617037    ( 0.0000,  0.0000,  0.0000)
  11 Li     6.468148    0.000000   11.617037    ( 0.0000,  0.0000,  0.0000)
  12 Li     0.000000    3.234074   11.617037    ( 0.0000,  0.0000,  0.0000)
  13 Li     3.234074    3.234074   11.617037    ( 0.0000,  0.0000,  0.0000)
  14 Li     6.468148    3.234074   11.617037    ( 0.0000,  0.0000,  0.0000)
  15 Li     0.000000    6.468148   11.617037    ( 0.0000,  0.0000,  0.0000)
  16 Li     3.234074    6.468148   11.617037    ( 0.0000,  0.0000,  0.0000)
  17 Li     6.468148    6.468148   11.617037    ( 0.0000,  0.0000,  0.0000)
  18 Li     1.617372    1.617035   13.469367    ( 0.0000,  0.0000,  0.0000)
  19 Li     4.851114    1.617048   13.469974    ( 0.0000,  0.0000,  0.0000)
  20 Li     8.084877    1.617028   13.469306    ( 0.0000,  0.0000,  0.0000)
  21 Li     1.616931    4.851033   13.469982    ( 0.0000,  0.0000,  0.0000)
  22 Li     4.851159    4.851088   13.469968    ( 0.0000,  0.0000,  0.0000)
  23 Li     8.085258    4.851118   13.469908    ( 0.0000,  0.0000,  0.0000)
  24 Li     1.616958    8.085261   13.469977    ( 0.0000,  0.0000,  0.0000)
  25 Li     4.851122    8.085200   13.469913    ( 0.0000,  0.0000,  0.0000)
  26 Li     8.085263    8.085220   13.469993    ( 0.0000,  0.0000,  0.0000)
  27 Li     0.000039    0.000983   15.446681    ( 0.0000,  0.0000,  0.0000)
  28 Li     3.234050    0.000020   15.445950    ( 0.0000,  0.0000,  0.0000)
  29 Li     6.468093   -0.000069   15.445878    ( 0.0000,  0.0000,  0.0000)
  30 Li    -0.000176    3.232987   15.446898    ( 0.0000,  0.0000,  0.0000)
  31 Li     3.234155    3.234102   15.445913    ( 0.0000,  0.0000,  0.0000)
  32 Li     6.468197    3.234092   15.445919    ( 0.0000,  0.0000,  0.0000)
  33 Li    -0.000008    6.468168   15.445870    ( 0.0000,  0.0000,  0.0000)
  34 Li     3.234081    6.468112   15.445859    ( 0.0000,  0.0000,  0.0000)
  35 Li     6.468138    6.468161   15.445813    ( 0.0000,  0.0000,  0.0000)
  36 O     -0.009489    1.614942   19.717871    ( 0.0000,  0.0000,  0.0000)
  37 O     -0.233100    1.662812   22.544937    ( 0.0000,  0.0000,  0.0000)
  38 C     -0.426709    2.810839   20.397038    ( 0.0000,  0.0000,  0.0000)
  39 C      0.158263    2.799949   21.782268    ( 0.0000,  0.0000,  0.0000)
  40 H     -0.117792    3.700431   19.844014    ( 0.0000,  0.0000,  0.0000)
  41 H     -1.500613    2.740564   20.406841    ( 0.0000,  0.0000,  0.0000)
  42 H     -0.220249    3.676484   22.320881    ( 0.0000,  0.0000,  0.0000)
  43 H      1.254831    2.877902   21.734063    ( 0.0000,  0.0000,  0.0000)
  44 H      0.966112    1.688534   19.484684    ( 0.0000,  0.0000,  0.0000)
  45 H     -0.135953    0.892020   21.964799    ( 0.0000,  0.0000,  0.0000)
  46 N     -0.014619    1.628051   17.129783    ( 0.0000,  0.0000,  0.0000)
  47 N      0.016966    1.592496   18.256717    ( 0.0000,  0.0000,  0.0000)

Unit cell:
           periodic     x           y           z      points  spacing
  1. axis:    yes    9.702222    0.000000    0.000000    60     0.1617
  2. axis:    yes    0.000000    9.702222    0.000000    60     0.1617
  3. axis:    no     0.000000    0.000000   26.601111   168     0.1583

  Lengths:   9.702222   9.702222  26.601111
  Angles:   90.000000  90.000000  90.000000

Effective grid spacing dv^(1/3) = 0.1606

     iter     time        total  log10-change:
                         energy  eigst   dens
iter:   1 12:45:08  -320.191366  -0.35
iter:   2 12:45:15  -320.627304  -0.03  -1.13
iter:   3 12:45:23  -318.906371  -0.41  -0.99
iter:   4 12:45:30  -318.893719  -0.98  -1.78
Writing to output.gpw (mode='')

iter:   5 12:45:37  -318.895081c -0.99  -1.99
iter:   6 12:45:45  -318.887029c -0.97  -2.01
iter:   7 12:45:52  -318.889682c -1.74  -2.27
iter:   8 12:46:00  -318.893738c -1.87  -2.32
iter:   9 12:46:07  -318.892251c -1.65  -2.23
Writing to output.gpw (mode='')

iter:  10 12:46:14  -318.890501c -2.21  -2.52
iter:  11 12:46:22  -318.890508c -2.25  -2.60
iter:  12 12:46:29  -318.891200c -2.34  -2.76
iter:  13 12:46:37  -318.891588c -2.68  -2.83
iter:  14 12:46:44  -318.891757c -2.90  -2.99
Writing to output.gpw (mode='')

iter:  15 12:46:51  -318.891888c -3.13  -3.00
iter:  16 12:46:59  -318.892015c -3.13  -3.06
iter:  17 12:47:06  -318.892013c -3.49  -3.20
iter:  18 12:47:14  -318.892072c -3.72  -3.25
iter:  19 12:47:21  -318.892103c -3.97  -3.30
Writing to output.gpw (mode='')

iter:  20 12:47:29  -318.892195c -3.57  -3.27
iter:  21 12:47:36  -318.892187c -4.18  -3.12
iter:  22 12:47:43  -318.892260c -3.75  -3.11
iter:  23 12:47:51  -318.892302c -4.02  -3.06
iter:  24 12:47:58  -318.892210c -4.20  -3.01
Writing to output.gpw (mode='')

iter:  25 12:48:06  -318.892232c -4.72  -3.20
iter:  26 12:48:13  -318.892207c -4.01  -3.18
iter:  27 12:48:20  -318.892204c -4.27  -3.26
iter:  28 12:48:28  -318.892170c -4.26  -3.31
iter:  29 12:48:35  -318.892184c -4.71  -3.52
Writing to output.gpw (mode='')

iter:  30 12:48:43  -318.892194c -4.68  -3.54
iter:  31 12:48:50  -318.892194c -5.01  -3.77
iter:  32 12:48:58  -318.892193c -4.64  -3.83
iter:  33 12:49:05  -318.892190c -5.21  -3.87
iter:  34 12:49:12  -318.892191c -5.24  -4.04c
Writing to output.gpw (mode='')

iter:  35 12:49:20  -318.892193c -5.85  -4.29c
iter:  36 12:49:27  -318.892194c -5.66  -4.32c
iter:  37 12:49:35  -318.892196c -5.90  -4.29c
iter:  38 12:49:47  -318.892195c -5.85  -4.34c
iter:  39 12:49:54  -318.892195c -6.22  -4.43c
Writing to output.gpw (mode='')

iter:  40 12:50:02  -318.892196c -6.05  -4.43c
iter:  41 12:50:09  -318.892194c -5.77  -4.46c
iter:  42 12:50:17  -318.892194c -6.35  -4.52c
iter:  43 12:50:24  -318.892194c -6.56  -4.72c
iter:  44 12:50:32  -318.892195c -6.42  -4.76c
Writing to output.gpw (mode='')

iter:  45 12:50:39  -318.892195c -6.57  -4.91c
iter:  46 12:50:46  -318.892195c -6.67  -5.02c
iter:  47 12:50:54  -318.892195c -6.72  -5.25c
iter:  48 12:51:01  -318.892195c -7.06  -5.22c
iter:  49 12:51:09  -318.892195c -7.09  -5.25c
Writing to output.gpw (mode='')

iter:  50 12:51:16  -318.892195c -7.02  -5.24c
iter:  51 12:51:24  -318.892195c -7.11  -5.18c
iter:  52 12:51:31  -318.892195c -7.07  -5.19c
iter:  53 12:51:39  -318.892195c -7.23  -5.21c
iter:  54 12:51:46  -318.892195c -7.40c -5.25c

Converged after 54 iterations.

Dipole moment: (1.553596, -3.517974, 0.047721) |e|*Ang

Energy contributions relative to reference atoms: (reference = -16475.706344)

Kinetic:       +189.207898
Potential:     -174.082025
External:        +0.000000
XC:            -334.997006
Entropy (-ST):   -0.147778
Local:           +1.052827
--------------------------
Free energy:   -318.966084
Extrapolated:  -318.892195

Dipole-layer corrected work functions: 3.391445, 3.299709 eV

Showing only first 2 kpts
 Kpt  Band  Eigenvalues  Occupancy
  0    34     -3.58814    1.98448
  0    35     -3.46937    1.84487
  0    36     -3.18954    0.08451
  0    37     -3.09901    0.01433

  1    34     -3.40279    1.51689
  1    35     -3.34141    0.95839
  1    36     -3.32588    0.80557
  1    37     -3.23584    0.20044


Fermi level: -3.34558

No gap
Writing to output.gpw (mode='')


Forces in eV/Ang:
  0 Li    0.01620   -0.00083   -0.27508
  1 Li   -0.00682    0.00040   -0.26129
  2 Li   -0.01122   -0.00167   -0.27404
  3 Li    0.00382    0.00746   -0.27234
  4 Li    0.00062    0.00184   -0.28173
  5 Li   -0.00354    0.01421   -0.27186
  6 Li    0.00279   -0.00704   -0.27190
  7 Li    0.00096   -0.00089   -0.28441
  8 Li   -0.00273   -0.01339   -0.27127
  9 Li   -0.00013    0.01235    0.30834
 10 Li    0.02105   -0.00247    0.25141
 11 Li   -0.01904   -0.00788    0.25792
 12 Li   -0.00189   -0.01479    0.31731
 13 Li    0.02018    0.00387    0.25043
 14 Li   -0.01629    0.00636    0.26158
 15 Li    0.00015    0.00468    0.23691
 16 Li   -0.02582   -0.00134    0.26805
 17 Li    0.02486    0.00207    0.26082
 18 Li    0.05849   -0.00053   -0.06301
 19 Li    0.00512    0.00030    0.05676
 20 Li   -0.05608   -0.00341   -0.09063
 21 Li   -0.02292   -0.01915    0.05419
 22 Li    0.00358    0.00479    0.03316
 23 Li    0.01855   -0.00951    0.04617
 24 Li   -0.01790    0.02054    0.05108
 25 Li    0.00031   -0.00653    0.02978
 26 Li    0.01639    0.01586    0.05129
 27 Li   -0.00173    0.11743    0.06070
 28 Li    0.02677   -0.00911   -0.03338
 29 Li   -0.04033   -0.02717   -0.03659
 30 Li   -0.02860   -0.18237    0.11346
 31 Li    0.03072    0.01203   -0.03654
 32 Li   -0.03842    0.02470   -0.03596
 33 Li   -0.00339   -0.00160   -0.02797
 34 Li   -0.00712   -0.00314   -0.01635
 35 Li    0.01097   -0.00191   -0.01828
 36 O    -0.22677    1.64384   14.98671
 37 O    -0.01850    0.06529   -0.06800
 38 C    -0.28668    0.60761    1.97350
 39 C    -0.21812    0.55043    0.64542
 40 H     0.21508   -0.00530   -0.32320
 41 H    -0.47812    0.10706    0.16177
 42 H     0.10919   -0.03946    0.20751
 43 H    -0.04972    0.03024   -0.09160
 44 H    -0.66916   -0.36034    1.40731
 45 H     0.01265   -0.03551    0.05830
 46 N    -2.51570    2.14028   -3.23021
 47 N     4.08543   -4.68076  -15.77432

System changes: positions 

Initializing position-dependent things.

Density initialized from wave functions
       .-----------------------.  
      /|                       |  
     / |                       |  
    /  |                       |  
   /   |                       |  
  /    |                       |  
 *     |                       |  
 |     |                       |  
 |     |                       |  
 |     |                   H   |  
 | C  H|                 O     |  
 |     |                 H     |  
 |     |               H  CH   |  
 |     |                       |  
 |  H  |               Li O    |  
 |N    |                       |  
 |     |     Li      Li      Li|  
 |     |  Li      Li      Ni   |  
 |     |   Li      Li      Li  |  
 |     |Li      Li      Li     |  
 Li    | Li                    |  
 |   LLi     LLi     LLi       |  
 |     |  Li      Li      Li   |  
 | Li  |   Li      Li          |  
 |     |Li      Li      Li     |  
 Li    | Li      Li            |  
 |    Li      Li      Li       |  
 |     |                       |  
 |     |                       |  
 |     |                       |  
 |     |                       |  
 |     |                       |  
 |     |                       |  
 |     .-----------------------.  
 |    /                       /   
 |   /                       /    
 |  /                       /     
 | /                       /      
 |/                       /       
 *-----------------------*        

Positions:
   0 Li     1.617037    1.617037   10.000000    ( 0.0000,  0.0000,  0.0000)
   1 Li     4.851111    1.617037   10.000000    ( 0.0000,  0.0000,  0.0000)
   2 Li     8.085185    1.617037   10.000000    ( 0.0000,  0.0000,  0.0000)
   3 Li     1.617037    4.851111   10.000000    ( 0.0000,  0.0000,  0.0000)
   4 Li     4.851111    4.851111   10.000000    ( 0.0000,  0.0000,  0.0000)
   5 Li     8.085185    4.851111   10.000000    ( 0.0000,  0.0000,  0.0000)
   6 Li     1.617037    8.085185   10.000000    ( 0.0000,  0.0000,  0.0000)
   7 Li     4.851111    8.085185   10.000000    ( 0.0000,  0.0000,  0.0000)
   8 Li     8.085185    8.085185   10.000000    ( 0.0000,  0.0000,  0.0000)
   9 Li     0.000000    0.000000   11.617037    ( 0.0000,  0.0000,  0.0000)
  10 Li     3.234074    0.000000   11.617037    ( 0.0000,  0.0000,  0.0000)
  11 Li     6.468148    0.000000   11.617037    ( 0.0000,  0.0000,  0.0000)
  12 Li     0.000000    3.234074   11.617037    ( 0.0000,  0.0000,  0.0000)
  13 Li     3.234074    3.234074   11.617037    ( 0.0000,  0.0000,  0.0000)
  14 Li     6.468148    3.234074   11.617037    ( 0.0000,  0.0000,  0.0000)
  15 Li     0.000000    6.468148   11.617037    ( 0.0000,  0.0000,  0.0000)
  16 Li     3.234074    6.468148   11.617037    ( 0.0000,  0.0000,  0.0000)
  17 Li     6.468148    6.468148   11.617037    ( 0.0000,  0.0000,  0.0000)
  18 Li     1.617700    1.617041   13.468964    ( 0.0000,  0.0000,  0.0000)
  19 Li     4.851112    1.617058   13.470184    ( 0.0000,  0.0000,  0.0000)
  20 Li     8.084594    1.617006   13.468863    ( 0.0000,  0.0000,  0.0000)
  21 Li     1.616833    4.850979   13.470180    ( 0.0000,  0.0000,  0.0000)
  22 Li     4.851225    4.851024   13.470222    ( 0.0000,  0.0000,  0.0000)
  23 Li     8.085308    4.851181   13.469993    ( 0.0000,  0.0000,  0.0000)
  24 Li     1.616905    8.085301   13.470142    ( 0.0000,  0.0000,  0.0000)
  25 Li     4.851126    8.085254   13.470106    ( 0.0000,  0.0000,  0.0000)
  26 Li     8.085320    8.085226   13.470194    ( 0.0000,  0.0000,  0.0000)
  27 Li     0.000129    0.002511   15.448299    ( 0.0000,  0.0000,  0.0000)
  28 Li     3.233948    0.000081   15.446065    ( 0.0000,  0.0000,  0.0000)
  29 Li     6.468107   -0.000113   15.445929    ( 0.0000,  0.0000,  0.0000)
  30 Li    -0.000462    3.231214   15.448784    ( 0.0000,  0.0000,  0.0000)
  31 Li     3.234175    3.234105   15.445989    ( 0.0000,  0.0000,  0.0000)
  32 Li     6.468328    3.234064   15.446023    ( 0.0000,  0.0000,  0.0000)
  33 Li    -0.000014    6.468184   15.445807    ( 0.0000,  0.0000,  0.0000)
  34 Li     3.234137    6.468069   15.445771    ( 0.0000,  0.0000,  0.0000)
  35 Li     6.468077    6.468179   15.445675    ( 0.0000,  0.0000,  0.0000)
  36 O     -0.011916    1.610401   19.743976    ( 0.0000,  0.0000,  0.0000)
  37 O     -0.233303    1.663038   22.544834    ( 0.0000,  0.0000,  0.0000)
  38 C     -0.438469    2.832693   20.415461    ( 0.0000,  0.0000,  0.0000)
  39 C      0.158745    2.799896   21.783160    ( 0.0000,  0.0000,  0.0000)
  40 H     -0.116418    3.699123   19.841989    ( 0.0000,  0.0000,  0.0000)
  41 H     -1.502770    2.741000   20.406985    ( 0.0000,  0.0000,  0.0000)
  42 H     -0.220087    3.675940   22.321080    ( 0.0000,  0.0000,  0.0000)
  43 H      1.254262    2.878262   21.733907    ( 0.0000,  0.0000,  0.0000)
  44 H      0.981253    1.684713   19.493784    ( 0.0000,  0.0000,  0.0000)
  45 H     -0.135884    0.890822   21.965887    ( 0.0000,  0.0000,  0.0000)
  46 N     -0.023827    1.636643   17.106290    ( 0.0000,  0.0000,  0.0000)
  47 N      0.024832    1.572893   18.222749    ( 0.0000,  0.0000,  0.0000)

Unit cell:
           periodic     x           y           z      points  spacing
  1. axis:    yes    9.702222    0.000000    0.000000    60     0.1617
  2. axis:    yes    0.000000    9.702222    0.000000    60     0.1617
  3. axis:    no     0.000000    0.000000   26.601111   168     0.1583

  Lengths:   9.702222   9.702222  26.601111
  Angles:   90.000000  90.000000  90.000000

Effective grid spacing dv^(1/3) = 0.1606

     iter     time        total  log10-change:
                         energy  eigst   dens
iter:   1 12:51:55  -320.158710  -0.72
iter:   2 12:52:03  -320.103737  -0.97  -1.65
iter:   3 12:52:10  -320.076353  -1.46  -1.77
iter:   4 12:52:18  -320.046811  -1.16  -2.07
Writing to output.gpw (mode='')

iter:   5 12:52:25  -320.050696c -1.93  -2.20
iter:   6 12:52:33  -320.051195c -2.07  -2.29
iter:   7 12:52:40  -320.042063c -1.92  -2.25
iter:   8 12:52:48  -320.042198c -2.19  -2.60
iter:   9 12:52:55  -320.042926c -2.56  -2.42
Writing to output.gpw (mode='')

iter:  10 12:53:03  -320.040807c -2.67  -2.50
iter:  11 12:53:10  -320.040906c -2.57  -2.85
iter:  12 12:53:17  -320.040779c -3.24  -2.79
iter:  13 12:53:25  -320.040725c -3.27  -2.89
iter:  14 12:53:32  -320.040642c -3.91  -3.16
Writing to output.gpw (mode='')

iter:  15 12:53:40  -320.040635c -4.01  -3.21
iter:  16 12:53:47  -320.040641c -4.05  -3.36
iter:  17 12:53:55  -320.040669c -4.43  -3.45
iter:  18 12:54:02  -320.040658c -4.54  -3.50
iter:  19 12:54:10  -320.040668c -4.55  -3.68
Writing to output.gpw (mode='')

iter:  20 12:54:17  -320.040681c -4.71  -3.77
iter:  21 12:54:25  -320.040677c -5.01  -3.91
iter:  22 12:54:32  -320.040679c -5.10  -4.04c
iter:  23 12:54:44  -320.040676c -5.23  -4.09c
iter:  24 12:54:53  -320.040678c -5.47  -4.23c
Writing to output.gpw (mode='')

iter:  25 12:55:01  -320.040679c -5.75  -4.28c
iter:  26 12:55:08  -320.040680c -5.79  -4.36c
iter:  27 12:55:16  -320.040680c -5.91  -4.38c
iter:  28 12:55:23  -320.040680c -6.04  -4.69c
iter:  29 12:55:31  -320.040681c -6.09  -4.71c
Writing to output.gpw (mode='')

iter:  30 12:55:38  -320.040681c -6.16  -4.72c
iter:  31 12:55:46  -320.040683c -6.17  -4.80c
iter:  32 12:55:53  -320.040683c -6.25  -4.95c
iter:  33 12:56:01  -320.040683c -6.43  -5.13c
iter:  34 12:56:08  -320.040683c -6.47  -5.16c
Writing to output.gpw (mode='')

iter:  35 12:56:16  -320.040683c -6.53  -5.19c
iter:  36 12:56:23  -320.040683c -6.68  -5.14c
iter:  37 12:56:31  -320.040683c -6.68  -5.11c
iter:  38 12:56:38  -320.040683c -6.94  -5.07c
iter:  39 12:56:46  -320.040683c -6.98  -5.01c
Writing to output.gpw (mode='')

iter:  40 12:56:53  -320.040683c -6.70  -4.98c
iter:  41 12:57:03  -320.040683c -7.22  -4.95c
iter:  42 12:57:11  -320.040683c -7.15  -4.98c
iter:  43 12:57:18  -320.040683c -7.19  -4.97c
iter:  44 12:57:26  -320.040683c -7.45c -4.95c

Converged after 44 iterations.

Dipole moment: (1.676760, -3.507665, 0.043819) |e|*Ang

Energy contributions relative to reference atoms: (reference = -16475.706344)

Kinetic:       +187.999424
Potential:     -173.930784
External:        +0.000000
XC:            -335.092813
Entropy (-ST):   -0.144247
Local:           +1.055614
--------------------------
Free energy:   -320.112807
Extrapolated:  -320.040683

Dipole-layer corrected work functions: 3.387674, 3.303439 eV

Showing only first 2 kpts
 Kpt  Band  Eigenvalues  Occupancy
  0    34     -3.59041    1.98517
  0    35     -3.47442    1.85876
  0    36     -3.18810    0.08225
  0    37     -3.09179    0.01242

  1    34     -3.40069    1.50153
  1    35     -3.34148    0.95931
  1    36     -3.32553    0.80241
  1    37     -3.23448    0.19565


Fermi level: -3.34556

No gap
Writing to output.gpw (mode='')


Forces in eV/Ang:
  0 Li    0.01546   -0.00060   -0.27363
  1 Li   -0.00533    0.00018   -0.26119
  2 Li   -0.01170   -0.00159   -0.27309
  3 Li    0.00281    0.00767   -0.27159
  4 Li    0.00097    0.00176   -0.28080
  5 Li   -0.00260    0.01329   -0.27152
  6 Li    0.00239   -0.00737   -0.27121
  7 Li    0.00122   -0.00018   -0.28309
  8 Li   -0.00229   -0.01262   -0.27106
  9 Li    0.00012    0.01383    0.30782
 10 Li    0.02224   -0.00323    0.25169
 11 Li   -0.02035   -0.00791    0.25509
 12 Li   -0.00169   -0.01556    0.31540
 13 Li    0.02093    0.00471    0.25134
 14 Li   -0.01704    0.00620    0.25969
 15 Li    0.00009    0.00458    0.23563
 16 Li   -0.02748   -0.00173    0.26847
 17 Li    0.02592    0.00224    0.26320
 18 Li    0.05868   -0.00025   -0.06374
 19 Li    0.00516   -0.00009    0.05874
 20 Li   -0.05784   -0.00419   -0.09151
 21 Li   -0.02380   -0.02122    0.05790
 22 Li    0.00247    0.00784    0.03021
 23 Li    0.01975   -0.01373    0.05122
 24 Li   -0.01854    0.02231    0.05328
 25 Li   -0.00057   -0.00964    0.02888
 26 Li    0.01731    0.02013    0.05416
 27 Li    0.00004    0.09243    0.03094
 28 Li    0.03524   -0.01279   -0.04286
 29 Li   -0.04761   -0.02932   -0.04342
 30 Li   -0.02857   -0.17646    0.09283
 31 Li    0.03574    0.01527   -0.04438
 32 Li   -0.04959    0.02842   -0.04380
 33 Li   -0.00297   -0.00371   -0.02879
 34 Li   -0.00911   -0.00296   -0.01570
 35 Li    0.01305   -0.00311   -0.01649
 36 O     0.49670    2.18837   13.61526
 37 O    -0.01540    0.02435   -0.09796
 38 C     0.50237   -0.51954    1.11469
 39 C    -0.32527    0.79125    0.94568
 40 H     0.15467    0.17578   -0.25807
 41 H    -0.76803    0.17399    0.23658
 42 H     0.16602   -0.02362    0.32290
 43 H    -0.02781    0.02401   -0.12405
 44 H    -1.67408   -0.28994    1.55247
 45 H     0.00853    0.02851    0.04475
 46 N    -2.17872    2.29689   -3.10563
 47 N     3.64773   -4.80822  -14.30438

System changes: positions 

Initializing position-dependent things.

Density initialized from wave functions
       .-----------------------.  
      /|                       |  
     / |                       |  
    /  |                       |  
   /   |                       |  
  /    |                       |  
 *     |                       |  
 |     |                       |  
 |     |                       |  
 |     |                   H   |  
 | C  H|                 O     |  
 |     |                 H     |  
 |     |               H  CH   |  
 |     |                  O    |  
 |  H  |               Li      |  
 |N    |                       |  
 |     |     Li      Li      Li|  
 |     |  Li      Li      Ni   |  
 |     |   Li      Li      Li  |  
 |     |Li      Li      Li     |  
 Li    | Li                    |  
 |   LLi     LLi     LLi       |  
 |     |  Li      Li      Li   |  
 | Li  |   Li      Li          |  
 |     |Li      Li      Li     |  
 Li    | Li      Li            |  
 |    Li      Li      Li       |  
 |     |                       |  
 |     |                       |  
 |     |                       |  
 |     |                       |  
 |     |                       |  
 |     |                       |  
 |     .-----------------------.  
 |    /                       /   
 |   /                       /    
 |  /                       /     
 | /                       /      
 |/                       /       
 *-----------------------*        

Positions:
   0 Li     1.617037    1.617037   10.000000    ( 0.0000,  0.0000,  0.0000)
   1 Li     4.851111    1.617037   10.000000    ( 0.0000,  0.0000,  0.0000)
   2 Li     8.085185    1.617037   10.000000    ( 0.0000,  0.0000,  0.0000)
   3 Li     1.617037    4.851111   10.000000    ( 0.0000,  0.0000,  0.0000)
   4 Li     4.851111    4.851111   10.000000    ( 0.0000,  0.0000,  0.0000)
   5 Li     8.085185    4.851111   10.000000    ( 0.0000,  0.0000,  0.0000)
   6 Li     1.617037    8.085185   10.000000    ( 0.0000,  0.0000,  0.0000)
   7 Li     4.851111    8.085185   10.000000    ( 0.0000,  0.0000,  0.0000)
   8 Li     8.085185    8.085185   10.000000    ( 0.0000,  0.0000,  0.0000)
   9 Li     0.000000    0.000000   11.617037    ( 0.0000,  0.0000,  0.0000)
  10 Li     3.234074    0.000000   11.617037    ( 0.0000,  0.0000,  0.0000)
  11 Li     6.468148    0.000000   11.617037    ( 0.0000,  0.0000,  0.0000)
  12 Li     0.000000    3.234074   11.617037    ( 0.0000,  0.0000,  0.0000)
  13 Li     3.234074    3.234074   11.617037    ( 0.0000,  0.0000,  0.0000)
  14 Li     6.468148    3.234074   11.617037    ( 0.0000,  0.0000,  0.0000)
  15 Li     0.000000    6.468148   11.617037    ( 0.0000,  0.0000,  0.0000)
  16 Li     3.234074    6.468148   11.617037    ( 0.0000,  0.0000,  0.0000)
  17 Li     6.468148    6.468148   11.617037    ( 0.0000,  0.0000,  0.0000)
  18 Li     1.618124    1.617050   13.468441    ( 0.0000,  0.0000,  0.0000)
  19 Li     4.851110    1.617066   13.470481    ( 0.0000,  0.0000,  0.0000)
  20 Li     8.084208    1.616970   13.468283    ( 0.0000,  0.0000,  0.0000)
  21 Li     1.616697    4.850884   13.470483    ( 0.0000,  0.0000,  0.0000)
  22 Li     4.851294    4.850981   13.470512    ( 0.0000,  0.0000,  0.0000)
  23 Li     8.085389    4.851208   13.470168    ( 0.0000,  0.0000,  0.0000)
  24 Li     1.616828    8.085377   13.470386    ( 0.0000,  0.0000,  0.0000)
  25 Li     4.851121    8.085283   13.470344    ( 0.0000,  0.0000,  0.0000)
  26 Li     8.085406    8.085285   13.470490    ( 0.0000,  0.0000,  0.0000)
  27 Li     0.000259    0.004144   15.449965    ( 0.0000,  0.0000,  0.0000)
  28 Li     3.233923    0.000113   15.446094    ( 0.0000,  0.0000,  0.0000)
  29 Li     6.468034   -0.000197   15.445905    ( 0.0000,  0.0000,  0.0000)
  30 Li    -0.000821    3.229057   15.450894    ( 0.0000,  0.0000,  0.0000)
  31 Li     3.234264    3.234147   15.445986    ( 0.0000,  0.0000,  0.0000)
  32 Li     6.468356    3.234076   15.446055    ( 0.0000,  0.0000,  0.0000)
  33 Li    -0.000018    6.468179   15.445714    ( 0.0000,  0.0000,  0.0000)
  34 Li     3.234180    6.468017   15.445666    ( 0.0000,  0.0000,  0.0000)
  35 Li     6.468029    6.468188   15.445518    ( 0.0000,  0.0000,  0.0000)
  36 O     -0.007248    1.611189   19.766149    ( 0.0000,  0.0000,  0.0000)
  37 O     -0.233536    1.662953   22.544405    ( 0.0000,  0.0000,  0.0000)
  38 C     -0.444582    2.847662   20.429517    ( 0.0000,  0.0000,  0.0000)
  39 C      0.158166    2.802519   21.787634    ( 0.0000,  0.0000,  0.0000)
  40 H     -0.115314    3.699463   19.840104    ( 0.0000,  0.0000,  0.0000)
  41 H     -1.508634    2.742273   20.408002    ( 0.0000,  0.0000,  0.0000)
  42 H     -0.219263    3.675469   22.322672    ( 0.0000,  0.0000,  0.0000)
  43 H      1.253761    2.878655   21.733345    ( 0.0000,  0.0000,  0.0000)
  44 H      0.989101    1.680682   19.507034    ( 0.0000,  0.0000,  0.0000)
  45 H     -0.135829    0.889992   21.967063    ( 0.0000,  0.0000,  0.0000)
  46 N     -0.032302    1.649674   17.075414    ( 0.0000,  0.0000,  0.0000)
  47 N      0.030928    1.545813   18.193947    ( 0.0000,  0.0000,  0.0000)

Unit cell:
           periodic     x           y           z      points  spacing
  1. axis:    yes    9.702222    0.000000    0.000000    60     0.1617
  2. axis:    yes    0.000000    9.702222    0.000000    60     0.1617
  3. axis:    no     0.000000    0.000000   26.601111   168     0.1583

  Lengths:   9.702222   9.702222  26.601111
  Angles:   90.000000  90.000000  90.000000

Effective grid spacing dv^(1/3) = 0.1606

     iter     time        total  log10-change:
                         energy  eigst   dens
iter:   1 12:57:35  -321.041634  -0.84
iter:   2 12:57:42  -321.033042  -1.33  -1.88
iter:   3 12:57:50  -321.027267c -1.86  -2.02
iter:   4 12:57:57  -321.021207c -1.62  -2.31
Writing to output.gpw (mode='')

iter:   5 12:58:05  -321.021942c -1.87  -2.46
iter:   6 12:58:12  -321.021511c -2.39  -2.50
iter:   7 12:58:19  -321.022203c -2.51  -2.77
iter:   8 12:58:27  -321.021977c -2.71  -2.81
iter:   9 12:58:34  -321.022031c -2.99  -2.94
Writing to output.gpw (mode='')

iter:  10 12:58:42  -321.021954c -3.35  -3.00
iter:  11 12:58:49  -321.021970c -3.48  -3.12
iter:  12 12:58:57  -321.021952c -3.85  -3.15
iter:  13 12:59:04  -321.021956c -4.14  -3.31
iter:  14 12:59:12  -321.021957c -4.18  -3.31
Writing to output.gpw (mode='')

iter:  15 12:59:19  -321.021970c -4.16  -3.41
iter:  16 12:59:27  -321.021980c -4.31  -3.57
iter:  17 12:59:34  -321.021989c -4.73  -3.73
iter:  18 12:59:47  -321.021990c -5.01  -3.82
iter:  19 12:59:54  -321.021989c -4.94  -3.97
Writing to output.gpw (mode='')

iter:  20 13:00:02  -321.021989c -5.20  -4.06c
iter:  21 13:00:09  -321.021990c -5.34  -4.13c
iter:  22 13:00:17  -321.021989c -5.59  -4.21c
iter:  23 13:00:24  -321.021987c -5.57  -4.31c
iter:  24 13:00:31  -321.021987c -5.59  -4.35c
Writing to output.gpw (mode='')

iter:  25 13:00:39  -321.021987c -6.01  -4.53c
iter:  26 13:00:46  -321.021988c -5.90  -4.61c
iter:  27 13:00:54  -321.021989c -6.11  -4.67c
iter:  28 13:01:01  -321.021989c -6.00  -4.87c
iter:  29 13:01:09  -321.021990c -6.23  -4.98c
Writing to output.gpw (mode='')

iter:  30 13:01:16  -321.021990c -6.42  -5.00c
iter:  31 13:01:24  -321.021990c -6.59  -5.08c
iter:  32 13:01:31  -321.021990c -6.68  -5.12c
iter:  33 13:01:39  -321.021990c -6.88  -5.12c
iter:  34 13:01:46  -321.021990c -6.83  -5.19c
Writing to output.gpw (mode='')

iter:  35 13:01:54  -321.021990c -7.08  -5.38c
iter:  36 13:02:01  -321.021990c -7.15  -5.42c
iter:  37 13:02:09  -321.021990c -7.32  -5.47c
iter:  38 13:02:16  -321.021990c -7.40c -5.63c

Converged after 38 iterations.

Dipole moment: (1.422940, -3.475269, 0.044566) |e|*Ang

Energy contributions relative to reference atoms: (reference = -16475.706344)

Kinetic:       +184.694259
Potential:     -171.853387
External:        +0.000000
XC:            -334.853654
Entropy (-ST):   -0.143142
Local:           +1.062363
--------------------------
Free energy:   -321.093561
Extrapolated:  -321.021990

Dipole-layer corrected work functions: 3.385399, 3.299727 eV

Showing only first 2 kpts
 Kpt  Band  Eigenvalues  Occupancy
  0    34     -3.58798    1.98534
  0    35     -3.47285    1.86247
  0    36     -3.18569    0.08318
  0    37     -3.08791    0.01220

  1    34     -3.39723    1.49799
  1    35     -3.33856    0.95996
  1    36     -3.32249    0.80195
  1    37     -3.22883    0.18650


Fermi level: -3.34256

No gap
Writing to output.gpw (mode='')


Forces in eV/Ang:
  0 Li    0.01483   -0.00050   -0.27273
  1 Li   -0.00442    0.00016   -0.26070
  2 Li   -0.01184   -0.00171   -0.27248
  3 Li    0.00254    0.00796   -0.27136
  4 Li    0.00109    0.00223   -0.28023
  5 Li   -0.00227    0.01273   -0.27152
  6 Li    0.00246   -0.00771   -0.27096
  7 Li    0.00124    0.00002   -0.28257
  8 Li   -0.00214   -0.01216   -0.27090
  9 Li    0.00043    0.01421    0.30801
 10 Li    0.02265   -0.00347    0.25210
 11 Li   -0.02100   -0.00797    0.25354
 12 Li   -0.00177   -0.01547    0.31534
 13 Li    0.02096    0.00512    0.25197
 14 Li   -0.01680    0.00574    0.25950
 15 Li    0.00005    0.00507    0.23485
 16 Li   -0.02770   -0.00225    0.26832
 17 Li    0.02581    0.00283    0.26422
 18 Li    0.05862    0.00012   -0.06476
 19 Li    0.00484   -0.00038    0.05912
 20 Li   -0.05841   -0.00530   -0.09133
 21 Li   -0.02464   -0.02205    0.05900
 22 Li    0.00210    0.00849    0.02869
 23 Li    0.02045   -0.01491    0.05214
 24 Li   -0.01871    0.02287    0.05325
 25 Li   -0.00117   -0.01064    0.02880
 26 Li    0.01769    0.02226    0.05462
 27 Li    0.00233    0.08202    0.02707
 28 Li    0.04001   -0.01454   -0.04795
 29 Li   -0.05001   -0.02893   -0.04537
 30 Li   -0.03272   -0.19329    0.10344
 31 Li    0.03737    0.01662   -0.04755
 32 Li   -0.05467    0.02880   -0.04553
 33 Li   -0.00238   -0.00545   -0.03005
 34 Li   -0.00938   -0.00281   -0.01554
 35 Li    0.01304   -0.00409   -0.01599
 36 O     0.83363    2.53950   11.75881
 37 O    -0.02924    0.02059   -0.06719
 38 C     0.84850   -1.05972    0.51735
 39 C    -0.31345    0.82523    1.02101
 40 H     0.09222    0.25059   -0.15588
 41 H    -0.72995    0.20685    0.26478
 42 H     0.16148    0.06916    0.46388
 43 H    -0.03566    0.03066   -0.11740
 44 H    -1.99721   -0.18981    1.56456
 45 H     0.01500    0.06637    0.01876
 46 N    -1.70932    2.39296   -1.90250
 47 N     2.91650   -5.09609  -13.36916

System changes: positions 

Initializing position-dependent things.

Density initialized from wave functions
       .-----------------------.  
      /|                       |  
     / |                       |  
    /  |                       |  
   /   |                       |  
  /    |                       |  
 *     |                       |  
 |     |                       |  
 |     |                       |  
 |     |                   H   |  
 | C  H|                 O     |  
 |     |                 H     |  
 |     |               H  CH   |  
 |     |                  O    |  
 |   H |               Li      |  
 |     |                       |  
 |N    |     Li      Li      Li|  
 |     |  Li      Li      Ni   |  
 |     |   Li      Li      Li  |  
 |     |Li      Li      Li     |  
 Li    | Li                    |  
 |   LLi     LLi     LLi       |  
 |     |  Li      Li      Li   |  
 | Li  |   Li      Li          |  
 |     |Li      Li      Li     |  
 Li    | Li      Li            |  
 |    Li      Li      Li       |  
 |     |                       |  
 |     |                       |  
 |     |                       |  
 |     |                       |  
 |     |                       |  
 |     |                       |  
 |     .-----------------------.  
 |    /                       /   
 |   /                       /    
 |  /                       /     
 | /                       /      
 |/                       /       
 *-----------------------*        

Positions:
   0 Li     1.617037    1.617037   10.000000    ( 0.0000,  0.0000,  0.0000)
   1 Li     4.851111    1.617037   10.000000    ( 0.0000,  0.0000,  0.0000)
   2 Li     8.085185    1.617037   10.000000    ( 0.0000,  0.0000,  0.0000)
   3 Li     1.617037    4.851111   10.000000    ( 0.0000,  0.0000,  0.0000)
   4 Li     4.851111    4.851111   10.000000    ( 0.0000,  0.0000,  0.0000)
   5 Li     8.085185    4.851111   10.000000    ( 0.0000,  0.0000,  0.0000)
   6 Li     1.617037    8.085185   10.000000    ( 0.0000,  0.0000,  0.0000)
   7 Li     4.851111    8.085185   10.000000    ( 0.0000,  0.0000,  0.0000)
   8 Li     8.085185    8.085185   10.000000    ( 0.0000,  0.0000,  0.0000)
   9 Li     0.000000    0.000000   11.617037    ( 0.0000,  0.0000,  0.0000)
  10 Li     3.234074    0.000000   11.617037    ( 0.0000,  0.0000,  0.0000)
  11 Li     6.468148    0.000000   11.617037    ( 0.0000,  0.0000,  0.0000)
  12 Li     0.000000    3.234074   11.617037    ( 0.0000,  0.0000,  0.0000)
  13 Li     3.234074    3.234074   11.617037    ( 0.0000,  0.0000,  0.0000)
  14 Li     6.468148    3.234074   11.617037    ( 0.0000,  0.0000,  0.0000)
  15 Li     0.000000    6.468148   11.617037    ( 0.0000,  0.0000,  0.0000)
  16 Li     3.234074    6.468148   11.617037    ( 0.0000,  0.0000,  0.0000)
  17 Li     6.468148    6.468148   11.617037    ( 0.0000,  0.0000,  0.0000)
  18 Li     1.618555    1.617062   13.467908    ( 0.0000,  0.0000,  0.0000)
  19 Li     4.851107    1.617072   13.470792    ( 0.0000,  0.0000,  0.0000)
  20 Li     8.083810    1.616925   13.467699    ( 0.0000,  0.0000,  0.0000)
  21 Li     1.616548    4.850778   13.470804    ( 0.0000,  0.0000,  0.0000)
  22 Li     4.851359    4.850946   13.470793    ( 0.0000,  0.0000,  0.0000)
  23 Li     8.085480    4.851220   13.470364    ( 0.0000,  0.0000,  0.0000)
  24 Li     1.616744    8.085463   13.470643    ( 0.0000,  0.0000,  0.0000)
  25 Li     4.851113    8.085300   13.470584    ( 0.0000,  0.0000,  0.0000)
  26 Li     8.085500    8.085365   13.470801    ( 0.0000,  0.0000,  0.0000)
  27 Li     0.000401    0.005644   15.451522    ( 0.0000,  0.0000,  0.0000)
  28 Li     3.233949    0.000125   15.446064    ( 0.0000,  0.0000,  0.0000)
  29 Li     6.467931   -0.000282   15.445852    ( 0.0000,  0.0000,  0.0000)
  30 Li    -0.001211    3.226788   15.453031    ( 0.0000,  0.0000,  0.0000)
  31 Li     3.234375    3.234202   15.445943    ( 0.0000,  0.0000,  0.0000)
  32 Li     6.468333    3.234097   15.446058    ( 0.0000,  0.0000,  0.0000)
  33 Li    -0.000017    6.468161   15.445604    ( 0.0000,  0.0000,  0.0000)
  34 Li     3.234216    6.467968   15.445561    ( 0.0000,  0.0000,  0.0000)
  35 Li     6.467986    6.468188   15.445364    ( 0.0000,  0.0000,  0.0000)
  36 O     -0.001380    1.615367   19.779929    ( 0.0000,  0.0000,  0.0000)
  37 O     -0.233950    1.663119   22.544467    ( 0.0000,  0.0000,  0.0000)
  38 C     -0.448789    2.858990   20.439560    ( 0.0000,  0.0000,  0.0000)
  39 C      0.158005    2.804883   21.792123    ( 0.0000,  0.0000,  0.0000)
  40 H     -0.114684    3.700136   19.839104    ( 0.0000,  0.0000,  0.0000)
  41 H     -1.513105    2.743670   20.409128    ( 0.0000,  0.0000,  0.0000)
  42 H     -0.218675    3.676064   22.325609    ( 0.0000,  0.0000,  0.0000)
  43 H      1.253077    2.879144   21.732938    ( 0.0000,  0.0000,  0.0000)
  44 H      0.995585    1.677675   19.520117    ( 0.0000,  0.0000,  0.0000)
  45 H     -0.135666    0.889364   21.967860    ( 0.0000,  0.0000,  0.0000)
  46 N     -0.037516    1.664014   17.051651    ( 0.0000,  0.0000,  0.0000)
  47 N      0.032022    1.514656   18.168887    ( 0.0000,  0.0000,  0.0000)

Unit cell:
           periodic     x           y           z      points  spacing
  1. axis:    yes    9.702222    0.000000    0.000000    60     0.1617
  2. axis:    yes    0.000000    9.702222    0.000000    60     0.1617
  3. axis:    no     0.000000    0.000000   26.601111   168     0.1583

  Lengths:   9.702222   9.702222  26.601111
  Angles:   90.000000  90.000000  90.000000

Effective grid spacing dv^(1/3) = 0.1606

     iter     time        total  log10-change:
                         energy  eigst   dens
iter:   1 13:02:25  -321.785945  -0.98
iter:   2 13:02:33  -321.772947  -1.45  -1.90
iter:   3 13:02:40  -321.766186c -2.04  -2.04
iter:   4 13:02:48  -321.763638c -1.53  -2.39
Writing to output.gpw (mode='')

iter:   5 13:02:55  -321.763092c -2.33  -2.44
iter:   6 13:03:03  -321.762578c -2.38  -2.54
iter:   7 13:03:10  -321.762979c -2.41  -2.69
iter:   8 13:03:18  -321.762421c -2.88  -2.88
iter:   9 13:03:25  -321.762394c -3.29  -2.92
Writing to output.gpw (mode='')

iter:  10 13:03:33  -321.762357c -3.57  -3.06
iter:  11 13:03:40  -321.762331c -3.63  -3.15
iter:  12 13:03:48  -321.762309c -4.08  -3.24
iter:  13 13:03:55  -321.762307c -4.43  -3.39
iter:  14 13:04:02  -321.762308c -4.32  -3.45
Writing to output.gpw (mode='')

iter:  15 13:04:10  -321.762317c -4.64  -3.68
iter:  16 13:04:18  -321.762320c -4.85  -3.74
iter:  17 13:04:25  -321.762322c -4.97  -3.80
iter:  18 13:04:32  -321.762323c -5.07  -3.90
iter:  19 13:04:46  -321.762321c -5.44  -4.05c
Writing to output.gpw (mode='')

iter:  20 13:04:54  -321.762321c -5.43  -4.17c
iter:  21 13:05:01  -321.762321c -5.45  -4.30c
iter:  22 13:05:09  -321.762322c -5.61  -4.38c
iter:  23 13:05:16  -321.762322c -5.93  -4.46c
iter:  24 13:05:24  -321.762322c -6.15  -4.53c
Writing to output.gpw (mode='')

iter:  25 13:05:31  -321.762322c -6.09  -4.70c
iter:  26 13:05:39  -321.762322c -6.23  -4.92c
iter:  27 13:05:46  -321.762322c -6.26  -4.90c
iter:  28 13:05:54  -321.762322c -6.44  -4.99c
iter:  29 13:06:01  -321.762322c -6.49  -5.16c
Writing to output.gpw (mode='')

iter:  30 13:06:09  -321.762322c -6.73  -5.14c
iter:  31 13:06:16  -321.762322c -6.68  -5.18c
iter:  32 13:06:24  -321.762322c -6.85  -5.22c
iter:  33 13:06:31  -321.762322c -6.87  -5.32c
iter:  34 13:06:39  -321.762323c -7.14  -5.34c
Writing to output.gpw (mode='')

iter:  35 13:06:46  -321.762323c -7.27  -5.38c
iter:  36 13:06:54  -321.762323c -7.19  -5.57c
iter:  37 13:07:01  -321.762323c -7.34  -5.56c
iter:  38 13:07:09  -321.762323c -7.43c -5.67c

Converged after 38 iterations.

Dipole moment: (1.218854, -3.462820, 0.051860) |e|*Ang

Energy contributions relative to reference atoms: (reference = -16475.706344)

Kinetic:       +181.885644
Potential:     -170.021755
External:        +0.000000
XC:            -334.622283
Entropy (-ST):   -0.142370
Local:           +1.067257
--------------------------
Free energy:   -321.833508
Extrapolated:  -321.762323

Dipole-layer corrected work functions: 3.384111, 3.284419 eV

Showing only first 2 kpts
 Kpt  Band  Eigenvalues  Occupancy
  0    34     -3.57986    1.98539
  0    35     -3.46583    1.86571
  0    36     -3.17773    0.08373
  0    37     -3.07914    0.01209

  1    34     -3.38838    1.49385
  1    35     -3.33053    0.96264
  1    36     -3.31350    0.79529
  1    37     -3.21855    0.17988


Fermi level: -3.33426

No gap
Writing to output.gpw (mode='')


Forces in eV/Ang:
  0 Li    0.01438   -0.00045   -0.27198
  1 Li   -0.00351    0.00020   -0.26033
  2 Li   -0.01207   -0.00174   -0.27190
  3 Li    0.00244    0.00840   -0.27129
  4 Li    0.00110    0.00267   -0.28002
  5 Li   -0.00220    0.01226   -0.27158
  6 Li    0.00260   -0.00821   -0.27089
  7 Li    0.00115    0.00003   -0.28239
  8 Li   -0.00215   -0.01186   -0.27079
  9 Li    0.00062    0.01423    0.30846
 10 Li    0.02280   -0.00376    0.25232
 11 Li   -0.02152   -0.00806    0.25250
 12 Li   -0.00176   -0.01503    0.31545
 13 Li    0.02092    0.00538    0.25248
 14 Li   -0.01684    0.00542    0.25934
 15 Li    0.00005    0.00542    0.23425
 16 Li   -0.02756   -0.00242    0.26830
 17 Li    0.02562    0.00329    0.26471
 18 Li    0.05805    0.00037   -0.06536
 19 Li    0.00424   -0.00067    0.05879
 20 Li   -0.05822   -0.00599   -0.08907
 21 Li   -0.02513   -0.02241    0.05920
 22 Li    0.00190    0.00866    0.02750
 23 Li    0.02094   -0.01543    0.05218
 24 Li   -0.01882    0.02307    0.05297
 25 Li   -0.00139   -0.01101    0.02895
 26 Li    0.01797    0.02340    0.05441
 27 Li    0.00378    0.07446    0.02816
 28 Li    0.04360   -0.01579   -0.05119
 29 Li   -0.05070   -0.02723   -0.04638
 30 Li   -0.03577   -0.20872    0.11818
 31 Li    0.03825    0.01753   -0.04890
 32 Li   -0.05638    0.02761   -0.04574
 33 Li   -0.00162   -0.00662   -0.03099
 34 Li   -0.00944   -0.00270   -0.01529
 35 Li    0.01240   -0.00473   -0.01592
 36 O     1.03213    2.73115   10.10244
 37 O    -0.03558   -0.00661   -0.05934
 38 C     1.05135   -1.35715    0.12210
 39 C    -0.32960    0.85023    1.04348
 40 H     0.04585    0.31425   -0.07620
 41 H    -0.67455    0.22294    0.27660
 42 H     0.16384    0.11842    0.54988
 43 H    -0.02788    0.03725   -0.10466
 44 H    -2.09243   -0.09367    1.51343
 45 H     0.01752    0.10937    0.01980
 46 N    -1.31176    2.50063   -1.19222
 47 N     2.26493   -5.26229  -12.25251

System changes: positions 

Initializing position-dependent things.

Density initialized from wave functions
       .-----------------------.  
      /|                       |  
     / |                       |  
    /  |                       |  
   /   |                       |  
  /    |                       |  
 *     |                       |  
 |     |                       |  
 |     |                       |  
 |     |                   H   |  
 | C  H|                 O     |  
 |     |                 H     |  
 |     |               H  CH   |  
 |O    |                       |  
 |   H |               Li      |  
 |     |                       |  
 |N    |     Li      Li      Li|  
 |     |  Li      Li      Ni   |  
 |     |   Li      Li      Li  |  
 |     |Li      Li      Li     |  
 Li    | Li                    |  
 |   LLi     LLi     LLi       |  
 |     |  Li      Li      Li   |  
 | Li  |   Li      Li          |  
 |     |Li      Li      Li     |  
 Li    | Li      Li            |  
 |    Li      Li      Li       |  
 |     |                       |  
 |     |                       |  
 |     |                       |  
 |     |                       |  
 |     |                       |  
 |     |                       |  
 |     .-----------------------.  
 |    /                       /   
 |   /                       /    
 |  /                       /     
 | /                       /      
 |/                       /       
 *-----------------------*        

Positions:
   0 Li     1.617037    1.617037   10.000000    ( 0.0000,  0.0000,  0.0000)
   1 Li     4.851111    1.617037   10.000000    ( 0.0000,  0.0000,  0.0000)
   2 Li     8.085185    1.617037   10.000000    ( 0.0000,  0.0000,  0.0000)
   3 Li     1.617037    4.851111   10.000000    ( 0.0000,  0.0000,  0.0000)
   4 Li     4.851111    4.851111   10.000000    ( 0.0000,  0.0000,  0.0000)
   5 Li     8.085185    4.851111   10.000000    ( 0.0000,  0.0000,  0.0000)
   6 Li     1.617037    8.085185   10.000000    ( 0.0000,  0.0000,  0.0000)
   7 Li     4.851111    8.085185   10.000000    ( 0.0000,  0.0000,  0.0000)
   8 Li     8.085185    8.085185   10.000000    ( 0.0000,  0.0000,  0.0000)
   9 Li     0.000000    0.000000   11.617037    ( 0.0000,  0.0000,  0.0000)
  10 Li     3.234074    0.000000   11.617037    ( 0.0000,  0.0000,  0.0000)
  11 Li     6.468148    0.000000   11.617037    ( 0.0000,  0.0000,  0.0000)
  12 Li     0.000000    3.234074   11.617037    ( 0.0000,  0.0000,  0.0000)
  13 Li     3.234074    3.234074   11.617037    ( 0.0000,  0.0000,  0.0000)
  14 Li     6.468148    3.234074   11.617037    ( 0.0000,  0.0000,  0.0000)
  15 Li     0.000000    6.468148   11.617037    ( 0.0000,  0.0000,  0.0000)
  16 Li     3.234074    6.468148   11.617037    ( 0.0000,  0.0000,  0.0000)
  17 Li     6.468148    6.468148   11.617037    ( 0.0000,  0.0000,  0.0000)
  18 Li     1.618978    1.617074   13.467379    ( 0.0000,  0.0000,  0.0000)
  19 Li     4.851102    1.617075   13.471107    ( 0.0000,  0.0000,  0.0000)
  20 Li     8.083414    1.616876   13.467134    ( 0.0000,  0.0000,  0.0000)
  21 Li     1.616394    4.850665   13.471133    ( 0.0000,  0.0000,  0.0000)
  22 Li     4.851419    4.850918   13.471060    ( 0.0000,  0.0000,  0.0000)
  23 Li     8.085581    4.851221   13.470572    ( 0.0000,  0.0000,  0.0000)
  24 Li     1.616653    8.085557   13.470911    ( 0.0000,  0.0000,  0.0000)
  25 Li     4.851105    8.085309   13.470824    ( 0.0000,  0.0000,  0.0000)
  26 Li     8.085599    8.085457   13.471116    ( 0.0000,  0.0000,  0.0000)
[...]
iter:  19 23:19:55  -328.097575c -6.99  -4.88c
Writing to output.gpw (mode='')

iter:  20 23:20:03  -328.097574c -7.46c -4.91c

Converged after 20 iterations.

Dipole moment: (-4.296451, -2.241612, -0.105598) |e|*Ang

Energy contributions relative to reference atoms: (reference = -16475.706344)

Kinetic:       +157.063058
Potential:     -150.197546
External:        +0.000000
XC:            -336.020045
Entropy (-ST):   -0.162564
Local:           +1.138241
--------------------------
Free energy:   -328.178856
Extrapolated:  -328.097574

Dipole-layer corrected work functions: 3.391362, 3.594357 eV

Showing only first 2 kpts
 Kpt  Band  Eigenvalues  Occupancy
  0    34     -3.71077    1.97472
  0    35     -3.53056    1.36011
  0    36     -3.46466    0.72524
  0    37     -3.28210    0.02911

  1    34     -3.73438    1.98416
  1    35     -3.63955    1.89899
  1    36     -3.44274    0.53695
  1    37     -3.25418    0.01676


Fermi level: -3.49286

No gap

Forces in eV/Ang:
  0 Li   -0.00565    0.01105   -0.29389
  1 Li    0.00618   -0.00980   -0.29541
  2 Li    0.00021    0.00021   -0.25541
  3 Li    0.00625    0.00840   -0.29305
  4 Li   -0.01309    0.01392   -0.28559
  5 Li    0.01008   -0.00506   -0.29522
  6 Li    0.01336   -0.01277   -0.28662
  7 Li   -0.00663   -0.00518   -0.29276
  8 Li   -0.00941    0.00731   -0.29516
  9 Li   -0.04261    0.03113    0.29153
 10 Li   -0.01682    0.01198    0.30955
 11 Li    0.03441    0.03016    0.34879
 12 Li   -0.03905   -0.03444    0.34675
 13 Li    0.01219   -0.01702    0.30660
 14 Li    0.04228   -0.04345    0.30009
 15 Li   -0.02311    0.00310    0.31227
 16 Li   -0.00174   -0.00888    0.31847
 17 Li    0.02180   -0.01586    0.31035
 18 Li   -0.00001    0.00906    0.00019
 19 Li    0.01159    0.00552   -0.00158
 20 Li    0.00213   -0.00142    0.00577
 21 Li   -0.00959   -0.00359   -0.00511
 22 Li   -0.00284    0.00744   -0.01261
 23 Li    0.00927   -0.00052   -0.00575
 24 Li    0.01137    0.00981   -0.00995
 25 Li   -0.00647   -0.00639   -0.01508
 26 Li    0.00298    0.00466   -0.01344
 27 Li   -0.00576   -0.00465    0.00761
 28 Li   -0.00121   -0.00288   -0.00496
 29 Li    0.01222    0.00686   -0.00191
 30 Li   -0.01411   -0.01461   -0.00756
 31 Li   -0.00638   -0.00512   -0.01953
 32 Li   -0.00581   -0.00381   -0.00736
 33 Li   -0.00597   -0.01290   -0.00793
 34 Li    0.00498   -0.00174   -0.00725
 35 Li    0.00306   -0.00588   -0.01846
 36 O     0.05142    0.01987   -0.03297
 37 O     0.01304   -0.01878    0.01217
 38 C     0.03195   -0.01179   -0.04005
 39 C    -0.02584   -0.01509   -0.00029
 40 H    -0.01735    0.04995   -0.00582
 41 H    -0.01496    0.01056   -0.00575
 42 H     0.00949    0.00413    0.01401
 43 H    -0.01045    0.00883   -0.02076
 44 H    -0.00563   -0.02148   -0.00583
 45 H    -0.02365    0.01029    0.00090
 46 N     0.03465    0.03274   -0.02086
 47 N    -0.03586   -0.02998    0.01654

System changes: positions 

Initializing position-dependent things.

Density initialized from wave functions
       .-----------------------.  
      /|                       |  
     / |                       |  
    /  |                       |  
   /   |                       |  
  /    |                       |  
 *     |                       |  
 |     |                       |  
 |     |                       |  
 |     |                  H    |  
 | C  H|                 O     |  
 |H    |                       |  
 |  H  |                H  C   |  
 |  O  H                       |  
 |     |       Li      Li      |  
 |     |                       |  
 |   Li|     Li      Li        |  
 |     |  Li      Li      Li   |  
 | Li  |   Li      Li  N       |  
 |     |Li      Li   N  LLi    |  
 |     |                       |  
 |   LLi     LLi     LLi       |  
 |     |  Li      Li      Li   |  
 | Li  |   Li      Li          |  
 |     |Li      Li      Li     |  
 Li    | Li      Li            |  
 |    Li      Li      Li       |  
 |     |                       |  
 |     |                       |  
 |     |                       |  
 |     |                       |  
 |     |                       |  
 |     |                       |  
 |     .-----------------------.  
 |    /                       /   
 |   /                       /    
 |  /                       /     
 | /                       /      
 |/                       /       
 *-----------------------*        

Positions:
   0 Li     1.617037    1.617037   10.000000    ( 0.0000,  0.0000,  0.0000)
   1 Li     4.851111    1.617037   10.000000    ( 0.0000,  0.0000,  0.0000)
   2 Li     8.085185    1.617037   10.000000    ( 0.0000,  0.0000,  0.0000)
   3 Li     1.617037    4.851111   10.000000    ( 0.0000,  0.0000,  0.0000)
   4 Li     4.851111    4.851111   10.000000    ( 0.0000,  0.0000,  0.0000)
   5 Li     8.085185    4.851111   10.000000    ( 0.0000,  0.0000,  0.0000)
   6 Li     1.617037    8.085185   10.000000    ( 0.0000,  0.0000,  0.0000)
   7 Li     4.851111    8.085185   10.000000    ( 0.0000,  0.0000,  0.0000)
   8 Li     8.085185    8.085185   10.000000    ( 0.0000,  0.0000,  0.0000)
   9 Li     0.000000    0.000000   11.617037    ( 0.0000,  0.0000,  0.0000)
  10 Li     3.234074    0.000000   11.617037    ( 0.0000,  0.0000,  0.0000)
  11 Li     6.468148    0.000000   11.617037    ( 0.0000,  0.0000,  0.0000)
  12 Li     0.000000    3.234074   11.617037    ( 0.0000,  0.0000,  0.0000)
  13 Li     3.234074    3.234074   11.617037    ( 0.0000,  0.0000,  0.0000)
  14 Li     6.468148    3.234074   11.617037    ( 0.0000,  0.0000,  0.0000)
  15 Li     0.000000    6.468148   11.617037    ( 0.0000,  0.0000,  0.0000)
  16 Li     3.234074    6.468148   11.617037    ( 0.0000,  0.0000,  0.0000)
  17 Li     6.468148    6.468148   11.617037    ( 0.0000,  0.0000,  0.0000)
  18 Li     1.600449    1.654986   13.532141    ( 0.0000,  0.0000,  0.0000)
  19 Li     4.851797    1.569145   13.531878    ( 0.0000,  0.0000,  0.0000)
  20 Li     8.088621    1.600394   13.620712    ( 0.0000,  0.0000,  0.0000)
  21 Li     1.656442    4.878205   13.529201    ( 0.0000,  0.0000,  0.0000)
  22 Li     4.926485    4.777270   13.532099    ( 0.0000,  0.0000,  0.0000)
  23 Li     8.128206    4.831963   13.548246    ( 0.0000,  0.0000,  0.0000)
  24 Li     1.536767    8.143751   13.526104    ( 0.0000,  0.0000,  0.0000)
  25 Li     4.814767    8.045517   13.521998    ( 0.0000,  0.0000,  0.0000)
  26 Li     8.035512    8.087391   13.550526    ( 0.0000,  0.0000,  0.0000)
  27 Li    -0.243065    0.225995   15.676423    ( 0.0000,  0.0000,  0.0000)
  28 Li     3.077553   -0.043278   15.477622    ( 0.0000,  0.0000,  0.0000)
  29 Li     6.322630   -0.138375   15.544855    ( 0.0000,  0.0000,  0.0000)
  30 Li     0.130084    3.328065   15.591623    ( 0.0000,  0.0000,  0.0000)
  31 Li     3.397399    3.292753   15.494746    ( 0.0000,  0.0000,  0.0000)
  32 Li     6.723163    2.965959   15.648878    ( 0.0000,  0.0000,  0.0000)
  33 Li     0.055020    6.608834   15.491363    ( 0.0000,  0.0000,  0.0000)
  34 Li     3.227557    6.477399   15.487188    ( 0.0000,  0.0000,  0.0000)
  35 Li     6.408642    6.307100   15.507437    ( 0.0000,  0.0000,  0.0000)
  36 O      0.746885    2.039226   19.702869    ( 0.0000,  0.0000,  0.0000)
  37 O     -0.315555    1.673257   22.394047    ( 0.0000,  0.0000,  0.0000)
  38 C     -0.054513    3.028119   20.374884    ( 0.0000,  0.0000,  0.0000)
  39 C      0.094168    2.941971   21.886918    ( 0.0000,  0.0000,  0.0000)
  40 H      0.197190    4.036694   20.024981    ( 0.0000,  0.0000,  0.0000)
  41 H     -1.086540    2.809045   20.093136    ( 0.0000,  0.0000,  0.0000)
  42 H     -0.545480    3.688995   22.363422    ( 0.0000,  0.0000,  0.0000)
  43 H      1.135820    3.157628   22.171256    ( 0.0000,  0.0000,  0.0000)
  44 H      1.664703    2.336383   19.714126    ( 0.0000,  0.0000,  0.0000)
  45 H      0.147678    1.002896   21.874235    ( 0.0000,  0.0000,  0.0000)
  46 N     -1.174281    2.026875   15.663684    ( 0.0000,  0.0000,  0.0000)
  47 N     -2.067820    1.142162   15.649647    ( 0.0000,  0.0000,  0.0000)

Unit cell:
           periodic     x           y           z      points  spacing
  1. axis:    yes    9.702222    0.000000    0.000000    60     0.1617
  2. axis:    yes    0.000000    9.702222    0.000000    60     0.1617
  3. axis:    no     0.000000    0.000000   26.601111   168     0.1583

  Lengths:   9.702222   9.702222  26.601111
  Angles:   90.000000  90.000000  90.000000

Effective grid spacing dv^(1/3) = 0.1606

     iter     time        total  log10-change:
                         energy  eigst   dens
iter:   1 23:20:12  -328.103488  -2.26
iter:   2 23:20:19  -328.099879  -2.62  -2.26
iter:   3 23:20:27  -328.098328c -3.60  -2.42
iter:   4 23:20:34  -328.098162c -3.55  -2.83
Writing to output.gpw (mode='')

iter:   5 23:20:42  -328.098235c -3.40  -3.07
iter:   6 23:20:49  -328.098315c -3.48  -3.27
iter:   7 23:20:57  -328.098071c -4.35  -3.25
iter:   8 23:21:04  -328.098110c -4.28  -3.35
iter:   9 23:21:12  -328.098257c -3.85  -3.57
Writing to output.gpw (mode='')

iter:  10 23:21:19  -328.098227c -4.71  -3.45
iter:  11 23:21:27  -328.098066c -4.36  -3.51
iter:  12 23:21:34  -328.098104c -5.52  -3.71
iter:  13 23:21:41  -328.098133c -5.47  -3.95
iter:  14 23:21:49  -328.098124c -6.14  -4.08c
Writing to output.gpw (mode='')

iter:  15 23:21:56  -328.098122c -5.78  -4.21c
iter:  16 23:22:04  -328.098126c -6.26  -4.35c
iter:  17 23:22:11  -328.098121c -6.58  -4.44c
iter:  18 23:22:19  -328.098123c -6.40  -4.64c
iter:  19 23:22:26  -328.098122c -6.96  -4.69c
Writing to output.gpw (mode='')

iter:  20 23:22:34  -328.098122c -7.15  -4.82c
iter:  21 23:22:41  -328.098123c -7.24  -4.85c
iter:  22 23:22:49  -328.098124c -7.43c -5.06c

Converged after 22 iterations.

Dipole moment: (-4.315345, -2.253972, -0.104400) |e|*Ang

Energy contributions relative to reference atoms: (reference = -16475.706344)

Kinetic:       +157.050703
Potential:     -150.164206
External:        +0.000000
XC:            -336.041526
Entropy (-ST):   -0.162607
Local:           +1.138208
--------------------------
Free energy:   -328.179427
Extrapolated:  -328.098124

Dipole-layer corrected work functions: 3.391575, 3.592267 eV

Showing only first 2 kpts
 Kpt  Band  Eigenvalues  Occupancy
  0    34     -3.71030    1.97495
  0    35     -3.52955    1.35950
  0    36     -3.46340    0.72229
  0    37     -3.28137    0.02923

  1    34     -3.73263    1.98390
  1    35     -3.63951    1.90070
  1    36     -3.44143    0.53403
  1    37     -3.25282    0.01662


Fermi level: -3.49192

No gap
Writing to output.gpw (mode='')


Forces in eV/Ang:
  0 Li   -0.00578    0.01102   -0.29379
  1 Li    0.00634   -0.00989   -0.29516
  2 Li    0.00022    0.00015   -0.25499
  3 Li    0.00628    0.00835   -0.29290
  4 Li   -0.01312    0.01397   -0.28558
  5 Li    0.01011   -0.00522   -0.29507
  6 Li    0.01335   -0.01280   -0.28656
  7 Li   -0.00667   -0.00523   -0.29284
  8 Li   -0.00952    0.00748   -0.29493
  9 Li   -0.04199    0.03037    0.28934
 10 Li   -0.01658    0.01118    0.30893
 11 Li    0.03392    0.02934    0.34719
 12 Li   -0.03867   -0.03429    0.34610
 13 Li    0.01208   -0.01676    0.30649
 14 Li    0.04145   -0.04328    0.29875
 15 Li   -0.02244    0.00412    0.31198
 16 Li   -0.00167   -0.00813    0.31865
 17 Li    0.02146   -0.01516    0.31049
 18 Li   -0.00098    0.00987    0.00183
 19 Li    0.01278    0.00554   -0.00109
 20 Li    0.00405    0.00057    0.00398
 21 Li   -0.00867   -0.00292   -0.00568
 22 Li   -0.00331    0.00852   -0.01355
 23 Li    0.01002   -0.00145   -0.00446
 24 Li    0.01227    0.00836   -0.01160
 25 Li   -0.00730   -0.00705   -0.01580
 26 Li    0.00148    0.00500   -0.01346
 27 Li   -0.00437   -0.00732    0.00709
 28 Li   -0.00180   -0.00276   -0.00478
 29 Li    0.00263   -0.00156   -0.00537
 30 Li   -0.01720   -0.01763   -0.00649
 31 Li   -0.00539   -0.00501   -0.01842
 32 Li   -0.00902   -0.00095   -0.00628
 33 Li   -0.00528   -0.01316   -0.00718
 34 Li    0.00433   -0.00213   -0.00748
 35 Li    0.00313   -0.00590   -0.01768
 36 O    -0.00338   -0.00965   -0.04721
 37 O     0.00390    0.00255    0.02289
 38 C    -0.01073    0.03453   -0.01196
 39 C    -0.00396   -0.01126   -0.02101
 40 H    -0.00466    0.02859   -0.00138
 41 H     0.00841   -0.01083   -0.01610
 42 H     0.00757   -0.00278    0.00226
 43 H    -0.00894    0.00102   -0.00247
 44 H     0.03952    0.00937   -0.00021
 45 H    -0.01051   -0.00878   -0.01294
 46 N    -0.00305    0.00069   -0.01215
 47 N     0.00720    0.02695    0.00698

Timing:                                      incl.     excl.
-------------------------------------------------------------------
Density initialized from wave functions:     8.170     8.167   0.0% |
 Symmetrize density:                         0.003     0.003   0.0% |
Forces:                                     63.997    63.997   0.2% |
Hamiltonian:                               888.985     0.022   0.0% |
 Atomic:                                     0.037     0.037   0.0% |
  XC Correction:                             0.000     0.000   0.0% |
 Calculate atomic Hamiltonians:              0.062     0.062   0.0% |
 Communicate:                               10.232    10.232   0.0% |
 Hartree integrate/restrict:                 3.291     3.291   0.0% |
 Initialize Hamiltonian:                     0.000     0.000   0.0% |
 Poisson:                                   42.906    15.260   0.0% |
  Communicate from 1D:                       4.670     4.670   0.0% |
  Communicate from 2D:                       4.500     4.500   0.0% |
  Communicate to 1D:                         2.249     2.249   0.0% |
  Communicate to 2D:                         5.190     5.190   0.0% |
  FFT 1D:                                    5.907     5.907   0.0% |
  FFT 2D:                                    5.131     5.131   0.0% |
 XC 3D grid:                               831.741   126.943   0.3% |
  VdW-DF integral:                         704.798     5.802   0.0% |
   Convolution:                             62.437    62.437   0.2% |
   FFT:                                     27.289    27.289   0.1% |
   gather:                                 244.252   244.252   0.6% |
   hmm1:                                    22.872    22.872   0.1% |
   hmm2:                                    30.092    30.092   0.1% |
   iFFT:                                    28.025    28.025   0.1% |
   potential:                              280.401     7.540   0.0% |
    collect:                                41.376    41.376   0.1% |
    p1:                                    123.646   123.646   0.3% |
    p2:                                     45.662    45.662   0.1% |
    sum:                                    62.177    62.177   0.2% |
   splines:                                  3.628     3.628   0.0% |
 vbar:                                       0.694     0.694   0.0% |
LCAO initialization:                         1.087     0.183   0.0% |
 LCAO eigensolver:                           0.171     0.000   0.0% |
  Calculate projections:                     0.000     0.000   0.0% |
  DenseAtomicCorrection:                     0.000     0.000   0.0% |
  Distribute overlap matrix:                 0.154     0.154   0.0% |
  Orbital Layouts:                           0.015     0.015   0.0% |
  Potential matrix:                          0.001     0.001   0.0% |
  Sum over cells:                            0.001     0.001   0.0% |
 LCAO to grid:                               0.637     0.637   0.0% |
 Set positions (LCAO WFS):                   0.096     0.056   0.0% |
  Basic WFS set positions:                   0.001     0.001   0.0% |
  Basis functions set positions:             0.000     0.000   0.0% |
  P tci:                                     0.000     0.000   0.0% |
  ST tci:                                    0.012     0.012   0.0% |
  mktci:                                     0.027     0.027   0.0% |
Redistribute:                                0.096     0.096   0.0% |
SCF-cycle:                               38478.268   588.506   1.5% ||
 Davidson:                               10450.819  3143.808   7.9% |--|
  Apply hamiltonian:                       651.365   651.365   1.6% ||
  Subspace diag:                          1950.199     0.608   0.0% |
   calc_h_matrix:                          969.987   296.257   0.7% |
    Apply hamiltonian:                     673.729   673.729   1.7% ||
   diagonalize:                             97.030    97.030   0.2% |
   rotate_psi:                             882.574   882.574   2.2% ||
  calc. matrices:                         3253.186  1680.335   4.2% |-|
   Apply hamiltonian:                     1572.851  1572.851   4.0% |-|
  diagonalize:                              30.825    30.825   0.1% |
  rotate_psi:                             1421.436  1421.436   3.6% ||
 Density:                                  185.189     0.134   0.0% |
  Atomic density matrices:                  21.393    21.393   0.1% |
  Mix:                                      77.955    77.955   0.2% |
  Multipole moments:                         6.781     6.781   0.0% |
  Pseudo density:                           78.925    78.802   0.2% |
   Symmetrize density:                       0.123     0.123   0.0% |
 Hamiltonian:                            27223.963     0.666   0.0% |
  Atomic:                                    1.278     1.265   0.0% |
   XC Correction:                            0.012     0.012   0.0% |
  Calculate atomic Hamiltonians:             2.003     2.003   0.0% |
  Communicate:                             370.981   370.981   0.9% |
  Hartree integrate/restrict:              104.687   104.687   0.3% |
  Poisson:                                1303.497   481.855   1.2% |
   Communicate from 1D:                    130.350   130.350   0.3% |
   Communicate from 2D:                    129.143   129.143   0.3% |
   Communicate to 1D:                       72.605    72.605   0.2% |
   Communicate to 2D:                      157.051   157.051   0.4% |
   FFT 1D:                                 168.115   168.115   0.4% |
   FFT 2D:                                 164.378   164.378   0.4% |
  XC 3D grid:                            25420.090  3927.318   9.9% |---|
   VdW-DF integral:                      21492.773   181.107   0.5% |
    Convolution:                          1946.837  1946.837   4.9% |-|
    FFT:                                   851.380   851.380   2.2% ||
    gather:                               7456.081  7456.081  18.8% |-------|
    hmm1:                                  715.132   715.132   1.8% ||
    hmm2:                                  939.469   939.469   2.4% ||
    iFFT:                                  873.621   873.621   2.2% ||
    potential:                            8529.099   236.712   0.6% |
     collect:                             1317.727  1317.727   3.3% ||
     p1:                                  3849.444  3849.444   9.7% |---|
     p2:                                  1422.770  1422.770   3.6% ||
     sum:                                 1702.446  1702.446   4.3% |-|
    splines:                                 0.046     0.046   0.0% |
  vbar:                                     20.762    20.762   0.1% |
 Orthonormalize:                            29.791     0.022   0.0% |
  calc_s_matrix:                             4.327     4.327   0.0% |
  inverse-cholesky:                          8.578     8.578   0.0% |
  projections:                               0.003     0.003   0.0% |
  rotate_psi_s:                             16.860    16.860   0.0% |
Set symmetry:                                0.012     0.012   0.0% |
Other:                                     157.930   157.930   0.4% |
-------------------------------------------------------------------
Total:                                             39598.545 100.0%

Memory usage: 1.14 GiB
Date: Fri Mar 10 23:22:50 2023
