
  ___ ___ ___ _ _ _  
 |   |   |_  | | | | 
 | | | | | . | | | | 
 |__ |  _|___|_____|  22.8.0
 |___|_|             

User:   vazumah@f010
Date:   Tue Feb 28 01:20:14 2023
Arch:   x86_64
Pid:    44535
CWD:    /home/vazumah/Research_Projects/LiMEAS/LiNRR_proton_donors/N2_with_proton_donor/Li_BCC_100/adsorbates/CH3CH2OH_z_recalcs/bridge/0.0_1.617/N2_y
Python: 3.10.6
gpaw:   /home/vazumah/anaconda3/envs/NAME/lib/python3.10/site-packages/gpaw
_gpaw:  /home/vazumah/anaconda3/envs/NAME/lib/python3.10/site-packages/
        _gpaw.cpython-310-x86_64-linux-gnu.so
ase:    /home/vazumah/anaconda3/envs/NAME/lib/python3.10/site-packages/ase (version 3.22.1)
numpy:  /home/vazumah/anaconda3/envs/NAME/lib/python3.10/site-packages/numpy (version 1.23.3)
scipy:  /home/vazumah/anaconda3/envs/NAME/lib/python3.10/site-packages/scipy (version 1.9.1)
libxc:  5.2.3
units:  Angstrom and eV
cores: 32
OpenMP: True
OMP_NUM_THREADS: 1

Input parameters:
  h: 0.16
  kpts: {size: [4, 4, 1]}
  occupations: {name: fermi-dirac,
                width: 0.05}
  poissonsolver: {dipolelayer: xy}
  xc: BEEF-vdW

System changes: positions, numbers, cell, pbc, initial_charges, initial_magmoms 

Initialize ...

species:
  Li:
    name: Lithium
    id: 830b4218f175192f93f959cfc0aad614
    Z: 3.0
    valence: 1
    core: 2
    charge: 0.0
    file: /home/vazumah/anaconda3/envs/NAME/share/gpaw/Li.PBE.gz
    compensation charges: {type: gauss,
                           rc: 0.33,
                           lmax: 2}
    cutoffs: {filter: 1.91,
              core: 2.55}
    valence states:
      #              energy  rcut
      - 2s(1.00)    -2.874   1.058
      - 2p(0.00)    -1.090   1.058
      -  s          24.337   1.058
  
    # Using partial waves for Li as LCAO basis

  O:
    name: Oxygen
    id: 32ecd46bf208036f09c70b0ec9a88b78
    Z: 8.0
    valence: 6
    core: 2
    charge: 0.0
    file: /home/vazumah/anaconda3/envs/NAME/share/gpaw/O.PBE.gz
    compensation charges: {type: gauss,
                           rc: 0.21,
                           lmax: 2}
    cutoffs: {filter: 1.17,
              core: 0.83}
    valence states:
      #              energy  rcut
      - 2s(2.00)   -23.961   0.688
      - 2p(4.00)    -9.029   0.598
      -  s           3.251   0.688
      -  p          18.182   0.598
      -  d           0.000   0.619
  
    # Using partial waves for O as LCAO basis

  C:
    name: Carbon
    id: 4aa54d4b901d75f77cc0ea3eec22967b
    Z: 6.0
    valence: 4
    core: 2
    charge: 0.0
    file: /home/vazumah/anaconda3/envs/NAME/share/gpaw/C.PBE.gz
    compensation charges: {type: gauss,
                           rc: 0.20,
                           lmax: 2}
    cutoffs: {filter: 1.14,
              core: 1.14}
    valence states:
      #              energy  rcut
      - 2s(2.00)   -13.751   0.635
      - 2p(2.00)    -5.284   0.635
      -  s          13.461   0.635
      -  p          21.927   0.635
      -  d           0.000   0.635
  
    # Using partial waves for C as LCAO basis

  H:
    name: Hydrogen
    id: d65de229564ff8ea4db303e23b6d1ecf
    Z: 1.0
    valence: 1
    core: 0
    charge: 0.0
    file: /home/vazumah/anaconda3/envs/NAME/share/gpaw/H.PBE.gz
    compensation charges: {type: gauss,
                           rc: 0.15,
                           lmax: 2}
    cutoffs: {filter: 0.85,
              core: 0.53}
    valence states:
      #              energy  rcut
      - 1s(1.00)    -6.494   0.476
      -  s          20.717   0.476
      -  p           0.000   0.476
  
    # Using partial waves for H as LCAO basis

  N:
    name: Nitrogen
    id: f7500608b86eaa90eef8b1d9a670dc53
    Z: 7.0
    valence: 5
    core: 2
    charge: 0.0
    file: /home/vazumah/anaconda3/envs/NAME/share/gpaw/N.PBE.gz
    compensation charges: {type: gauss,
                           rc: 0.18,
                           lmax: 2}
    cutoffs: {filter: 1.11,
              core: 0.96}
    valence states:
      #              energy  rcut
      - 2s(2.00)   -18.583   0.603
      - 2p(3.00)    -7.089   0.529
      -  s           8.629   0.603
      -  p          20.123   0.529
      -  d           0.000   0.577
  
    # Using partial waves for N as LCAO basis

Reference energy: -14434.854043  # eV

Spin-paired calculation

Convergence criteria:
 Maximum [total energy] change in last 3 cyles: 0.0005 eV / electron
 Maximum integral of absolute [dens]ity change: 0.0001 electrons / valence electron
 Maximum integral of absolute [eigenst]ate change: 4e-08 eV^2 / valence electron
 Maximum number of scf [iter]ations: 333
 (Square brackets indicate name in SCF output, whereas a 'c' in
 the SCF output indicates the quantity has converged.)

Symmetries present (total): 1

  ( 1  0  0)
  ( 0  1  0)
  ( 0  0  1)

16 k-points: 4 x 4 x 1 Monkhorst-Pack grid
8 k-points in the irreducible part of the Brillouin zone
       k-points in crystal coordinates                weights
   0:     0.12500000   -0.37500000    0.00000000          2/16
   1:     0.12500000   -0.12500000    0.00000000          2/16
   2:     0.12500000    0.12500000    0.00000000          2/16
   3:     0.12500000    0.37500000    0.00000000          2/16
   4:     0.37500000   -0.37500000    0.00000000          2/16
   5:     0.37500000   -0.12500000    0.00000000          2/16
   6:     0.37500000    0.12500000    0.00000000          2/16
   7:     0.37500000    0.37500000    0.00000000          2/16

Wave functions: Uniform real-space grid
  Kinetic energy operator: 6*3+1=19 point O(h^6) finite-difference Laplacian
  ScaLapack parameters: grid=1x1, blocksize=None
  Wavefunction extrapolation:
    Improved wavefunction reuse through dual PAW basis 

Occupation numbers: Fermi-Dirac:
  width: 0.0500  # eV
 

Eigensolver
   Davidson(niter=2) 

Densities:
  Coarse grid: 60*60*164 grid
  Fine grid: 120*120*328 grid
  Total Charge: 0.000000 

Density mixing:
  Method: separate
  Backend: pulay
  Linear mixing parameter: 0.05
  old densities: 5
  Damping of long wavelength oscillations: 50 

Hamiltonian:
  XC and Coulomb potentials evaluated on a 120*120*328 grid
  Using the BEEF-vdW Exchange-Correlation functional
  Interpolation: tri-quintic (5. degree polynomial)
  Poisson solver: FastPoissonSolver using
    Stencil: 6*3+1=19 point O(h^6) finite-difference Laplacian
    FFT axes: [0, 1]
    FST axes: [2]

Dipole correction along z-axis 

XC parameters: BEEF-vdW with 2 nearest neighbor stencil

Memory estimate:
  Process memory now: 218.92 MiB
  Calculator: 320.00 MiB
    Density: 89.88 MiB
      Arrays: 28.89 MiB
      Localized functions: 50.00 MiB
      Mixer: 10.99 MiB
    Hamiltonian: 22.85 MiB
      Arrays: 18.90 MiB
      XC: 0.00 MiB
      Poisson: 0.00 MiB
      vbar: 3.95 MiB
    Wavefunctions: 207.27 MiB
      Arrays psit_nG: 96.68 MiB
      Eigensolver: 107.96 MiB
      Projections: 0.05 MiB
      Projectors: 2.58 MiB

Total number of cores used: 32
Parallelization over k-points: 8
Domain decomposition: 1 x 1 x 4

Number of atoms: 47
Number of atomic orbitals: 170
Number of bands in calculation: 44
Number of valence electrons: 66
Bands to converge: occupied

... initialized

Initializing position-dependent things.

Density initialized from atomic densities
Creating initial wave functions:
  44 bands from LCAO basis set

       .-----------------------.  
      /|                       |  
     / |                       |  
    /  |                       |  
   /   |                       |  
  /    |                       |  
 *     |                       |  
 |H    |                H      |  
 |C  H |                       |  
 |     |                       |  
 | H   |               H C     |  
 |O    |                H      |  
 |     |                       |  
 |     |                       |  
 |     |                       |  
 |   Li|     Li      Li        |  
 |NN   |                       |  
 | Li  |  LLi     LLi     Li   |  
 |     |                       |  
 Li    |LLi     LLi     Li     |  
 |   Li|     Li      Li        |  
 |    Li  Li  Li  Li  Li  Li   |  
 | Li  |   Li      Li          |  
 |     |Li      Li      Li     |  
 Li    | Li      Li            |  
 |    Li      Li      Li       |  
 |     |                       |  
 |     |                       |  
 |     |                       |  
 |     |                       |  
 |     |                       |  
 |     |                       |  
 |     .-----------------------.  
 |    /                       /   
 |   /                       /    
 |  /                       /     
 | /                       /      
 |/                       /       
 *-----------------------*        

Positions:
   0 Li     1.617037    1.617037   10.000000    ( 0.0000,  0.0000,  0.0000)
   1 Li     4.851111    1.617037   10.000000    ( 0.0000,  0.0000,  0.0000)
   2 Li     8.085185    1.617037   10.000000    ( 0.0000,  0.0000,  0.0000)
   3 Li     1.617037    4.851111   10.000000    ( 0.0000,  0.0000,  0.0000)
   4 Li     4.851111    4.851111   10.000000    ( 0.0000,  0.0000,  0.0000)
   5 Li     8.085185    4.851111   10.000000    ( 0.0000,  0.0000,  0.0000)
   6 Li     1.617037    8.085185   10.000000    ( 0.0000,  0.0000,  0.0000)
   7 Li     4.851111    8.085185   10.000000    ( 0.0000,  0.0000,  0.0000)
   8 Li     8.085185    8.085185   10.000000    ( 0.0000,  0.0000,  0.0000)
   9 Li     0.000000    0.000000   11.617037    ( 0.0000,  0.0000,  0.0000)
  10 Li     3.234074    0.000000   11.617037    ( 0.0000,  0.0000,  0.0000)
  11 Li     6.468148    0.000000   11.617037    ( 0.0000,  0.0000,  0.0000)
  12 Li     0.000000    3.234074   11.617037    ( 0.0000,  0.0000,  0.0000)
  13 Li     3.234074    3.234074   11.617037    ( 0.0000,  0.0000,  0.0000)
  14 Li     6.468148    3.234074   11.617037    ( 0.0000,  0.0000,  0.0000)
  15 Li     0.000000    6.468148   11.617037    ( 0.0000,  0.0000,  0.0000)
  16 Li     3.234074    6.468148   11.617037    ( 0.0000,  0.0000,  0.0000)
  17 Li     6.468148    6.468148   11.617037    ( 0.0000,  0.0000,  0.0000)
  18 Li     1.617038    1.617038   13.469728    ( 0.0000,  0.0000,  0.0000)
  19 Li     4.851111    1.617038   13.469729    ( 0.0000,  0.0000,  0.0000)
  20 Li     8.085184    1.617038   13.469728    ( 0.0000,  0.0000,  0.0000)
  21 Li     1.617038    4.851111   13.469729    ( 0.0000,  0.0000,  0.0000)
  22 Li     4.851111    4.851111   13.469730    ( 0.0000,  0.0000,  0.0000)
  23 Li     8.085184    4.851111   13.469729    ( 0.0000,  0.0000,  0.0000)
  24 Li     1.617038    8.085184   13.469728    ( 0.0000,  0.0000,  0.0000)
  25 Li     4.851111    8.085184   13.469729    ( 0.0000,  0.0000,  0.0000)
  26 Li     8.085184    8.085184   13.469728    ( 0.0000,  0.0000,  0.0000)
  27 Li    -0.000000   -0.000000   15.445939    ( 0.0000,  0.0000,  0.0000)
  28 Li     3.234074    0.000000   15.445939    ( 0.0000,  0.0000,  0.0000)
  29 Li     6.468148    0.000000   15.445939    ( 0.0000,  0.0000,  0.0000)
  30 Li     0.000000    3.234074   15.445939    ( 0.0000,  0.0000,  0.0000)
  31 Li     3.234076    3.234076   15.445938    ( 0.0000,  0.0000,  0.0000)
  32 Li     6.468146    3.234076   15.445938    ( 0.0000,  0.0000,  0.0000)
  33 Li     0.000000    6.468148   15.445939    ( 0.0000,  0.0000,  0.0000)
  34 Li     3.234076    6.468146   15.445938    ( 0.0000,  0.0000,  0.0000)
  35 Li     6.468146    6.468146   15.445938    ( 0.0000,  0.0000,  0.0000)
  36 O      0.000000    1.617037   21.445939    ( 0.0000,  0.0000,  0.0000)
  37 C     -0.004298    0.800279   22.628347    ( 0.0000,  0.0000,  0.0000)
  38 C      0.010235    1.619898   23.912561    ( 0.0000,  0.0000,  0.0000)
  39 H     -0.864458    0.116744   22.619724    ( 0.0000,  0.0000,  0.0000)
  40 H      0.898497    0.190554   22.552958    ( 0.0000,  0.0000,  0.0000)
  41 H      0.025670    0.965951   24.789488    ( 0.0000,  0.0000,  0.0000)
  42 H      0.887053    2.268921   23.947273    ( 0.0000,  0.0000,  0.0000)
  43 H     -0.882326    2.248385   23.982749    ( 0.0000,  0.0000,  0.0000)
  44 H     -0.768225    2.200014   21.485106    ( 0.0000,  0.0000,  0.0000)
  45 N      0.000000    1.617000   16.945939    ( 0.0000,  0.0000,  0.0000)
  46 N      0.000000    2.713622   16.945939    ( 0.0000,  0.0000,  0.0000)

Unit cell:
           periodic     x           y           z      points  spacing
  1. axis:    yes    9.702222    0.000000    0.000000    60     0.1617
  2. axis:    yes    0.000000    9.702222    0.000000    60     0.1617
  3. axis:    no     0.000000    0.000000   26.351111   164     0.1607

  Lengths:   9.702222   9.702222  26.351111
  Angles:   90.000000  90.000000  90.000000

Effective grid spacing dv^(1/3) = 0.1614

     iter     time        total  log10-change:
                         energy  eigst   dens
iter:   1 01:21:03  -625.829722
iter:   2 01:21:31   -24.435598  +2.56  +0.01
iter:   3 01:21:59   191.263977  +3.16  -0.15
iter:   4 01:22:26    59.457470  +3.18  -0.18
Writing to output.gpw (mode='')

iter:   5 01:22:54  -151.905875  +3.08  -0.19
iter:   6 01:23:23  -337.773816  +2.90  -0.38
iter:   7 01:23:50  -367.888791  +2.60  -0.38
iter:   8 01:24:18  -338.302979  +2.24  -0.38
iter:   9 01:24:46  -413.594244  +2.28  -0.47
Writing to output.gpw (mode='')

iter:  10 01:25:14  -368.307807  +1.92  -0.35
iter:  11 01:25:41  -451.286439  +2.18  -0.46
iter:  12 01:26:08  -320.821235  +1.73  -0.31
iter:  13 01:26:35  -322.949363  +1.12  -0.68
iter:  14 01:27:03  -320.566699  +0.79  -0.65
Writing to output.gpw (mode='')

iter:  15 01:27:30  -311.955891  +0.95  -0.71
iter:  16 01:27:58  -310.088997  +0.57  -0.71
iter:  17 01:28:27  -310.162177  +1.25  -0.81
iter:  18 01:28:55  -309.416244  +0.47  -0.78
iter:  19 01:29:24  -308.953278  +0.02  -0.86
Writing to output.gpw (mode='')

iter:  20 01:29:53  -309.408941  +0.48  -0.89
iter:  21 01:30:22  -307.809568  +0.09  -0.96
iter:  22 01:30:51  -307.704288  +0.01  -1.09
iter:  23 01:31:21  -307.452877  -0.23  -1.15
iter:  24 01:31:50  -307.576475  -0.37  -1.32
Writing to output.gpw (mode='')

iter:  25 01:32:20  -307.573859  -0.55  -1.34
iter:  26 01:32:49  -307.432077  -0.45  -1.42
iter:  27 01:33:19  -307.381736  -0.72  -1.53
iter:  28 01:33:48  -307.321709  -0.76  -1.66
iter:  29 01:34:19  -307.322540  -0.96  -1.82
Writing to output.gpw (mode='')

iter:  30 01:34:47  -307.339430c -0.90  -1.91
iter:  31 01:35:16  -307.323144c -1.35  -1.86
iter:  32 01:35:46  -307.321027c -1.24  -1.96
iter:  33 01:36:17  -307.331188c -1.50  -2.10
iter:  34 01:36:46  -307.326727c -1.54  -2.07
Writing to output.gpw (mode='')

iter:  35 01:37:21  -307.329235c -1.62  -2.23
iter:  36 01:37:50  -307.326998c -1.68  -2.25
iter:  37 01:39:26  -307.326913c -1.70  -2.41
iter:  38 01:40:31  -307.328494c -1.80  -2.59
iter:  39 01:41:36  -307.330845c -1.75  -2.72
Writing to output.gpw (mode='')

iter:  40 01:44:19  -307.333884c -1.70  -2.76
iter:  41 01:50:17  -307.336116c -1.99  -2.79
iter:  42 01:55:12  -307.338223c -1.86  -2.79
iter:  43 01:56:06  -307.339815c -2.10  -2.76
iter:  44 01:56:53  -307.341147c -2.18  -2.98
Writing to output.gpw (mode='')

iter:  45 01:57:43  -307.342470c -2.15  -3.01
iter:  46 01:58:29  -307.343927c -2.31  -2.88
iter:  47 01:59:31  -307.344844c -2.40  -2.99
iter:  48 02:00:48  -307.345770c -2.36  -2.93
iter:  49 02:02:06  -307.347079c -2.23  -2.88
Writing to output.gpw (mode='')

iter:  50 02:02:57  -307.348263c -2.15  -2.82
iter:  51 02:03:47  -307.348984c -2.52  -2.78
iter:  52 02:04:49  -307.349607c -2.63  -2.78
iter:  53 02:06:48  -307.350186c -2.58  -2.70
iter:  54 02:08:49  -307.350655c -2.71  -2.66
Writing to output.gpw (mode='')

iter:  55 02:09:54  -307.351035c -2.55  -2.74
iter:  56 02:10:47  -307.351726c -2.70  -2.73
iter:  57 02:11:36  -307.351599c -2.80  -2.61
iter:  58 02:12:26  -307.351878c -2.69  -2.77
iter:  59 02:13:16  -307.352097c -2.73  -2.93
Writing to output.gpw (mode='')

iter:  60 02:13:59  -307.352327c -2.75  -2.93
iter:  61 02:15:18  -307.352568c -2.77  -2.95
iter:  62 02:16:31  -307.352854c -2.99  -3.05
iter:  63 02:17:20  -307.352943c -3.23  -3.19
iter:  64 02:18:12  -307.353029c -3.11  -3.23
Writing to output.gpw (mode='')

iter:  65 02:19:12  -307.353180c -3.20  -3.26
iter:  66 02:20:12  -307.353215c -3.47  -3.50
iter:  67 02:21:13  -307.353264c -3.34  -3.60
iter:  68 02:22:16  -307.353334c -3.32  -3.62
iter:  69 02:23:17  -307.353381c -3.45  -3.64
Writing to output.gpw (mode='')

iter:  70 02:24:19  -307.353422c -3.26  -3.63
iter:  71 02:25:19  -307.353461c -3.58  -3.59
iter:  72 02:26:18  -307.353493c -3.53  -3.66
iter:  73 02:27:36  -307.353536c -3.26  -3.70
iter:  74 02:28:57  -307.353561c -3.60  -3.69
Writing to output.gpw (mode='')

iter:  75 02:30:15  -307.353573c -3.69  -3.68
iter:  76 02:31:17  -307.353595c -3.81  -3.59
iter:  77 02:32:24  -307.353602c -3.98  -3.64
iter:  78 02:33:24  -307.353612c -3.85  -3.68
iter:  79 02:34:08  -307.353626c -4.06  -3.62
Writing to output.gpw (mode='')

iter:  80 02:34:56  -307.353625c -4.24  -3.69
iter:  81 02:35:43  -307.353632c -4.00  -3.68
iter:  82 02:36:34  -307.353631c -4.28  -3.69
iter:  83 02:37:18  -307.353663c -4.23  -3.63
iter:  84 02:38:04  -307.353673c -4.29  -3.90
Writing to output.gpw (mode='')

iter:  85 02:38:55  -307.353681c -4.21  -3.96
iter:  86 02:40:18  -307.353686c -4.32  -3.91
iter:  87 02:41:07  -307.353687c -4.30  -3.88
iter:  88 02:41:52  -307.353687c -4.62  -3.95
iter:  89 02:42:35  -307.353697c -4.60  -3.97
Writing to output.gpw (mode='')

iter:  90 02:43:17  -307.353688c -4.61  -4.05c
iter:  91 02:44:13  -307.353696c -4.50  -4.03c
iter:  92 02:45:14  -307.353693c -4.66  -4.18c
iter:  93 02:46:41  -307.353693c -4.67  -4.19c
iter:  94 02:48:17  -307.353691c -4.97  -4.33c
Writing to output.gpw (mode='')

iter:  95 02:49:44  -307.353688c -4.85  -4.39c
iter:  96 02:51:04  -307.353688c -5.13  -4.52c
iter:  97 02:52:24  -307.353688c -5.00  -4.54c
iter:  98 02:53:44  -307.353688c -5.20  -4.55c
iter:  99 02:55:07  -307.353691c -5.02  -4.56c
Writing to output.gpw (mode='')

iter: 100 02:56:09  -307.353691c -4.99  -4.68c
iter: 101 02:57:31  -307.353691c -5.46  -4.76c
iter: 102 02:58:44  -307.353689c -5.39  -4.81c
iter: 103 02:59:58  -307.353690c -5.57  -4.88c
iter: 104 03:01:07  -307.353690c -5.64  -4.95c
Writing to output.gpw (mode='')

iter: 105 03:02:36  -307.353690c -5.43  -5.22c
iter: 106 03:04:26  -307.353690c -5.75  -5.26c
iter: 107 03:05:33  -307.353691c -5.63  -5.29c
iter: 108 03:06:47  -307.353691c -5.98  -5.29c
iter: 109 03:08:09  -307.353690c -5.82  -5.31c
Writing to output.gpw (mode='')

iter: 110 03:09:26  -307.353691c -5.87  -5.40c
iter: 111 03:11:02  -307.353691c -5.93  -5.56c
iter: 112 03:12:22  -307.353691c -6.02  -5.56c
iter: 113 03:14:12  -307.353690c -6.16  -5.55c
iter: 114 03:15:30  -307.353690c -6.33  -5.50c
Writing to output.gpw (mode='')

iter: 115 03:16:38  -307.353690c -6.21  -5.45c
iter: 116 03:18:10  -307.353690c -6.18  -5.47c
iter: 117 03:20:11  -307.353690c -6.25  -5.49c
iter: 118 03:21:36  -307.353690c -6.25  -5.47c
iter: 119 03:23:47  -307.353690c -6.58  -5.43c
Writing to output.gpw (mode='')

iter: 120 03:25:13  -307.353689c -6.52  -5.21c
iter: 121 03:27:08  -307.353690c -6.58  -5.32c
iter: 122 03:29:04  -307.353690c -6.62  -5.44c
iter: 123 03:31:48  -307.353690c -6.61  -5.59c
iter: 124 03:34:54  -307.353691c -6.61  -5.67c
Writing to output.gpw (mode='')

iter: 125 03:37:58  -307.353691c -6.71  -5.68c
iter: 126 03:40:29  -307.353691c -6.73  -5.82c
iter: 127 03:43:38  -307.353691c -7.01  -5.98c
iter: 128 03:46:55  -307.353691c -7.07  -5.97c
iter: 129 03:51:01  -307.353691c -7.00  -6.03c
Writing to output.gpw (mode='')

iter: 130 03:55:13  -307.353691c -6.79  -6.10c
iter: 131 03:58:34  -307.353691c -7.13  -6.21c
iter: 132 04:02:15  -307.353691c -7.22  -6.21c
iter: 133 04:05:06  -307.353691c -7.12  -6.32c
iter: 134 04:09:32  -307.353691c -7.25  -6.42c
Writing to output.gpw (mode='')

iter: 135 04:13:17  -307.353691c -7.30  -6.49c
iter: 136 04:17:10  -307.353691c -7.37  -6.60c
iter: 137 04:21:51  -307.353691c -7.44c -6.81c

Converged after 137 iterations.

Dipole moment: (-21.494608, -9.559446, 0.410579) |e|*Ang

Energy contributions relative to reference atoms: (reference = -14434.854043)

Kinetic:       +162.964076
Potential:     -154.133809
External:        +0.000000
XC:            -316.884192
Entropy (-ST):   -0.153838
Local:           +0.777153
--------------------------
Free energy:   -307.430610
Extrapolated:  -307.353691

Dipole-layer corrected work functions: 3.400731, 2.611457 eV

Showing only first 2 kpts
 Kpt  Band  Eigenvalues  Occupancy
  0    31     -3.26205    1.98811
  0    32     -3.16969    1.92690
  0    33     -2.86964    0.12255
  0    34     -2.78813    0.02525

  1    31     -3.07682    1.60898
  1    32     -3.00362    0.97527
  1    33     -2.93715    0.40238
  1    34     -2.91820    0.29413


Fermi level: -3.00609

No gap
Writing to output.gpw (mode='')


Forces in eV/Ang:
  0 Li    0.01995   -0.00256   -0.27287
  1 Li    0.00009    0.00151   -0.27238
  2 Li   -0.02007   -0.00241   -0.27296
  3 Li   -0.00075    0.01778   -0.27340
  4 Li    0.00012   -0.00790   -0.26743
  5 Li    0.00064    0.01770   -0.27353
  6 Li   -0.00582   -0.01312   -0.26627
  7 Li   -0.00001    0.00753   -0.28026
  8 Li    0.00582   -0.01314   -0.26654
  9 Li   -0.00004   -0.00935    0.27828
 10 Li    0.00642    0.00265    0.25862
 11 Li   -0.00629    0.00277    0.25854
 12 Li   -0.00009    0.00306    0.32299
 13 Li    0.01062   -0.00396    0.25615
 14 Li   -0.01058   -0.00398    0.25549
 15 Li    0.00009    0.00599    0.24258
 16 Li    0.00199    0.00306    0.24963
 17 Li   -0.00208    0.00285    0.25001
 18 Li    0.01495   -0.01117   -0.07795
 19 Li    0.00008    0.00594    0.07235
 20 Li   -0.01508   -0.01092   -0.07752
 21 Li    0.00435   -0.01331    0.01678
 22 Li   -0.00010    0.00066    0.05120
 23 Li   -0.00420   -0.01358    0.01757
 24 Li   -0.01038    0.01409    0.05947
 25 Li   -0.00028   -0.01262    0.01993
 26 Li    0.01059    0.01413    0.05955
 27 Li   -0.00033   -0.10989    0.15693
 28 Li    0.06222   -0.05021   -0.04653
 29 Li   -0.06256   -0.05034   -0.04872
 30 Li   -0.00069    1.71952   -4.30406
 31 Li    0.09540    0.04342   -0.05465
 32 Li   -0.09593    0.04375   -0.05932
 33 Li   -0.00049    0.03116   -0.04142
 34 Li   -0.00759    0.00188   -0.02702
 35 Li    0.00809    0.00158   -0.02740
 36 O     0.00910   -0.03361   -0.01412
 37 C     0.00236    0.09780    0.00725
 38 C     0.00554   -0.22679    0.00613
 39 H     0.01032    0.02885   -0.01506
 40 H    -0.00891    0.00143   -0.01031
 41 H    -0.01225    0.16409   -0.54946
 42 H    -0.00413   -0.00752   -0.03144
 43 H    -0.00272   -0.00387   -0.01400
 44 H    -0.00050   -0.01123   -0.01829
 45 N     0.00227   -4.89395   -0.18005
 46 N     0.00012    3.23054    4.63625

System changes: positions 

Initializing position-dependent things.

Density initialized from wave functions
       .-----------------------.  
      /|                       |  
     / |                       |  
    /  |                       |  
   /   |                       |  
  /    |                       |  
 *     |                       |  
 |H    |                H      |  
 |C  H |                       |  
 |     |                       |  
 | H   |               H C     |  
 |O    |                H      |  
 |     |                       |  
 |     |       Li      Li      Li 
 |     |                       |  
 |     |     Li      Li      Li|  
 |NN   |                       |  
 |     |  LLi     LLi     LLi  |  
 |     |                       |  
 |     |Li      Li      Li     |  
 |   Li|     Li      Li        |  
 |    Li  Li  Li  Li  Li  Li   |  
 | Li  |   Li      Li          |  
 |     |Li      Li      Li     |  
 Li    | Li      Li            |  
 |    Li      Li      Li       |  
 |     |                       |  
 |     |                       |  
 |     |                       |  
 |     |                       |  
 |     |                       |  
 |     |                       |  
 |     .-----------------------.  
 |    /                       /   
 |   /                       /    
 |  /                       /     
 | /                       /      
 |/                       /       
 *-----------------------*        

Positions:
   0 Li     1.617037    1.617037   10.000000    ( 0.0000,  0.0000,  0.0000)
   1 Li     4.851111    1.617037   10.000000    ( 0.0000,  0.0000,  0.0000)
   2 Li     8.085185    1.617037   10.000000    ( 0.0000,  0.0000,  0.0000)
   3 Li     1.617037    4.851111   10.000000    ( 0.0000,  0.0000,  0.0000)
   4 Li     4.851111    4.851111   10.000000    ( 0.0000,  0.0000,  0.0000)
   5 Li     8.085185    4.851111   10.000000    ( 0.0000,  0.0000,  0.0000)
   6 Li     1.617037    8.085185   10.000000    ( 0.0000,  0.0000,  0.0000)
   7 Li     4.851111    8.085185   10.000000    ( 0.0000,  0.0000,  0.0000)
   8 Li     8.085185    8.085185   10.000000    ( 0.0000,  0.0000,  0.0000)
   9 Li     0.000000    0.000000   11.617037    ( 0.0000,  0.0000,  0.0000)
  10 Li     3.234074    0.000000   11.617037    ( 0.0000,  0.0000,  0.0000)
  11 Li     6.468148    0.000000   11.617037    ( 0.0000,  0.0000,  0.0000)
  12 Li     0.000000    3.234074   11.617037    ( 0.0000,  0.0000,  0.0000)
  13 Li     3.234074    3.234074   11.617037    ( 0.0000,  0.0000,  0.0000)
  14 Li     6.468148    3.234074   11.617037    ( 0.0000,  0.0000,  0.0000)
  15 Li     0.000000    6.468148   11.617037    ( 0.0000,  0.0000,  0.0000)
  16 Li     3.234074    6.468148   11.617037    ( 0.0000,  0.0000,  0.0000)
  17 Li     6.468148    6.468148   11.617037    ( 0.0000,  0.0000,  0.0000)
  18 Li     1.617144    1.616959   13.469176    ( 0.0000,  0.0000,  0.0000)
  19 Li     4.851112    1.617080   13.470242    ( 0.0000,  0.0000,  0.0000)
  20 Li     8.085077    1.616961   13.469179    ( 0.0000,  0.0000,  0.0000)
  21 Li     1.617069    4.851017   13.469848    ( 0.0000,  0.0000,  0.0000)
  22 Li     4.851110    4.851116   13.470093    ( 0.0000,  0.0000,  0.0000)
  23 Li     8.085154    4.851015   13.469854    ( 0.0000,  0.0000,  0.0000)
  24 Li     1.616965    8.085284   13.470149    ( 0.0000,  0.0000,  0.0000)
  25 Li     4.851109    8.085094   13.469871    ( 0.0000,  0.0000,  0.0000)
  26 Li     8.085259    8.085284   13.470149    ( 0.0000,  0.0000,  0.0000)
  27 Li    -0.000002   -0.000778   15.447050    ( 0.0000,  0.0000,  0.0000)
  28 Li     3.234514   -0.000355   15.445609    ( 0.0000,  0.0000,  0.0000)
  29 Li     6.467705   -0.000356   15.445594    ( 0.0000,  0.0000,  0.0000)
  30 Li    -0.000005    3.246246   15.415472    ( 0.0000,  0.0000,  0.0000)
  31 Li     3.234752    3.234384   15.445551    ( 0.0000,  0.0000,  0.0000)
  32 Li     6.467466    3.234386   15.445518    ( 0.0000,  0.0000,  0.0000)
  33 Li    -0.000003    6.468369   15.445646    ( 0.0000,  0.0000,  0.0000)
  34 Li     3.234023    6.468159   15.445747    ( 0.0000,  0.0000,  0.0000)
  35 Li     6.468203    6.468157   15.445744    ( 0.0000,  0.0000,  0.0000)
  36 O      0.000064    1.616799   21.445839    ( 0.0000,  0.0000,  0.0000)
  37 C     -0.004282    0.800972   22.628398    ( 0.0000,  0.0000,  0.0000)
  38 C      0.010275    1.618293   23.912605    ( 0.0000,  0.0000,  0.0000)
  39 H     -0.864385    0.116948   22.619617    ( 0.0000,  0.0000,  0.0000)
  40 H      0.898434    0.190564   22.552885    ( 0.0000,  0.0000,  0.0000)
  41 H      0.025583    0.967113   24.785599    ( 0.0000,  0.0000,  0.0000)
  42 H      0.887024    2.268867   23.947050    ( 0.0000,  0.0000,  0.0000)
  43 H     -0.882345    2.248358   23.982650    ( 0.0000,  0.0000,  0.0000)
  44 H     -0.768228    2.199934   21.484977    ( 0.0000,  0.0000,  0.0000)
  45 N      0.000016    1.582357   16.944665    ( 0.0000,  0.0000,  0.0000)
  46 N      0.000001    2.736490   16.978758    ( 0.0000,  0.0000,  0.0000)

Unit cell:
           periodic     x           y           z      points  spacing
  1. axis:    yes    9.702222    0.000000    0.000000    60     0.1617
  2. axis:    yes    0.000000    9.702222    0.000000    60     0.1617
  3. axis:    no     0.000000    0.000000   26.351111   164     0.1607

  Lengths:   9.702222   9.702222  26.351111
  Angles:   90.000000  90.000000  90.000000

Effective grid spacing dv^(1/3) = 0.1614

     iter     time        total  log10-change:
                         energy  eigst   dens
iter:   1 04:25:54  -312.836480  +0.32
iter:   2 04:29:55  -309.142074  +0.39  -0.96
iter:   3 04:33:18  -307.836425  -0.61  -1.05
iter:   4 04:36:52  -307.756501  -0.84  -1.49
Writing to output.gpw (mode='')

iter:   5 04:40:52  -307.710294  -1.43  -1.79
iter:   6 04:46:02  -307.910606  -1.14  -1.98
iter:   7 04:49:50  -307.687350  -1.08  -1.38
iter:   8 04:52:55  -307.694840  -1.59  -2.11
iter:   9 04:57:01  -307.694179c -1.97  -2.09
Writing to output.gpw (mode='')

iter:  10 04:59:53  -307.687383c -1.87  -2.11
iter:  11 05:02:53  -307.680743c -2.44  -2.31
iter:  12 05:06:19  -307.680531c -2.75  -2.60
iter:  13 05:09:59  -307.680097c -2.75  -2.69
iter:  14 05:15:07  -307.680339c -3.11  -2.97
Writing to output.gpw (mode='')

iter:  15 05:18:27  -307.680335c -3.11  -3.04
iter:  16 05:21:30  -307.680547c -3.18  -3.16
iter:  17 05:24:47  -307.680592c -3.33  -3.19
iter:  18 05:29:49  -307.680535c -3.57  -3.32
iter:  19 05:34:00  -307.680659c -3.66  -3.39
Writing to output.gpw (mode='')

iter:  20 05:37:19  -307.680609c -3.65  -3.43
iter:  21 05:40:02  -307.680668c -3.93  -3.68
iter:  22 05:43:26  -307.680672c -3.98  -3.70
iter:  23 05:48:42  -307.680668c -4.12  -3.89
iter:  24 05:53:55  -307.680676c -4.18  -3.99
Writing to output.gpw (mode='')

iter:  25 05:59:21  -307.680674c -4.20  -4.04c
iter:  26 06:04:40  -307.680687c -4.47  -4.10c
iter:  27 06:09:04  -307.680692c -4.54  -4.17c
iter:  28 06:15:39  -307.680685c -4.61  -4.22c
iter:  29 06:19:12  -307.680692c -4.67  -4.34c
Writing to output.gpw (mode='')

iter:  30 06:24:35  -307.680693c -4.83  -4.39c
iter:  31 06:29:41  -307.680689c -4.74  -4.43c
iter:  32 06:36:37  -307.680692c -4.88  -4.55c
iter:  33 06:42:24  -307.680693c -5.06  -4.57c
iter:  34 06:48:00  -307.680698c -5.11  -4.54c
Writing to output.gpw (mode='')

iter:  35 06:54:35  -307.680699c -5.03  -4.41c
iter:  36 06:59:46  -307.680698c -5.30  -4.39c
iter:  37 07:05:23  -307.680699c -5.35  -4.43c
iter:  38 07:13:46  -307.680700c -5.43  -4.40c
iter:  39 07:20:18  -307.680700c -5.42  -4.35c
Writing to output.gpw (mode='')

iter:  40 07:25:49  -307.680701c -5.60  -4.39c
iter:  41 07:32:54  -307.680700c -5.48  -4.37c
iter:  42 07:38:58  -307.680699c -5.56  -4.42c
iter:  43 07:43:00  -307.680697c -5.79  -4.54c
iter:  44 07:49:42  -307.680695c -5.75  -4.55c
Writing to output.gpw (mode='')

iter:  45 07:55:06  -307.680688c -5.77  -4.63c
iter:  46 07:59:42  -307.680692c -6.04  -4.72c
iter:  47 08:04:19  -307.680687c -6.10  -4.72c
iter:  48 08:08:40  -307.680688c -6.09  -4.92c
iter:  49 08:14:30  -307.680685c -5.81  -4.96c
Writing to output.gpw (mode='')

iter:  50 08:19:27  -307.680685c -6.14  -4.98c
iter:  51 08:23:20  -307.680684c -6.18  -5.09c
iter:  52 08:27:02  -307.680685c -6.33  -5.18c
iter:  53 08:30:54  -307.680686c -6.38  -5.23c
iter:  54 08:36:02  -307.680685c -6.49  -5.27c
Writing to output.gpw (mode='')

iter:  55 08:40:30  -307.680685c -6.59  -5.38c
iter:  56 08:44:44  -307.680685c -6.67  -5.55c
iter:  57 08:48:50  -307.680685c -6.68  -5.59c
iter:  58 08:54:40  -307.680685c -6.75  -5.60c
iter:  59 09:00:57  -307.680685c -6.94  -5.57c
Writing to output.gpw (mode='')

iter:  60 09:07:10  -307.680685c -6.84  -5.44c
iter:  61 09:12:27  -307.680685c -6.98  -5.45c
iter:  62 09:18:29  -307.680685c -7.03  -5.42c
iter:  63 09:24:56  -307.680685c -7.11  -5.42c
iter:  64 09:32:25  -307.680686c -7.01  -5.39c
Writing to output.gpw (mode='')

iter:  65 09:38:10  -307.680685c -7.12  -5.30c
iter:  66 09:45:31  -307.680685c -7.38  -5.39c
iter:  67 09:53:25  -307.680685c -7.38  -5.39c
iter:  68 10:00:31  -307.680685c -7.54c -5.31c

Converged after 68 iterations.

Dipole moment: (-21.520399, -9.409268, 0.350849) |e|*Ang

Energy contributions relative to reference atoms: (reference = -14434.854043)

Kinetic:       +154.060777
Potential:     -147.043768
External:        +0.000000
XC:            -315.391305
Entropy (-ST):   -0.157067
Local:           +0.772144
--------------------------
Free energy:   -307.759219
Extrapolated:  -307.680685

Dipole-layer corrected work functions: 3.405391, 2.730939 eV

Showing only first 2 kpts
 Kpt  Band  Eigenvalues  Occupancy
  0    31     -3.32399    1.98808
  0    32     -3.23653    1.93333
  0    33     -2.93531    0.13110
  0    34     -2.88088    0.04614

  1    31     -3.14222    1.62945
  1    32     -3.06152    0.93369
  1    33     -3.00012    0.40819
  1    34     -2.96451    0.22349


Fermi level: -3.06817

No gap
Writing to output.gpw (mode='')


Forces in eV/Ang:
  0 Li    0.01934   -0.00318   -0.27468
  1 Li    0.00009    0.00139   -0.27216
  2 Li   -0.01946   -0.00305   -0.27475
  3 Li   -0.00095    0.01945   -0.27562
  4 Li    0.00013   -0.00675   -0.26728
  5 Li    0.00084    0.01939   -0.27574
  6 Li   -0.00616   -0.01389   -0.26641
  7 Li    0.00001    0.00811   -0.28205
  8 Li    0.00614   -0.01393   -0.26669
  9 Li   -0.00005   -0.01137    0.27936
 10 Li    0.00721    0.00283    0.25982
 11 Li   -0.00706    0.00290    0.25972
 12 Li   -0.00009    0.00463    0.33059
 13 Li    0.00825   -0.00497    0.26004
 14 Li   -0.00820   -0.00498    0.25936
 15 Li    0.00006    0.00802    0.24221
 16 Li    0.00448    0.00295    0.24804
 17 Li   -0.00456    0.00277    0.24834
 18 Li    0.01452   -0.01683   -0.08755
 19 Li    0.00010    0.00601    0.07278
 20 Li   -0.01467   -0.01655   -0.08718
 21 Li    0.01120   -0.00165   -0.00168
 22 Li   -0.00006   -0.00300    0.05343
 23 Li   -0.01109   -0.00194   -0.00089
 24 Li   -0.00913    0.01066    0.05436
 25 Li   -0.00032   -0.01051    0.02181
 26 Li    0.00934    0.01071    0.05452
 27 Li   -0.00019   -0.04129    0.23266
 28 Li    0.05888   -0.05014   -0.03940
 29 Li   -0.05935   -0.05045   -0.04190
 30 Li   -0.00025    1.14300   -3.14848
 31 Li    0.08318    0.04133   -0.03774
 32 Li   -0.08391    0.04173   -0.04287
 33 Li   -0.00046    0.02590   -0.03698
 34 Li   -0.00512    0.00332   -0.02864
 35 Li    0.00558    0.00308   -0.02922
 36 O     0.00477   -0.02833    0.00034
 37 C     0.00438    0.06118   -0.02017
 38 C     0.00183   -0.07538   -0.09438
 39 H     0.01292    0.03047   -0.01419
 40 H    -0.01427    0.00557   -0.00964
 41 H    -0.01070    0.07272   -0.42172
 42 H    -0.02091   -0.02507   -0.03002
 43 H     0.01627   -0.02209   -0.01451
 44 H     0.00701   -0.01380   -0.02675
 45 N     0.00139    1.21776   -0.30762
 46 N    -0.00191   -2.37304    3.55540

System changes: positions 

Initializing position-dependent things.

Density initialized from wave functions
       .-----------------------.  
      /|                       |  
     / |                       |  
    /  |                       |  
   /   |                       |  
  /    |                       |  
 *     |                       |  
 |H    |                H      |  
 |C  H |                       |  
 |     |                       |  
 | H   |               H C     |  
 |O    |                H      |  
 |     |                       |  
 |     |       Li      Li      Li 
 |     |                       |  
 |     |     Li      Li      Li|  
 |N    |                   N   |  
 |     |  LLi     LLi     LLi  |  
 |     |                       |  
 |     |Li      Li      Li     |  
 |   Li|     Li      Li        |  
 |    Li  Li  Li  Li  Li  Li   |  
 | Li  |   Li      Li          |  
 |     |Li      Li      Li     |  
 Li    | Li      Li            |  
 |    Li      Li      Li       |  
 |     |                       |  
 |     |                       |  
 |     |                       |  
 |     |                       |  
 |     |                       |  
 |     |                       |  
 |     .-----------------------.  
 |    /                       /   
 |   /                       /    
 |  /                       /     
 | /                       /      
 |/                       /       
 *-----------------------*        

Positions:
   0 Li     1.617037    1.617037   10.000000    ( 0.0000,  0.0000,  0.0000)
   1 Li     4.851111    1.617037   10.000000    ( 0.0000,  0.0000,  0.0000)
   2 Li     8.085185    1.617037   10.000000    ( 0.0000,  0.0000,  0.0000)
   3 Li     1.617037    4.851111   10.000000    ( 0.0000,  0.0000,  0.0000)
   4 Li     4.851111    4.851111   10.000000    ( 0.0000,  0.0000,  0.0000)
   5 Li     8.085185    4.851111   10.000000    ( 0.0000,  0.0000,  0.0000)
   6 Li     1.617037    8.085185   10.000000    ( 0.0000,  0.0000,  0.0000)
   7 Li     4.851111    8.085185   10.000000    ( 0.0000,  0.0000,  0.0000)
   8 Li     8.085185    8.085185   10.000000    ( 0.0000,  0.0000,  0.0000)
   9 Li     0.000000    0.000000   11.617037    ( 0.0000,  0.0000,  0.0000)
  10 Li     3.234074    0.000000   11.617037    ( 0.0000,  0.0000,  0.0000)
  11 Li     6.468148    0.000000   11.617037    ( 0.0000,  0.0000,  0.0000)
  12 Li     0.000000    3.234074   11.617037    ( 0.0000,  0.0000,  0.0000)
  13 Li     3.234074    3.234074   11.617037    ( 0.0000,  0.0000,  0.0000)
  14 Li     6.468148    3.234074   11.617037    ( 0.0000,  0.0000,  0.0000)
  15 Li     0.000000    6.468148   11.617037    ( 0.0000,  0.0000,  0.0000)
  16 Li     3.234074    6.468148   11.617037    ( 0.0000,  0.0000,  0.0000)
  17 Li     6.468148    6.468148   11.617037    ( 0.0000,  0.0000,  0.0000)
  18 Li     1.617292    1.616803   13.468313    ( 0.0000,  0.0000,  0.0000)
  19 Li     4.851112    1.617141   13.470978    ( 0.0000,  0.0000,  0.0000)
  20 Li     8.084927    1.616807   13.468320    ( 0.0000,  0.0000,  0.0000)
  21 Li     1.617165    4.850971   13.469878    ( 0.0000,  0.0000,  0.0000)
  22 Li     4.851110    4.851094   13.470628    ( 0.0000,  0.0000,  0.0000)
  23 Li     8.085059    4.850966   13.469891    ( 0.0000,  0.0000,  0.0000)
  24 Li     1.616869    8.085400   13.470713    ( 0.0000,  0.0000,  0.0000)
  25 Li     4.851106    8.084982   13.470087    ( 0.0000,  0.0000,  0.0000)
  26 Li     8.085357    8.085401   13.470715    ( 0.0000,  0.0000,  0.0000)
  27 Li    -0.000005   -0.001370   15.449216    ( 0.0000,  0.0000,  0.0000)
  28 Li     3.235119   -0.000864   15.445192    ( 0.0000,  0.0000,  0.0000)
  29 Li     6.467096   -0.000867   15.445152    ( 0.0000,  0.0000,  0.0000)
  30 Li    -0.000009    3.259287   15.380643    ( 0.0000,  0.0000,  0.0000)
  31 Li     3.235626    3.234808   15.445126    ( 0.0000,  0.0000,  0.0000)
  32 Li     6.466586    3.234814   15.445042    ( 0.0000,  0.0000,  0.0000)
  33 Li    -0.000008    6.468645   15.445260    ( 0.0000,  0.0000,  0.0000)
  34 Li     3.233965    6.468189   15.445461    ( 0.0000,  0.0000,  0.0000)
  35 Li     6.468266    6.468184   15.445453    ( 0.0000,  0.0000,  0.0000)
  36 O      0.000124    1.616498   21.445806    ( 0.0000,  0.0000,  0.0000)
  37 C     -0.004242    0.801684   22.628263    ( 0.0000,  0.0000,  0.0000)
  38 C      0.010302    1.617146   23.911903    ( 0.0000,  0.0000,  0.0000)
  39 H     -0.864261    0.117253   22.619471    ( 0.0000,  0.0000,  0.0000)
  40 H      0.898303    0.190610   22.552786    ( 0.0000,  0.0000,  0.0000)
  41 H      0.025471    0.968081   24.781002    ( 0.0000,  0.0000,  0.0000)
  42 H      0.886855    2.268658   23.946742    ( 0.0000,  0.0000,  0.0000)
  43 H     -0.882228    2.248180   23.982504    ( 0.0000,  0.0000,  0.0000)
  44 H     -0.768176    2.199801   21.484727    ( 0.0000,  0.0000,  0.0000)
  45 N      0.000032    1.579236   16.941870    ( 0.0000,  0.0000,  0.0000)
  46 N     -0.000013    2.726619   17.017521    ( 0.0000,  0.0000,  0.0000)

Unit cell:
           periodic     x           y           z      points  spacing
  1. axis:    yes    9.702222    0.000000    0.000000    60     0.1617
  2. axis:    yes    0.000000    9.702222    0.000000    60     0.1617
  3. axis:    no     0.000000    0.000000   26.351111   164     0.1607

  Lengths:   9.702222   9.702222  26.351111
  Angles:   90.000000  90.000000  90.000000

Effective grid spacing dv^(1/3) = 0.1614

     iter     time        total  log10-change:
                         energy  eigst   dens
iter:   1 10:08:09  -307.923002  -1.06
iter:   2 10:13:58  -307.923862  -1.79  -2.34
iter:   3 10:18:35  -307.923956c -2.18  -2.42
iter:   4 10:24:39  -307.922203c -2.39  -2.45
Writing to output.gpw (mode='')

iter:   5 10:31:17  -307.921834c -2.31  -2.57
iter:   6 10:36:44  -307.921672c -2.91  -2.68
iter:   7 10:41:38  -307.921269c -2.90  -2.75
iter:   8 10:47:29  -307.921319c -3.58  -2.88
iter:   9 10:53:14  -307.921156c -3.57  -2.97
Writing to output.gpw (mode='')

iter:  10 10:59:27  -307.921258c -3.51  -3.20
iter:  11 11:05:56  -307.921188c -3.94  -3.27
iter:  12 11:10:48  -307.921201c -4.26  -3.29
iter:  13 11:16:11  -307.921250c -4.02  -3.35
iter:  14 11:22:29  -307.921215c -4.53  -3.53
Writing to output.gpw (mode='')

iter:  15 11:28:38  -307.921209c -4.86  -3.81
iter:  16 11:34:34  -307.921195c -4.89  -3.84
iter:  17 11:42:55  -307.921204c -5.17  -4.11c
iter:  18 11:47:43  -307.921203c -5.33  -4.11c
iter:  19 11:51:47  -307.921206c -5.54  -4.12c
Writing to output.gpw (mode='')

iter:  20 11:57:32  -307.921203c -5.49  -4.22c
iter:  21 12:04:27  -307.921205c -5.59  -4.40c
iter:  22 12:09:29  -307.921204c -5.72  -4.37c
iter:  23 12:14:05  -307.921203c -5.54  -4.44c
iter:  24 12:20:41  -307.921205c -6.03  -4.57c
Writing to output.gpw (mode='')

iter:  25 12:24:55  -307.921203c -5.95  -4.63c
iter:  26 12:29:21  -307.921203c -6.25  -4.66c
iter:  27 12:32:52  -307.921201c -6.37  -4.88c
iter:  28 12:36:03  -307.921202c -6.41  -4.95c
iter:  29 12:39:19  -307.921202c -6.41  -5.07c
Writing to output.gpw (mode='')

iter:  30 12:43:43  -307.921202c -6.71  -5.15c
iter:  31 12:48:00  -307.921202c -6.71  -5.18c
iter:  32 12:52:39  -307.921202c -6.76  -5.33c
iter:  33 12:59:06  -307.921202c -6.81  -5.48c
iter:  34 13:03:59  -307.921202c -6.98  -5.48c
Writing to output.gpw (mode='')

iter:  35 13:09:30  -307.921202c -7.07  -5.49c
iter:  36 13:14:48  -307.921202c -7.10  -5.49c
iter:  37 13:20:54  -307.921202c -7.07  -5.47c
iter:  38 13:28:53  -307.921202c -7.18  -5.42c
iter:  39 13:39:21  -307.921202c -7.39  -5.41c
Writing to output.gpw (mode='')

iter:  40 13:47:26  -307.921202c -7.54c -5.44c

Converged after 40 iterations.

Dipole moment: (-21.513292, -9.405315, 0.352085) |e|*Ang

Energy contributions relative to reference atoms: (reference = -14434.854043)

Kinetic:       +153.267161
Potential:     -146.639748
External:        +0.000000
XC:            -315.237954
Entropy (-ST):   -0.155481
Local:           +0.767080
--------------------------
Free energy:   -307.998943
Extrapolated:  -307.921202

Dipole-layer corrected work functions: 3.405219, 2.728391 eV

Showing only first 2 kpts
 Kpt  Band  Eigenvalues  Occupancy
  0    31     -3.32441    1.98849
  0    32     -3.24329    1.94304
  0    33     -2.92152    0.10374
  0    34     -2.88665    0.05303

  1    31     -3.13388    1.58545
  1    32     -3.06253    0.95730
  1    33     -3.00356    0.44027
  1    34     -2.96243    0.22064


Fermi level: -3.06680

No gap

Forces in eV/Ang:
  0 Li    0.01919   -0.00350   -0.27484
  1 Li    0.00010    0.00140   -0.27113
  2 Li   -0.01931   -0.00338   -0.27492
  3 Li   -0.00162    0.02022   -0.27634
  4 Li    0.00013   -0.00621   -0.26774
  5 Li    0.00151    0.02016   -0.27645
  6 Li   -0.00660   -0.01438   -0.26602
  7 Li    0.00002    0.00837   -0.28359
  8 Li    0.00659   -0.01441   -0.26631
  9 Li   -0.00005   -0.01142    0.28073
 10 Li    0.01018    0.00168    0.25863
 11 Li   -0.01004    0.00176    0.25854
 12 Li   -0.00010    0.00412    0.33559
 13 Li    0.00898   -0.00447    0.26090
 14 Li   -0.00892   -0.00448    0.26020
 15 Li    0.00006    0.00942    0.24004
 16 Li    0.00420    0.00293    0.24847
 17 Li   -0.00429    0.00273    0.24875
 18 Li    0.01721   -0.02135   -0.08853
 19 Li    0.00008    0.00539    0.07165
 20 Li   -0.01735   -0.02105   -0.08821
 21 Li    0.01599    0.00612   -0.00879
 22 Li   -0.00006   -0.00171    0.05192
 23 Li   -0.01590    0.00584   -0.00803
 24 Li   -0.00844    0.01129    0.05376
 25 Li   -0.00033   -0.01110    0.02124
 26 Li    0.00866    0.01132    0.05393
 27 Li   -0.00019   -0.02951    0.22446
 28 Li    0.05864   -0.04871   -0.04106
 29 Li   -0.05912   -0.04902   -0.04349
 30 Li    0.00007    0.74845   -2.08638
 31 Li    0.08535    0.04055   -0.04086
 32 Li   -0.08611    0.04095   -0.04596
 33 Li   -0.00045    0.02339   -0.03531
 34 Li   -0.00765    0.00286   -0.02814
 35 Li    0.00812    0.00264   -0.02871
 36 O     0.00025   -0.01441   -0.01052
 37 C     0.00572    0.01897   -0.03917
 38 C    -0.00289    0.05220   -0.17808
 39 H     0.01478    0.03203   -0.01465
 40 H    -0.01754    0.00896   -0.00978
 41 H    -0.00833   -0.01311   -0.29905
 42 H    -0.02737   -0.03342   -0.03034
 43 H     0.02548   -0.03192   -0.01695
 44 H     0.01133   -0.01529   -0.02843
 45 N     0.00168    0.99177   -0.30421
 46 N    -0.00270   -1.77534    2.48703

System changes: positions 

Initializing position-dependent things.

Density initialized from wave functions
       .-----------------------.  
      /|                       |  
     / |                       |  
    /  |                       |  
   /   |                       |  
  /    |                       |  
 *     |                       |  
 |H    |                H      |  
 |C  H |                       |  
 |     |                       |  
 | H   |               H C     |  
 |O    |                H      |  
 |     |                       |  
 |     |       Li      Li      Li 
 |     |                       |  
 |     |     Li      Li      Li|  
 |N    |                   N   |  
 |     |  LLi     LLi     LLi  |  
 |     |                       |  
 |     |Li      Li      Li     |  
 |   Li|     Li      Li        |  
 |    Li  Li  Li  Li  Li  Li   |  
 | Li  |   Li      Li          |  
 |     |Li      Li      Li     |  
 Li    | Li      Li            |  
 |    Li      Li      Li       |  
 |     |                       |  
 |     |                       |  
 |     |                       |  
 |     |                       |  
 |     |                       |  
 |     |                       |  
 |     .-----------------------.  
 |    /                       /   
 |   /                       /    
 |  /                       /     
 | /                       /      
 |/                       /       
 *-----------------------*        

Positions:
   0 Li     1.617037    1.617037   10.000000    ( 0.0000,  0.0000,  0.0000)
   1 Li     4.851111    1.617037   10.000000    ( 0.0000,  0.0000,  0.0000)
   2 Li     8.085185    1.617037   10.000000    ( 0.0000,  0.0000,  0.0000)
   3 Li     1.617037    4.851111   10.000000    ( 0.0000,  0.0000,  0.0000)
   4 Li     4.851111    4.851111   10.000000    ( 0.0000,  0.0000,  0.0000)
   5 Li     8.085185    4.851111   10.000000    ( 0.0000,  0.0000,  0.0000)
   6 Li     1.617037    8.085185   10.000000    ( 0.0000,  0.0000,  0.0000)
   7 Li     4.851111    8.085185   10.000000    ( 0.0000,  0.0000,  0.0000)
   8 Li     8.085185    8.085185   10.000000    ( 0.0000,  0.0000,  0.0000)
   9 Li     0.000000    0.000000   11.617037    ( 0.0000,  0.0000,  0.0000)
  10 Li     3.234074    0.000000   11.617037    ( 0.0000,  0.0000,  0.0000)
  11 Li     6.468148    0.000000   11.617037    ( 0.0000,  0.0000,  0.0000)
  12 Li     0.000000    3.234074   11.617037    ( 0.0000,  0.0000,  0.0000)
  13 Li     3.234074    3.234074   11.617037    ( 0.0000,  0.0000,  0.0000)
  14 Li     6.468148    3.234074   11.617037    ( 0.0000,  0.0000,  0.0000)
  15 Li     0.000000    6.468148   11.617037    ( 0.0000,  0.0000,  0.0000)
  16 Li     3.234074    6.468148   11.617037    ( 0.0000,  0.0000,  0.0000)
  17 Li     6.468148    6.468148   11.617037    ( 0.0000,  0.0000,  0.0000)
  18 Li     1.617580    1.616458   13.466916    ( 0.0000,  0.0000,  0.0000)
  19 Li     4.851114    1.617225   13.472121    ( 0.0000,  0.0000,  0.0000)
  20 Li     8.084637    1.616467   13.466928    ( 0.0000,  0.0000,  0.0000)
  21 Li     1.617422    4.851068   13.469760    ( 0.0000,  0.0000,  0.0000)
  22 Li     4.851108    4.851082   13.471449    ( 0.0000,  0.0000,  0.0000)
  23 Li     8.084804    4.851058   13.469785    ( 0.0000,  0.0000,  0.0000)
  24 Li     1.616733    8.085594   13.471587    ( 0.0000,  0.0000,  0.0000)
  25 Li     4.851101    8.084796   13.470420    ( 0.0000,  0.0000,  0.0000)
  26 Li     8.085496    8.085595   13.471591    ( 0.0000,  0.0000,  0.0000)
  27 Li    -0.000008   -0.001986   15.452573    ( 0.0000,  0.0000,  0.0000)
  28 Li     3.236068   -0.001639   15.444507    ( 0.0000,  0.0000,  0.0000)
  29 Li     6.466140   -0.001647   15.444429    ( 0.0000,  0.0000,  0.0000)
  30 Li    -0.000007    3.271308   15.348237    ( 0.0000,  0.0000,  0.0000)
  31 Li     3.237037    3.235461   15.444411    ( 0.0000,  0.0000,  0.0000)
  32 Li     6.465162    3.235473   15.444247    ( 0.0000,  0.0000,  0.0000)
  33 Li    -0.000016    6.469024   15.444688    ( 0.0000,  0.0000,  0.0000)
  34 Li     3.233825    6.468229   15.445016    ( 0.0000,  0.0000,  0.0000)
  35 Li     6.468413    6.468220   15.444999    ( 0.0000,  0.0000,  0.0000)
  36 O      0.000122    1.616309   21.445554    ( 0.0000,  0.0000,  0.0000)
  37 C     -0.004151    0.801921   22.627635    ( 0.0000,  0.0000,  0.0000)
  38 C      0.010248    1.618075   23.908989    ( 0.0000,  0.0000,  0.0000)
  39 H     -0.864024    0.117769   22.619232    ( 0.0000,  0.0000,  0.0000)
  40 H      0.898024    0.190756   22.552627    ( 0.0000,  0.0000,  0.0000)
  41 H      0.025343    0.967780   24.776344    ( 0.0000,  0.0000,  0.0000)
  42 H      0.886436    2.268137   23.946251    ( 0.0000,  0.0000,  0.0000)
  43 H     -0.881836    2.247679   23.982224    ( 0.0000,  0.0000,  0.0000)
  44 H     -0.767998    2.199557   21.484288    ( 0.0000,  0.0000,  0.0000)
  45 N      0.000063    1.577242   16.937360    ( 0.0000,  0.0000,  0.0000)
  46 N     -0.000054    2.716127   17.056120    ( 0.0000,  0.0000,  0.0000)

Unit cell:
           periodic     x           y           z      points  spacing
  1. axis:    yes    9.702222    0.000000    0.000000    60     0.1617
  2. axis:    yes    0.000000    9.702222    0.000000    60     0.1617
  3. axis:    no     0.000000    0.000000   26.351111   164     0.1607

  Lengths:   9.702222   9.702222  26.351111
  Angles:   90.000000  90.000000  90.000000

Effective grid spacing dv^(1/3) = 0.1614

     iter     time        total  log10-change:
                         energy  eigst   dens
iter:   1 13:54:39  -308.087414  -1.10
iter:   2 14:01:06  -308.089128  -1.79  -2.41
iter:   3 14:06:23  -308.089015c -2.17  -2.47
iter:   4 14:10:07  -308.087533c -2.35  -2.50
Writing to output.gpw (mode='')

iter:   5 14:14:36  -308.087100c -2.36  -2.60
iter:   6 14:20:19  -308.087114c -2.90  -2.74
iter:   7 14:26:37  -308.086848c -2.97  -2.80
iter:   8 14:30:31  -308.086814c -3.63  -2.90
iter:   9 14:35:12  -308.086687c -3.38  -3.03
Writing to output.gpw (mode='')

iter:  10 14:43:24  -308.086655c -3.90  -3.21
iter:  11 14:48:07  -308.086670c -3.96  -3.37
iter:  12 14:57:51  -308.086701c -4.18  -3.48
iter:  13 15:05:46  -308.086696c -4.62  -3.65
iter:  14 15:14:21  -308.086692c -4.71  -3.67
Writing to output.gpw (mode='')

iter:  15 15:23:41  -308.086684c -4.82  -3.83
iter:  16 15:32:05  -308.086697c -4.89  -3.96
iter:  17 15:38:26  -308.086695c -5.29  -3.97
iter:  18 15:44:02  -308.086675c -5.13  -4.00
iter:  19 15:50:07  -308.086676c -5.57  -4.20c
Writing to output.gpw (mode='')

iter:  20 15:55:43  -308.086686c -5.40  -4.38c
iter:  21 16:00:49  -308.086680c -5.76  -4.38c
iter:  22 16:05:23  -308.086682c -5.74  -4.46c
iter:  23 16:10:31  -308.086681c -5.75  -4.54c
iter:  24 16:15:28  -308.086681c -6.13  -4.64c
Writing to output.gpw (mode='')

iter:  25 16:22:56  -308.086682c -6.07  -4.71c
iter:  26 16:28:41  -308.086681c -6.05  -4.77c
iter:  27 16:34:10  -308.086682c -6.14  -4.90c
iter:  28 16:41:27  -308.086682c -6.47  -4.97c
iter:  29 16:48:36  -308.086682c -6.39  -5.07c
Writing to output.gpw (mode='')

iter:  30 16:53:50  -308.086681c -6.59  -5.09c
iter:  31 17:01:06  -308.086681c -6.76  -5.10c
iter:  32 17:08:20  -308.086681c -6.82  -5.18c
iter:  33 17:12:39  -308.086681c -6.98  -5.20c
iter:  34 17:17:32  -308.086681c -7.07  -5.43c
Writing to output.gpw (mode='')

iter:  35 17:20:45  -308.086681c -7.07  -5.43c
iter:  36 17:24:14  -308.086681c -6.97  -5.45c
iter:  37 17:28:11  -308.086681c -7.10  -5.46c
iter:  38 17:32:15  -308.086680c -7.39  -5.48c
iter:  39 17:35:08  -308.086681c -7.56c -5.81c

Converged after 39 iterations.

Dipole moment: (-21.501707, -9.396101, 0.353182) |e|*Ang

Energy contributions relative to reference atoms: (reference = -14434.854043)

Kinetic:       +152.909088
Potential:     -146.525597
External:        +0.000000
XC:            -315.157660
Entropy (-ST):   -0.153633
Local:           +0.764305
--------------------------
Free energy:   -308.163497
Extrapolated:  -308.086681

Dipole-layer corrected work functions: 3.404809, 2.725872 eV

Showing only first 2 kpts
 Kpt  Band  Eigenvalues  Occupancy
  0    31     -3.32441    1.98882
  0    32     -3.24846    1.94994
  0    33     -2.91315    0.09098
  0    34     -2.88561    0.05347

  1    31     -3.12687    1.54781
  1    32     -3.06331    0.97967
  1    33     -3.00570    0.46554
  1    34     -2.95979    0.21605


Fermi level: -3.06534

No gap
Writing to output.gpw (mode='')


Forces in eV/Ang:
  0 Li    0.01916   -0.00372   -0.27503
  1 Li    0.00010    0.00133   -0.27023
  2 Li   -0.01928   -0.00360   -0.27512
  3 Li   -0.00222    0.02076   -0.27701
  4 Li    0.00013   -0.00584   -0.26826
  5 Li    0.00212    0.02069   -0.27712
  6 Li   -0.00685   -0.01476   -0.26571
  7 Li    0.00002    0.00845   -0.28497
  8 Li    0.00684   -0.01478   -0.26601
  9 Li   -0.00005   -0.01153    0.28228
 10 Li    0.01339    0.00042    0.25752
 11 Li   -0.01325    0.00049    0.25746
 12 Li   -0.00010    0.00360    0.33959
 13 Li    0.00996   -0.00368    0.26178
 14 Li   -0.00989   -0.00369    0.26108
 15 Li    0.00006    0.01032    0.23820
 16 Li    0.00364    0.00294    0.24926
 17 Li   -0.00373    0.00273    0.24955
 18 Li    0.01976   -0.02528   -0.08847
 19 Li    0.00006    0.00494    0.06974
 20 Li   -0.01989   -0.02498   -0.08819
 21 Li    0.02060    0.01339   -0.01552
 22 Li   -0.00008   -0.00011    0.04947
 23 Li   -0.02053    0.01312   -0.01482
 24 Li   -0.00817    0.01210    0.05271
 25 Li   -0.00034   -0.01193    0.02023
 26 Li    0.00839    0.01212    0.05288
 27 Li   -0.00018   -0.01357    0.21730
 28 Li    0.05791   -0.04692   -0.04196
 29 Li   -0.05837   -0.04723   -0.04431
 30 Li    0.00032    0.47075   -1.34487
 31 Li    0.08517    0.03938   -0.04298
 32 Li   -0.08594    0.03977   -0.04802
 33 Li   -0.00044    0.02003   -0.03281
 34 Li   -0.00956    0.00247   -0.02716
 35 Li    0.01002    0.00227   -0.02773
 36 O     0.00773   -0.01541   -0.03770
 37 C     0.00151    0.02467   -0.06123
 38 C    -0.00687    0.02216   -0.14232
 39 H     0.00747    0.02488   -0.01448
 40 H    -0.00878    0.00434   -0.01068
 41 H    -0.00592   -0.02531   -0.26582
 42 H    -0.00203   -0.01053   -0.03788
 43 H     0.00164   -0.01129   -0.02589
 44 H     0.00537   -0.01036   -0.02843
 45 N     0.00192    0.72279   -0.33057
 46 N    -0.00318   -1.16520    1.83176

System changes: positions 

Initializing position-dependent things.

Density initialized from wave functions
       .-----------------------.  
      /|                       |  
     / |                       |  
    /  |                       |  
   /   |                       |  
  /    |                       |  
 *     |                       |  
 |H    |                H      |  
 |C  H |                       |  
 |     |                       |  
 | H   |               H C     |  
 |O    |                H      |  
 |     |                       |  
 |     |       Li      Li      Li 
 |     |                       |  
 |     |     Li      Li      Li|  
 |N    |                   N   |  
 |     |  LLi     LLi     LLi  |  
 |     |                       |  
 |     |Li      Li      Li     |  
 |   Li|     Li      Li        |  
 |    Li  Li  Li  Li  Li  Li   |  
 | Li  |   Li      Li          |  
 |     |Li      Li      Li     |  
 Li    | Li      Li            |  
 |    Li      Li      Li       |  
 |     |                       |  
 |     |                       |  
 |     |                       |  
 |     |                       |  
 |     |                       |  
 |     |                       |  
 |     .-----------------------.  
 |    /                       /   
 |   /                       /    
 |  /                       /     
 | /                       /      
 |/                       /       
 *-----------------------*        

Positions:
   0 Li     1.617037    1.617037   10.000000    ( 0.0000,  0.0000,  0.0000)
   1 Li     4.851111    1.617037   10.000000    ( 0.0000,  0.0000,  0.0000)
   2 Li     8.085185    1.617037   10.000000    ( 0.0000,  0.0000,  0.0000)
   3 Li     1.617037    4.851111   10.000000    ( 0.0000,  0.0000,  0.0000)
   4 Li     4.851111    4.851111   10.000000    ( 0.0000,  0.0000,  0.0000)
   5 Li     8.085185    4.851111   10.000000    ( 0.0000,  0.0000,  0.0000)
   6 Li     1.617037    8.085185   10.000000    ( 0.0000,  0.0000,  0.0000)
   7 Li     4.851111    8.085185   10.000000    ( 0.0000,  0.0000,  0.0000)
   8 Li     8.085185    8.085185   10.000000    ( 0.0000,  0.0000,  0.0000)
   9 Li     0.000000    0.000000   11.617037    ( 0.0000,  0.0000,  0.0000)
  10 Li     3.234074    0.000000   11.617037    ( 0.0000,  0.0000,  0.0000)
  11 Li     6.468148    0.000000   11.617037    ( 0.0000,  0.0000,  0.0000)
  12 Li     0.000000    3.234074   11.617037    ( 0.0000,  0.0000,  0.0000)
  13 Li     3.234074    3.234074   11.617037    ( 0.0000,  0.0000,  0.0000)
  14 Li     6.468148    3.234074   11.617037    ( 0.0000,  0.0000,  0.0000)
  15 Li     0.000000    6.468148   11.617037    ( 0.0000,  0.0000,  0.0000)
  16 Li     3.234074    6.468148   11.617037    ( 0.0000,  0.0000,  0.0000)
  17 Li     6.468148    6.468148   11.617037    ( 0.0000,  0.0000,  0.0000)
  18 Li     1.618005    1.615928   13.465061    ( 0.0000,  0.0000,  0.0000)
  19 Li     4.851115    1.617328   13.473599    ( 0.0000,  0.0000,  0.0000)
  20 Li     8.084209    1.615943   13.465079    ( 0.0000,  0.0000,  0.0000)
  21 Li     1.617849    4.851335   13.469466    ( 0.0000,  0.0000,  0.0000)
  22 Li     4.851107    4.851092   13.472491    ( 0.0000,  0.0000,  0.0000)
  23 Li     8.084378    4.851321   13.469506    ( 0.0000,  0.0000,  0.0000)
  24 Li     1.616558    8.085860   13.472718    ( 0.0000,  0.0000,  0.0000)
  25 Li     4.851094    8.084537   13.470844    ( 0.0000,  0.0000,  0.0000)
  26 Li     8.085675    8.085862   13.472726    ( 0.0000,  0.0000,  0.0000)
  27 Li    -0.000012   -0.002443   15.456965    ( 0.0000,  0.0000,  0.0000)
  28 Li     3.237306   -0.002633   15.443594    ( 0.0000,  0.0000,  0.0000)
  29 Li     6.464893   -0.002647   15.443467    ( 0.0000,  0.0000,  0.0000)
  30 Li    -0.000001    3.281887   15.319170    ( 0.0000,  0.0000,  0.0000)
  31 Li     3.238884    3.236301   15.443447    ( 0.0000,  0.0000,  0.0000)
  32 Li     6.463299    3.236322   15.443178    ( 0.0000,  0.0000,  0.0000)
  33 Li    -0.000025    6.469460   15.443981    ( 0.0000,  0.0000,  0.0000)
  34 Li     3.233610    6.468276   15.444444    ( 0.0000,  0.0000,  0.0000)
  35 Li     6.468638    6.468264   15.444416    ( 0.0000,  0.0000,  0.0000)
  36 O      0.000266    1.616022   21.444729    ( 0.0000,  0.0000,  0.0000)
  37 C     -0.004111    0.802372   22.626381    ( 0.0000,  0.0000,  0.0000)
  38 C      0.010102    1.618679   23.905855    ( 0.0000,  0.0000,  0.0000)
  39 H     -0.863851    0.118312   22.618920    ( 0.0000,  0.0000,  0.0000)
  40 H      0.897822    0.190859   22.552400    ( 0.0000,  0.0000,  0.0000)
  41 H      0.025217    0.967188   24.770761    ( 0.0000,  0.0000,  0.0000)
  42 H      0.886364    2.267884   23.945457    ( 0.0000,  0.0000,  0.0000)
  43 H     -0.881770    2.247411   23.981685    ( 0.0000,  0.0000,  0.0000)
  44 H     -0.767876    2.199329   21.483701    ( 0.0000,  0.0000,  0.0000)
  45 N      0.000107    1.576107   16.930750    ( 0.0000,  0.0000,  0.0000)
  46 N     -0.000118    2.707255   17.095124    ( 0.0000,  0.0000,  0.0000)

Unit cell:
           periodic     x           y           z      points  spacing
  1. axis:    yes    9.702222    0.000000    0.000000    60     0.1617
  2. axis:    yes    0.000000    9.702222    0.000000    60     0.1617
  3. axis:    no     0.000000    0.000000   26.351111   164     0.1607

  Lengths:   9.702222   9.702222  26.351111
  Angles:   90.000000  90.000000  90.000000

Effective grid spacing dv^(1/3) = 0.1614

     iter     time        total  log10-change:
                         energy  eigst   dens
iter:   1 17:38:49  -308.201355  -1.11
iter:   2 17:42:25  -308.204537  -1.66  -2.18
iter:   3 17:45:59  -308.200873c -2.21  -2.21
iter:   4 17:49:18  -308.200409c -2.46  -2.53
Writing to output.gpw (mode='')

iter:   5 17:52:11  -308.199388c -2.31  -2.60
iter:   6 17:57:35  -308.198711c -2.89  -2.72
iter:   7 18:03:08  -308.198615c -3.20  -2.86
iter:   8 18:08:01  -308.198672c -3.19  -3.05
iter:   9 18:13:45  -308.198590c -3.71  -3.07
Writing to output.gpw (mode='')

iter:  10 18:17:16  -308.198607c -3.89  -3.37
iter:  11 18:23:51  -308.198639c -4.02  -3.35
iter:  12 18:28:15  -308.198608c -4.32  -3.49
iter:  13 18:32:03  -308.198613c -4.37  -3.60
iter:  14 18:36:20  -308.198606c -4.78  -3.63
Writing to output.gpw (mode='')

iter:  15 18:41:26  -308.198589c -4.73  -3.68
iter:  16 18:46:12  -308.198589c -5.14  -4.00c
iter:  17 18:55:55  -308.198592c -5.16  -4.08c
iter:  18 19:06:00  -308.198592c -5.24  -4.09c
iter:  19 19:11:23  -308.198591c -5.46  -4.20c
Writing to output.gpw (mode='')

iter:  20 19:13:28  -308.198592c -5.57  -4.34c
iter:  21 19:15:22  -308.198594c -5.63  -4.38c
iter:  22 19:17:12  -308.198594c -5.79  -4.43c
iter:  23 19:18:50  -308.198594c -5.84  -4.45c
iter:  24 19:20:47  -308.198591c -6.21  -4.54c
Writing to output.gpw (mode='')

iter:  25 19:22:41  -308.198590c -6.08  -4.62c
iter:  26 19:24:36  -308.198592c -6.11  -4.75c
iter:  27 19:26:30  -308.198592c -6.51  -4.74c
iter:  28 19:28:23  -308.198593c -6.61  -5.08c
iter:  29 19:30:20  -308.198593c -6.66  -5.21c
Writing to output.gpw (mode='')

iter:  30 19:32:14  -308.198592c -6.71  -5.25c
iter:  31 19:34:06  -308.198592c -6.52  -5.33c
iter:  32 19:35:59  -308.198593c -6.56  -5.45c
iter:  33 19:37:50  -308.198592c -6.91  -5.47c
iter:  34 19:39:34  -308.198592c -6.98  -5.47c
Writing to output.gpw (mode='')

iter:  35 19:41:31  -308.198592c -7.03  -5.54c
iter:  36 19:43:22  -308.198592c -7.16  -5.57c
iter:  37 19:45:13  -308.198592c -7.24  -5.59c
iter:  38 19:47:45  -308.198592c -7.56c -5.52c

Converged after 38 iterations.

Dipole moment: (-21.494658, -9.376044, 0.350830) |e|*Ang

Energy contributions relative to reference atoms: (reference = -14434.854043)

Kinetic:       +152.476335
Potential:     -146.301651
External:        +0.000000
XC:            -315.060036
Entropy (-ST):   -0.151871
Local:           +0.762695
--------------------------
Free energy:   -308.274528
Extrapolated:  -308.198592

Dipole-layer corrected work functions: 3.404419, 2.730004 eV

Showing only first 2 kpts
 Kpt  Band  Eigenvalues  Occupancy
  0    31     -3.32714    1.98901
  0    32     -3.25563    1.95486
  0    33     -2.91409    0.08936
  0    34     -2.88310    0.04910

  1    31     -3.12499    1.52103
  1    32     -3.06689    0.99678
  1    33     -3.01007    0.48358
  1    34     -2.95968    0.20856


Fermi level: -3.06721

No gap
Writing to output.gpw (mode='')


Forces in eV/Ang:
  0 Li    0.01921   -0.00388   -0.27524
  1 Li    0.00010    0.00112   -0.26952
  2 Li   -0.01932   -0.00377   -0.27533
  3 Li   -0.00270    0.02114   -0.27770
  4 Li    0.00012   -0.00560   -0.26876
  5 Li    0.00261    0.02108   -0.27781
  6 Li   -0.00694   -0.01505   -0.26549
  7 Li    0.00003    0.00840   -0.28616
  8 Li    0.00693   -0.01507   -0.26579
  9 Li   -0.00005   -0.01190    0.28380
 10 Li    0.01663   -0.00088    0.25665
 11 Li   -0.01650   -0.00080    0.25660
 12 Li   -0.00011    0.00316    0.34276
 13 Li    0.01106   -0.00281    0.26278
 14 Li   -0.01096   -0.00282    0.26209
 15 Li    0.00005    0.01086    0.23679
 16 Li    0.00310    0.00310    0.25021
 17 Li   -0.00320    0.00289    0.25051
 18 Li    0.02173   -0.02860   -0.08740
 19 Li    0.00003    0.00461    0.06705
 20 Li   -0.02185   -0.02831   -0.08719
 21 Li    0.02498    0.02014   -0.02213
 22 Li   -0.00010    0.00154    0.04647
 23 Li   -0.02492    0.01989   -0.02148
 24 Li   -0.00822    0.01291    0.05110
 25 Li   -0.00035   -0.01266    0.01884
 26 Li    0.00844    0.01293    0.05128
 27 Li   -0.00013    0.00884    0.21381
 28 Li    0.05661   -0.04489   -0.04189
 29 Li   -0.05706   -0.04522   -0.04418
 30 Li    0.00050    0.27468   -0.83015
 31 Li    0.08268    0.03774   -0.04357
 32 Li   -0.08346    0.03814   -0.04854
 33 Li   -0.00042    0.01624   -0.02951
 34 Li   -0.01069    0.00222   -0.02588
 35 Li    0.01115    0.00205   -0.02646
 36 O     0.00341   -0.00802   -0.06182
 37 C     0.00340    0.01838   -0.07599
 38 C    -0.00537    0.02921   -0.12132
 39 H     0.00205    0.01976   -0.01773
 40 H    -0.00516    0.00313   -0.01348
 41 H    -0.00231   -0.04782   -0.21639
 42 H     0.00599   -0.00120   -0.04454
 43 H    -0.01003   -0.00058   -0.03437
 44 H     0.00939   -0.01111   -0.03196
 45 N     0.00205    0.65317   -0.34156
 46 N    -0.00344   -0.97415    1.32546

System changes: positions 

Initializing position-dependent things.

Density initialized from wave functions
       .-----------------------.  
      /|                       |  
     / |                       |  
    /  |                       |  
   /   |                       |  
  /    |                       |  
 *     |                       |  
 |H    |                H      |  
 |C  H |                       |  
 |     |                       |  
 | H   |               H C     |  
 |O    |                H      |  
 |     |                       |  
 |     |       Li      Li      Li 
 |     |                       |  
 |     |     Li      Li      Li|  
 |N    |                   N   |  
 | Li  |  LLi     LLi     Li   |  
 |     |                       |  
 |     |Li      Li      Li     |  
 |   Li|     Li      Li        |  
 |    Li  Li  Li  Li  Li  Li   |  
 | Li  |   Li      Li          |  
 |     |Li      Li      Li     |  
 Li    | Li      Li            |  
 |    Li      Li      Li       |  
 |     |                       |  
 |     |                       |  
 |     |                       |  
 |     |                       |  
 |     |                       |  
 |     |                       |  
 |     .-----------------------.  
 |    /                       /   
 |   /                       /    
 |  /                       /     
 | /                       /      
 |/                       /       
 *-----------------------*        

Positions:
   0 Li     1.617037    1.617037   10.000000    ( 0.0000,  0.0000,  0.0000)
   1 Li     4.851111    1.617037   10.000000    ( 0.0000,  0.0000,  0.0000)
   2 Li     8.085185    1.617037   10.000000    ( 0.0000,  0.0000,  0.0000)
   3 Li     1.617037    4.851111   10.000000    ( 0.0000,  0.0000,  0.0000)
   4 Li     4.851111    4.851111   10.000000    ( 0.0000,  0.0000,  0.0000)
   5 Li     8.085185    4.851111   10.000000    ( 0.0000,  0.0000,  0.0000)
   6 Li     1.617037    8.085185   10.000000    ( 0.0000,  0.0000,  0.0000)
   7 Li     4.851111    8.085185   10.000000    ( 0.0000,  0.0000,  0.0000)
   8 Li     8.085185    8.085185   10.000000    ( 0.0000,  0.0000,  0.0000)
   9 Li     0.000000    0.000000   11.617037    ( 0.0000,  0.0000,  0.0000)
  10 Li     3.234074    0.000000   11.617037    ( 0.0000,  0.0000,  0.0000)
  11 Li     6.468148    0.000000   11.617037    ( 0.0000,  0.0000,  0.0000)
  12 Li     0.000000    3.234074   11.617037    ( 0.0000,  0.0000,  0.0000)
  13 Li     3.234074    3.234074   11.617037    ( 0.0000,  0.0000,  0.0000)
  14 Li     6.468148    3.234074   11.617037    ( 0.0000,  0.0000,  0.0000)
  15 Li     0.000000    6.468148   11.617037    ( 0.0000,  0.0000,  0.0000)
  16 Li     3.234074    6.468148   11.617037    ( 0.0000,  0.0000,  0.0000)
  17 Li     6.468148    6.468148   11.617037    ( 0.0000,  0.0000,  0.0000)
  18 Li     1.618569    1.615206   13.462781    ( 0.0000,  0.0000,  0.0000)
  19 Li     4.851116    1.617450   13.475378    ( 0.0000,  0.0000,  0.0000)
  20 Li     8.083643    1.615230   13.462805    ( 0.0000,  0.0000,  0.0000)
  21 Li     1.618465    4.851799   13.468970    ( 0.0000,  0.0000,  0.0000)
  22 Li     4.851104    4.851133   13.473726    ( 0.0000,  0.0000,  0.0000)
  23 Li     8.083764    4.851778   13.469028    ( 0.0000,  0.0000,  0.0000)
  24 Li     1.616341    8.086204   13.474086    ( 0.0000,  0.0000,  0.0000)
  25 Li     4.851085    8.084203   13.471343    ( 0.0000,  0.0000,  0.0000)
  26 Li     8.085899    8.086206   13.474099    ( 0.0000,  0.0000,  0.0000)
  27 Li    -0.000017   -0.002550   15.462373    ( 0.0000,  0.0000,  0.0000)
  28 Li     3.238812   -0.003825   15.442468    ( 0.0000,  0.0000,  0.0000)
  29 Li     6.463374   -0.003847   15.442281    ( 0.0000,  0.0000,  0.0000)
  30 Li     0.000010    3.291207   15.292939    ( 0.0000,  0.0000,  0.0000)
  31 Li     3.241118    3.237309   15.442250    ( 0.0000,  0.0000,  0.0000)
  32 Li     6.461046    3.237340   15.441851    ( 0.0000,  0.0000,  0.0000)
  33 Li    -0.000036    6.469926   15.443172    ( 0.0000,  0.0000,  0.0000)
  34 Li     3.233324    6.468331   15.443760    ( 0.0000,  0.0000,  0.0000)
  35 Li     6.468936    6.468314   15.443717    ( 0.0000,  0.0000,  0.0000)
  36 O      0.000367    1.615797   21.443241    ( 0.0000,  0.0000,  0.0000)
  37 C     -0.004027    0.802839   22.624537    ( 0.0000,  0.0000,  0.0000)
  38 C      0.009951    1.619485   23.902438    ( 0.0000,  0.0000,  0.0000)
  39 H     -0.863746    0.118881   22.618473    ( 0.0000,  0.0000,  0.0000)
  40 H      0.897648    0.190959   22.552064    ( 0.0000,  0.0000,  0.0000)
  41 H      0.025131    0.966060   24.764749    ( 0.0000,  0.0000,  0.0000)
  42 H      0.886443    2.267765   23.944342    ( 0.0000,  0.0000,  0.0000)
  43 H     -0.881929    2.247299   23.980850    ( 0.0000,  0.0000,  0.0000)
  44 H     -0.767652    2.199035   21.482904    ( 0.0000,  0.0000,  0.0000)
  45 N      0.000163    1.575852   16.922280    ( 0.0000,  0.0000,  0.0000)
  46 N     -0.000203    2.697484   17.133912    ( 0.0000,  0.0000,  0.0000)

Unit cell:
           periodic     x           y           z      points  spacing
  1. axis:    yes    9.702222    0.000000    0.000000    60     0.1617
  2. axis:    yes    0.000000    9.702222    0.000000    60     0.1617
  3. axis:    no     0.000000    0.000000   26.351111   164     0.1607

  Lengths:   9.702222   9.702222  26.351111
  Angles:   90.000000  90.000000  90.000000

Effective grid spacing dv^(1/3) = 0.1614

     iter     time        total  log10-change:
                         energy  eigst   dens
iter:   1 19:50:11  -308.282020  -1.12
iter:   2 19:52:59  -308.284162  -1.63  -2.13
iter:   3 19:55:27  -308.279794c -2.19  -2.17
iter:   4 19:58:10  -308.279549c -2.46  -2.54
Writing to output.gpw (mode='')

iter:   5 20:00:25  -308.278636c -2.32  -2.61
iter:   6 20:02:16  -308.277987c -2.83  -2.73
iter:   7 20:04:12  -308.277912c -3.25  -2.87
iter:   8 20:06:47  -308.277951c -3.14  -3.06
iter:   9 20:09:25  -308.277897c -3.74  -3.08
Writing to output.gpw (mode='')

iter:  10 20:11:46  -308.277904c -3.84  -3.37
iter:  11 20:14:10  -308.277926c -3.86  -3.34
iter:  12 20:16:34  -308.277912c -4.49  -3.43
iter:  13 20:20:18  -308.277893c -4.24  -3.47
iter:  14 20:22:24  -308.277896c -4.77  -3.60
Writing to output.gpw (mode='')

iter:  15 20:24:43  -308.277903c -4.64  -3.68
iter:  16 20:27:36  -308.277883c -4.73  -3.75
iter:  17 20:34:54  -308.277884c -5.46  -3.96
iter:  18 20:42:02  -308.277884c -5.39  -4.14c
iter:  19 20:50:01  -308.277881c -5.54  -4.21c
Writing to output.gpw (mode='')

iter:  20 20:57:41  -308.277881c -5.65  -4.28c
iter:  21 21:05:28  -308.277884c -5.70  -4.36c
iter:  22 21:10:02  -308.277880c -5.92  -4.42c
iter:  23 21:14:07  -308.277885c -5.78  -4.39c
iter:  24 21:19:29  -308.277883c -6.28  -4.52c
Writing to output.gpw (mode='')

iter:  25 21:24:01  -308.277883c -6.39  -4.80c
iter:  26 21:27:25  -308.277883c -6.28  -4.89c
iter:  27 21:31:22  -308.277884c -6.45  -5.08c
iter:  28 21:34:15  -308.277884c -6.40  -5.17c
iter:  29 21:37:54  -308.277883c -6.58  -5.24c
Writing to output.gpw (mode='')

iter:  30 21:41:21  -308.277883c -6.71  -5.33c
iter:  31 21:44:34  -308.277883c -6.93  -5.47c
iter:  32 21:47:42  -308.277883c -6.91  -5.52c
iter:  33 21:51:24  -308.277883c -7.08  -5.55c
iter:  34 21:55:46  -308.277883c -7.01  -5.59c
Writing to output.gpw (mode='')

iter:  35 21:58:29  -308.277883c -7.04  -5.64c
iter:  36 22:01:38  -308.277883c -6.97  -5.62c
iter:  37 22:04:31  -308.277884c -7.15  -5.52c
iter:  38 22:08:14  -308.277884c -7.41c -5.47c

Converged after 38 iterations.

Dipole moment: (-21.489709, -9.354587, 0.347847) |e|*Ang

Energy contributions relative to reference atoms: (reference = -14434.854043)

Kinetic:       +152.165697
Potential:     -146.146943
External:        +0.000000
XC:            -314.983428
Entropy (-ST):   -0.150224
Local:           +0.761903
--------------------------
Free energy:   -308.352996
Extrapolated:  -308.277884

Dipole-layer corrected work functions: 3.403863, 2.735183 eV

Showing only first 2 kpts
 Kpt  Band  Eigenvalues  Occupancy
  0    31     -3.32965    1.98905
  0    32     -3.26193    1.95825
  0    33     -2.91769    0.09160
  0    34     -2.87927    0.04355

  1    31     -3.12482    1.50275
  1    32     -3.07044    1.00920
  1    33     -3.01410    0.49635
  1    34     -2.95995    0.20105


Fermi level: -3.06952

No gap
Writing to output.gpw (mode='')


Forces in eV/Ang:
  0 Li    0.01932   -0.00397   -0.27546
  1 Li    0.00010    0.00089   -0.26891
  2 Li   -0.01943   -0.00386   -0.27556
  3 Li   -0.00306    0.02137   -0.27835
  4 Li    0.00012   -0.00549   -0.26921
  5 Li    0.00298    0.02131   -0.27846
  6 Li   -0.00690   -0.01533   -0.26530
  7 Li    0.00003    0.00817   -0.28717
  8 Li    0.00690   -0.01534   -0.26560
  9 Li   -0.00004   -0.01247    0.28525
 10 Li    0.01988   -0.00224    0.25594
 11 Li   -0.01975   -0.00216    0.25591
 12 Li   -0.00012    0.00284    0.34521
 13 Li    0.01235   -0.00182    0.26372
 14 Li   -0.01224   -0.00183    0.26305
 15 Li    0.00004    0.01110    0.23570
 16 Li    0.00255    0.00345    0.25125
 17 Li   -0.00265    0.00324    0.25158
 18 Li    0.02334   -0.03120   -0.08515
 19 Li    0.00000    0.00430    0.06357
 20 Li   -0.02343   -0.03094   -0.08502
 21 Li    0.02896    0.02615   -0.02803
 22 Li   -0.00012    0.00334    0.04284
 23 Li   -0.02890    0.02592   -0.02744
 24 Li   -0.00858    0.01387    0.04919
 25 Li   -0.00035   -0.01338    0.01706
 26 Li    0.00881    0.01389    0.04936
 27 Li   -0.00007    0.03248    0.20949
 28 Li    0.05491   -0.04264   -0.04121
 29 Li   -0.05534   -0.04298   -0.04342
 30 Li    0.00061    0.13784   -0.46839
 31 Li    0.07873    0.03580   -0.04349
 32 Li   -0.07949    0.03620   -0.04835
 33 Li   -0.00040    0.01247   -0.02583
 34 Li   -0.01132    0.00194   -0.02426
 35 Li    0.01176    0.00180   -0.02484
 36 O     0.00506   -0.00908   -0.08132
 37 C     0.00325    0.01791   -0.08284
 38 C    -0.00341    0.02815   -0.09657
 39 H    -0.00130    0.01614   -0.02306
 40 H    -0.00091    0.00204   -0.01880
 41 H     0.00140   -0.06130   -0.17276
 42 H     0.01090    0.00651   -0.05010
 43 H    -0.01695    0.00714   -0.04227
 44 H     0.00691   -0.00619   -0.03669
 45 N     0.00277    0.59539   -0.30045
 46 N    -0.00427   -0.83326    0.96577

System changes: positions 

Initializing position-dependent things.

Density initialized from wave functions
       .-----------------------.  
      /|                       |  
     / |                       |  
    /  |                       |  
   /   |                       |  
  /    |                       |  
 *     |                       |  
 |H    |                H      |  
 |C  H |                       |  
 |     |                       |  
 | H   |               H C     |  
 |O    |                H      |  
 |     |                       |  
 |     |       Li      Li      Li 
 |     |                       |  
 |     |     Li      Li    N Li|  
 |N    |                       |  
 | Li  |  LLi     LLi     Li   |  
 |     |                       |  
 |     |Li      Li      Li     |  
 |   Li|     Li      Li        |  
 |    Li  Li  Li  Li  Li  Li   |  
 | Li  |   Li      Li          |  
 |     |Li      Li      Li     |  
 Li    | Li      Li            |  
 |    Li      Li      Li       |  
 |     |                       |  
 |     |                       |  
 |     |                       |  
 |     |                       |  
 |     |                       |  
 |     |                       |  
 |     .-----------------------.  
 |    /                       /   
 |   /                       /    
 |  /                       /     
 | /                       /      
 |/                       /       
 *-----------------------*        

Positions:
   0 Li     1.617037    1.617037   10.000000    ( 0.0000,  0.0000,  0.0000)
   1 Li     4.851111    1.617037   10.000000    ( 0.0000,  0.0000,  0.0000)
   2 Li     8.085185    1.617037   10.000000    ( 0.0000,  0.0000,  0.0000)
   3 Li     1.617037    4.851111   10.000000    ( 0.0000,  0.0000,  0.0000)
   4 Li     4.851111    4.851111   10.000000    ( 0.0000,  0.0000,  0.0000)
   5 Li     8.085185    4.851111   10.000000    ( 0.0000,  0.0000,  0.0000)
   6 Li     1.617037    8.085185   10.000000    ( 0.0000,  0.0000,  0.0000)
   7 Li     4.851111    8.085185   10.000000    ( 0.0000,  0.0000,  0.0000)
   8 Li     8.085185    8.085185   10.000000    ( 0.0000,  0.0000,  0.0000)
   9 Li     0.000000    0.000000   11.617037    ( 0.0000,  0.0000,  0.0000)
  10 Li     3.234074    0.000000   11.617037    ( 0.0000,  0.0000,  0.0000)
  11 Li     6.468148    0.000000   11.617037    ( 0.0000,  0.0000,  0.0000)
  12 Li     0.000000    3.234074   11.617037    ( 0.0000,  0.0000,  0.0000)
  13 Li     3.234074    3.234074   11.617037    ( 0.0000,  0.0000,  0.0000)
  14 Li     6.468148    3.234074   11.617037    ( 0.0000,  0.0000,  0.0000)
  15 Li     0.000000    6.468148   11.617037    ( 0.0000,  0.0000,  0.0000)
  16 Li     3.234074    6.468148   11.617037    ( 0.0000,  0.0000,  0.0000)
  17 Li     6.468148    6.468148   11.617037    ( 0.0000,  0.0000,  0.0000)
  18 Li     1.619270    1.614296   13.460118    ( 0.0000,  0.0000,  0.0000)
  19 Li     4.851116    1.617588   13.477417    ( 0.0000,  0.0000,  0.0000)
  20 Li     8.082938    1.614328   13.460149    ( 0.0000,  0.0000,  0.0000)
  21 Li     1.619277    4.852475   13.468256    ( 0.0000,  0.0000,  0.0000)
  22 Li     4.851101    4.851217   13.475117    ( 0.0000,  0.0000,  0.0000)
  23 Li     8.082953    4.852446   13.468333    ( 0.0000,  0.0000,  0.0000)
  24 Li     1.616076    8.086631   13.475669    ( 0.0000,  0.0000,  0.0000)
  25 Li     4.851074    8.083792   13.471900    ( 0.0000,  0.0000,  0.0000)
  26 Li     8.086170    8.086634   13.475686    ( 0.0000,  0.0000,  0.0000)
  27 Li    -0.000020   -0.002172   15.468728    ( 0.0000,  0.0000,  0.0000)
  28 Li     3.240564   -0.005193   15.441149    ( 0.0000,  0.0000,  0.0000)
  29 Li     6.461610   -0.005225   15.440892    ( 0.0000,  0.0000,  0.0000)
[...]

Converged after 33 iterations.

Dipole moment: (-16.247108, -11.919172, 0.275828) |e|*Ang

Energy contributions relative to reference atoms: (reference = -14434.854043)

Kinetic:       +150.581994
Potential:     -145.837649
External:        +0.000000
XC:            -314.121567
Entropy (-ST):   -0.147748
Local:           +0.763605
--------------------------
Free energy:   -308.761364
Extrapolated:  -308.687491

Dipole-layer corrected work functions: 3.404861, 2.874625 eV

Showing only first 2 kpts
 Kpt  Band  Eigenvalues  Occupancy
  0    31     -3.39379    1.98765
  0    32     -3.32630    1.95319
  0    33     -2.96193    0.05551
  0    34     -2.93762    0.03450

  1    31     -3.17135    1.30598
  1    32     -3.12022    0.80725
  1    33     -3.10595    0.67437
  1    34     -3.06127    0.34461


Fermi level: -3.13974

No gap
Writing to output.gpw (mode='')


Forces in eV/Ang:
  0 Li    0.01359   -0.00136   -0.26221
  1 Li   -0.00158   -0.00297   -0.27503
  2 Li   -0.01247   -0.00146   -0.26240
  3 Li   -0.00109    0.00878   -0.27297
  4 Li   -0.00011   -0.00395   -0.28362
  5 Li    0.00093    0.01005   -0.27383
  6 Li   -0.00110   -0.01074   -0.27190
  7 Li   -0.00036   -0.00320   -0.28111
  8 Li    0.00152   -0.01211   -0.27117
  9 Li    0.00285   -0.00489    0.25803
 10 Li   -0.01214   -0.01020    0.26433
 11 Li    0.01158   -0.01213    0.26692
 12 Li    0.00143    0.01279    0.26863
 13 Li   -0.00944    0.01664    0.27257
 14 Li    0.00998    0.01799    0.27821
 15 Li    0.00157    0.01632    0.23701
 16 Li   -0.06340    0.01556    0.28126
 17 Li    0.06260    0.01608    0.28459
 18 Li    0.01592   -0.01110   -0.01042
 19 Li    0.00045    0.00904    0.02461
 20 Li   -0.01592   -0.01013   -0.01159
 21 Li    0.01056    0.00917   -0.00449
 22 Li   -0.00005   -0.00077    0.01753
 23 Li   -0.01124    0.00848   -0.00429
 24 Li   -0.00582    0.01285    0.01050
 25 Li    0.00016   -0.00810   -0.00086
 26 Li    0.00591    0.01209    0.00987
 27 Li   -0.00216   -0.00356   -0.00966
 28 Li    0.00864   -0.01089    0.00812
 29 Li   -0.00734   -0.01198    0.00785
 30 Li    0.00040   -0.00953   -0.02051
 31 Li   -0.00233    0.00606    0.01474
 32 Li    0.00030    0.00676    0.01338
 33 Li   -0.00018   -0.00937   -0.01257
 34 Li   -0.00282    0.00203    0.00401
 35 Li    0.00329    0.00242    0.00399
 36 O    -0.01893   -0.01625    0.02524
 37 C     0.00257   -0.01280    0.00783
 38 C    -0.01330    0.01561    0.04557
 39 H     0.01750   -0.00285   -0.02158
 40 H    -0.01845   -0.00726   -0.02722
 41 H    -0.01006   -0.01795   -0.00560
 42 H     0.02461    0.01137   -0.02890
 43 H     0.00225    0.01982   -0.01718
 44 H     0.01152   -0.01279   -0.02986
 45 N    -0.00035    0.06745    0.08458
 46 N    -0.01429   -0.05032   -0.15308

System changes: positions 

Initializing position-dependent things.

Density initialized from wave functions
       .-----------------------.  
      /|                       |  
     / |                       |  
    /  |                       |  
   /   |                       |  
  /    |                       |  
 *     |                       |  
 |     |                       |  
 |H  H |                H      |  
 |C    |                       |  
 |     |                       |  
 C H   |               H H     |  
 |O    |                       |  
 |     |                       |  
 |     |                       |  
 |     |     Li      Li   N  Li|  
 |     |                  N    |  
 | Li  |  LLi     LLi     Li   |  
 |     |                       |  
 Li    |LLi     LLi     Li     |  
 |   Li|     Li      Li        |  
 |    Li  Li  Li  Li  Li  Li   |  
 | Li  |   Li      Li          |  
 |     |Li      Li      Li     |  
 Li    | Li      Li            |  
 |    Li      Li      Li       |  
 |     |                       |  
 |     |                       |  
 |     |                       |  
 |     |                       |  
 |     |                       |  
 |     |                       |  
 |     .-----------------------.  
 |    /                       /   
 |   /                       /    
 |  /                       /     
 | /                       /      
 |/                       /       
 *-----------------------*        

Positions:
   0 Li     1.617037    1.617037   10.000000    ( 0.0000,  0.0000,  0.0000)
   1 Li     4.851111    1.617037   10.000000    ( 0.0000,  0.0000,  0.0000)
   2 Li     8.085185    1.617037   10.000000    ( 0.0000,  0.0000,  0.0000)
   3 Li     1.617037    4.851111   10.000000    ( 0.0000,  0.0000,  0.0000)
   4 Li     4.851111    4.851111   10.000000    ( 0.0000,  0.0000,  0.0000)
   5 Li     8.085185    4.851111   10.000000    ( 0.0000,  0.0000,  0.0000)
   6 Li     1.617037    8.085185   10.000000    ( 0.0000,  0.0000,  0.0000)
   7 Li     4.851111    8.085185   10.000000    ( 0.0000,  0.0000,  0.0000)
   8 Li     8.085185    8.085185   10.000000    ( 0.0000,  0.0000,  0.0000)
   9 Li     0.000000    0.000000   11.617037    ( 0.0000,  0.0000,  0.0000)
  10 Li     3.234074    0.000000   11.617037    ( 0.0000,  0.0000,  0.0000)
  11 Li     6.468148    0.000000   11.617037    ( 0.0000,  0.0000,  0.0000)
  12 Li     0.000000    3.234074   11.617037    ( 0.0000,  0.0000,  0.0000)
  13 Li     3.234074    3.234074   11.617037    ( 0.0000,  0.0000,  0.0000)
  14 Li     6.468148    3.234074   11.617037    ( 0.0000,  0.0000,  0.0000)
  15 Li     0.000000    6.468148   11.617037    ( 0.0000,  0.0000,  0.0000)
  16 Li     3.234074    6.468148   11.617037    ( 0.0000,  0.0000,  0.0000)
  17 Li     6.468148    6.468148   11.617037    ( 0.0000,  0.0000,  0.0000)
  18 Li     1.582195    1.629857   13.471967    ( 0.0000,  0.0000,  0.0000)
  19 Li     4.850798    1.600812   13.422238    ( 0.0000,  0.0000,  0.0000)
  20 Li     8.124533    1.627222   13.467733    ( 0.0000,  0.0000,  0.0000)
  21 Li     1.579952    4.863270   13.499172    ( 0.0000,  0.0000,  0.0000)
  22 Li     4.847485    4.878067   13.433005    ( 0.0000,  0.0000,  0.0000)
  23 Li     8.125711    4.864401   13.497431    ( 0.0000,  0.0000,  0.0000)
  24 Li     1.581028    8.118352   13.517192    ( 0.0000,  0.0000,  0.0000)
  25 Li     4.850534    8.075747   13.459070    ( 0.0000,  0.0000,  0.0000)
  26 Li     8.125980    8.119129   13.517050    ( 0.0000,  0.0000,  0.0000)
  27 Li     0.016499    0.152730   15.631359    ( 0.0000,  0.0000,  0.0000)
  28 Li     3.261382    0.010905   15.375484    ( 0.0000,  0.0000,  0.0000)
  29 Li     6.448246    0.007124   15.368080    ( 0.0000,  0.0000,  0.0000)
  30 Li     0.003113    3.308129   15.518862    ( 0.0000,  0.0000,  0.0000)
  31 Li     3.275876    3.230691   15.330891    ( 0.0000,  0.0000,  0.0000)
  32 Li     6.422131    3.236649   15.316431    ( 0.0000,  0.0000,  0.0000)
  33 Li    -0.000894    6.552557   15.501727    ( 0.0000,  0.0000,  0.0000)
  34 Li     3.230904    6.457814   15.411630    ( 0.0000,  0.0000,  0.0000)
  35 Li     6.471858    6.455135   15.407670    ( 0.0000,  0.0000,  0.0000)
  36 O      0.058254    1.558794   20.991608    ( 0.0000,  0.0000,  0.0000)
  37 C      0.001807    0.773078   22.188787    ( 0.0000,  0.0000,  0.0000)
  38 C      0.036064    1.611607   23.456639    ( 0.0000,  0.0000,  0.0000)
  39 H     -0.888144    0.129421   22.182838    ( 0.0000,  0.0000,  0.0000)
  40 H      0.879056    0.124933   22.142022    ( 0.0000,  0.0000,  0.0000)
  41 H      0.073000    0.964226   24.332637    ( 0.0000,  0.0000,  0.0000)
  42 H      0.912620    2.260982   23.468787    ( 0.0000,  0.0000,  0.0000)
  43 H     -0.857533    2.236817   23.538490    ( 0.0000,  0.0000,  0.0000)
  44 H     -0.713875    2.137966   20.971554    ( 0.0000,  0.0000,  0.0000)
  45 N     -0.038096    1.428260   17.210362    ( 0.0000,  0.0000,  0.0000)
  46 N     -0.088852    2.210696   18.013002    ( 0.0000,  0.0000,  0.0000)

Unit cell:
           periodic     x           y           z      points  spacing
  1. axis:    yes    9.702222    0.000000    0.000000    60     0.1617
  2. axis:    yes    0.000000    9.702222    0.000000    60     0.1617
  3. axis:    no     0.000000    0.000000   26.351111   164     0.1607

  Lengths:   9.702222   9.702222  26.351111
  Angles:   90.000000  90.000000  90.000000

Effective grid spacing dv^(1/3) = 0.1614

     iter     time        total  log10-change:
                         energy  eigst   dens
iter:   1 16:53:55  -308.691225  -1.82
iter:   2 16:56:41  -308.690135  -2.47  -2.42
iter:   3 16:59:34  -308.689442c -2.97  -2.48
iter:   4 17:03:11  -308.688356c -3.01  -2.63
Writing to output.gpw (mode='')

iter:   5 17:05:57  -308.688426c -3.63  -2.85
iter:   6 17:08:54  -308.688308c -3.00  -2.96
iter:   7 17:11:33  -308.688264c -3.66  -3.14
iter:   8 17:14:21  -308.688236c -3.94  -3.26
iter:   9 17:16:17  -308.688257c -3.91  -3.37
Writing to output.gpw (mode='')

iter:  10 17:19:06  -308.688224c -4.42  -3.42
iter:  11 17:22:19  -308.688229c -4.99  -3.69
iter:  12 17:25:43  -308.688228c -5.18  -3.73
iter:  13 17:29:12  -308.688234c -4.92  -3.79
iter:  14 17:32:26  -308.688227c -5.31  -3.92
Writing to output.gpw (mode='')

iter:  15 17:35:12  -308.688227c -5.78  -4.07c
iter:  16 17:37:26  -308.688230c -5.57  -4.14c
iter:  17 17:39:22  -308.688231c -5.91  -4.32c
iter:  18 17:42:05  -308.688232c -6.23  -4.44c
iter:  19 17:45:17  -308.688233c -6.24  -4.56c
Writing to output.gpw (mode='')

iter:  20 17:48:35  -308.688233c -6.36  -4.63c
iter:  21 17:53:42  -308.688232c -6.63  -4.67c
iter:  22 17:56:31  -308.688233c -6.77  -4.82c
iter:  23 18:01:19  -308.688233c -6.69  -4.94c
iter:  24 18:04:13  -308.688233c -6.98  -5.03c
Writing to output.gpw (mode='')

iter:  25 18:06:44  -308.688233c -7.18  -5.07c
iter:  26 18:09:25  -308.688233c -7.28  -5.42c
iter:  27 18:11:41  -308.688233c -7.43c -5.46c

Converged after 27 iterations.

Dipole moment: (-15.991826, -11.937779, 0.276571) |e|*Ang

Energy contributions relative to reference atoms: (reference = -14434.854043)

Kinetic:       +150.592921
Potential:     -145.847832
External:        +0.000000
XC:            -314.123179
Entropy (-ST):   -0.147779
Local:           +0.763747
--------------------------
Free energy:   -308.762123
Extrapolated:  -308.688233

Dipole-layer corrected work functions: 3.404958, 2.873294 eV

Showing only first 2 kpts
 Kpt  Band  Eigenvalues  Occupancy
  0    31     -3.39308    1.98763
  0    32     -3.32671    1.95412
  0    33     -2.96167    0.05590
  0    34     -2.93776    0.03502

  1    31     -3.17096    1.30797
  1    32     -3.11983    0.80935
  1    33     -3.10456    0.66745
  1    34     -3.06080    0.34545


Fermi level: -3.13913

No gap
Writing to output.gpw (mode='')


Forces in eV/Ang:
  0 Li    0.01375   -0.00166   -0.26198
  1 Li   -0.00163   -0.00313   -0.27485
  2 Li   -0.01260   -0.00176   -0.26216
  3 Li   -0.00088    0.00926   -0.27268
  4 Li   -0.00011   -0.00396   -0.28306
  5 Li    0.00072    0.01056   -0.27355
  6 Li   -0.00110   -0.01090   -0.27174
  7 Li   -0.00036   -0.00282   -0.28194
  8 Li    0.00153   -0.01232   -0.27099
  9 Li    0.00282   -0.00588    0.25755
 10 Li   -0.01103   -0.01018    0.26422
 11 Li    0.01060   -0.01214    0.26680
 12 Li    0.00142    0.01248    0.27140
 13 Li   -0.00866    0.01497    0.27129
 14 Li    0.00930    0.01636    0.27699
 15 Li    0.00157    0.01824    0.23477
 16 Li   -0.05991    0.01762    0.27977
 17 Li    0.05914    0.01814    0.28305
 18 Li    0.01435   -0.00598   -0.01004
 19 Li    0.00043    0.00888    0.02506
 20 Li   -0.01448   -0.00515   -0.01176
 21 Li    0.00100    0.00149    0.00674
 22 Li    0.00001   -0.00048    0.01821
 23 Li   -0.00182    0.00088    0.00682
 24 Li   -0.00445    0.01332    0.00867
 25 Li    0.00009   -0.01008   -0.00113
 26 Li    0.00450    0.01273    0.00818
 27 Li   -0.00216   -0.00397   -0.00194
 28 Li    0.01161   -0.01343    0.00854
 29 Li   -0.01056   -0.01483    0.00808
 30 Li    0.00057   -0.00321   -0.02955
 31 Li   -0.00029    0.00806    0.00992
 32 Li   -0.00183    0.00903    0.00838
 33 Li   -0.00023   -0.01637   -0.01476
 34 Li   -0.00195    0.00350    0.00500
 35 Li    0.00249    0.00390    0.00505
 36 O    -0.00926   -0.00223    0.01607
 37 C    -0.00226   -0.00892    0.00285
 38 C     0.00407    0.00946    0.00282
 39 H     0.01089   -0.01032   -0.00875
 40 H    -0.01099   -0.01252   -0.02067
 41 H    -0.01581   -0.00116   -0.01116
 42 H     0.01344    0.00274   -0.01944
 43 H     0.00306    0.01717   -0.00024
 44 H     0.00908   -0.01129   -0.03099
 45 N     0.00568   -0.00246   -0.00363
 46 N    -0.01484   -0.03150   -0.01753

Timing:                                      incl.     excl.
-------------------------------------------------------------------
Density initialized from wave functions:   395.145   395.141   0.1% |
 Symmetrize density:                         0.004     0.004   0.0% |
Forces:                                    402.193   402.193   0.1% |
Hamiltonian:                             11735.916     0.010   0.0% |
 Atomic:                                     6.878     0.098   0.0% |
  XC Correction:                             6.780     6.780   0.0% |
 Calculate atomic Hamiltonians:              7.674     7.674   0.0% |
 Communicate:                              224.740   224.740   0.0% |
 Hartree integrate/restrict:                 2.838     2.838   0.0% |
 Initialize Hamiltonian:                     0.000     0.000   0.0% |
 Poisson:                                  157.900    75.159   0.0% |
  Communicate from 1D:                      13.199    13.199   0.0% |
  Communicate from 2D:                      28.029    28.029   0.0% |
  Communicate to 1D:                         2.036     2.036   0.0% |
  Communicate to 2D:                        15.801    15.801   0.0% |
  FFT 1D:                                   14.409    14.409   0.0% |
  FFT 2D:                                    9.267     9.267   0.0% |
 XC 3D grid:                             11335.628   650.107   0.1% |
  VdW-DF integral:                       10685.521     6.754   0.0% |
   Convolution:                             78.732    78.732   0.0% |
   FFT:                                     34.191    34.191   0.0% |
   gather:                                9438.401  9438.401   1.9% ||
   hmm1:                                    30.045    30.045   0.0% |
   hmm2:                                    29.617    29.617   0.0% |
   iFFT:                                    33.972    33.972   0.0% |
   potential:                             1026.098     3.440   0.0% |
    collect:                                57.365    57.365   0.0% |
    p1:                                    122.370   122.370   0.0% |
    p2:                                     39.138    39.138   0.0% |
    sum:                                   803.786   803.786   0.2% |
   splines:                                  7.712     7.712   0.0% |
 vbar:                                       0.247     0.247   0.0% |
LCAO initialization:                         4.944     0.393   0.0% |
 LCAO eigensolver:                           1.416     0.001   0.0% |
  Calculate projections:                     0.000     0.000   0.0% |
  DenseAtomicCorrection:                     0.000     0.000   0.0% |
  Distribute overlap matrix:                 1.176     1.176   0.0% |
  Orbital Layouts:                           0.229     0.229   0.0% |
  Potential matrix:                          0.003     0.003   0.0% |
  Sum over cells:                            0.008     0.008   0.0% |
 LCAO to grid:                               2.584     2.584   0.0% |
 Set positions (LCAO WFS):                   0.550     0.401   0.0% |
  Basic WFS set positions:                   0.002     0.002   0.0% |
  Basis functions set positions:             0.000     0.000   0.0% |
  P tci:                                     0.001     0.001   0.0% |
  ST tci:                                    0.087     0.087   0.0% |
  mktci:                                     0.059     0.059   0.0% |
Redistribute:                                0.112     0.112   0.0% |
SCF-cycle:                               479546.806 57034.542  11.6% |----|
 Davidson:                               41188.677 17456.882   3.5% ||
  Apply hamiltonian:                      3317.718  3317.718   0.7% |
  Subspace diag:                          4976.464     0.527   0.0% |
   calc_h_matrix:                         3438.097   422.096   0.1% |
    Apply hamiltonian:                    3016.001  3016.001   0.6% |
   diagonalize:                            574.672   574.672   0.1% |
   rotate_psi:                             963.167   963.167   0.2% |
  calc. matrices:                        13029.101  5637.014   1.1% |
   Apply hamiltonian:                     7392.087  7392.087   1.5% ||
  diagonalize:                              18.154    18.154   0.0% |
  rotate_psi:                             2390.358  2390.358   0.5% |
 Density:                                 2285.315     0.061   0.0% |
  Atomic density matrices:                1694.443  1694.443   0.3% |
  Mix:                                     298.374   298.374   0.1% |
  Multipole moments:                         4.986     4.986   0.0% |
  Pseudo density:                          287.450   287.350   0.1% |
   Symmetrize density:                       0.100     0.100   0.0% |
 Hamiltonian:                            378991.340     0.586   0.0% |
  Atomic:                                  233.900     2.601   0.0% |
   XC Correction:                          231.299   231.299   0.0% |
  Calculate atomic Hamiltonians:           264.939   264.939   0.1% |
  Communicate:                            6313.091  6313.091   1.3% ||
  Hartree integrate/restrict:              110.176   110.176   0.0% |
  Poisson:                                5896.276  2586.134   0.5% |
   Communicate from 1D:                    621.163   621.163   0.1% |
   Communicate from 2D:                   1173.405  1173.405   0.2% |
   Communicate to 1D:                       70.751    70.751   0.0% |
   Communicate to 2D:                      649.084   649.084   0.1% |
   FFT 1D:                                 482.121   482.121   0.1% |
   FFT 2D:                                 313.618   313.618   0.1% |
  XC 3D grid:                            366162.582 19398.117   3.9% |-|
   VdW-DF integral:                      346764.465   207.379   0.0% |
    Convolution:                          2544.731  2544.731   0.5% |
    FFT:                                  1084.320  1084.320   0.2% |
    gather:                              305528.416 305528.416  62.0% |------------------------|
    hmm1:                                  962.710   962.710   0.2% |
    hmm2:                                  943.326   943.326   0.2% |
    iFFT:                                 1136.514  1136.514   0.2% |
    potential:                           34357.046   116.302   0.0% |
     collect:                             3168.535  3168.535   0.6% |
     p1:                                  4120.245  4120.245   0.8% |
     p2:                                  1335.502  1335.502   0.3% |
     sum:                                25616.461 25616.461   5.2% |-|
    splines:                                 0.022     0.022   0.0% |
  vbar:                                      9.789     9.789   0.0% |
 Orthonormalize:                            46.932     0.054   0.0% |
  calc_s_matrix:                             8.008     8.008   0.0% |
  inverse-cholesky:                         24.308    24.308   0.0% |
  projections:                               0.004     0.004   0.0% |
  rotate_psi_s:                             14.558    14.558   0.0% |
Set symmetry:                                0.002     0.002   0.0% |
Other:                                     608.574   608.574   0.1% |
-------------------------------------------------------------------
Total:                                             492693.692 100.0%

Memory usage: 1.48 GiB
Date: Sun Mar  5 18:11:48 2023
