
  ___ ___ ___ _ _ _  
 |   |   |_  | | | | 
 | | | | | . | | | | 
 |__ |  _|___|_____|  22.8.0
 |___|_|             

User:   vazumah@c21.hercules
Date:   Sat Feb 25 22:50:37 2023
Arch:   x86_64
Pid:    20181
CWD:    /home/vazumah/Python_projects/LiNRR/Li_adsorb_studies/proton_donors/on_pure_surface/Li_BCC100/adsorbates/CH3CH2OH_z/ontop/9.702_9.702
Python: 3.10.8
gpaw:   /home/vazumah/.conda/envs/GPAW/lib/python3.10/site-packages/gpaw
_gpaw:  /home/vazumah/.conda/envs/GPAW/lib/python3.10/site-packages/
        _gpaw.cpython-310-x86_64-linux-gnu.so
ase:    /home/vazumah/.conda/envs/GPAW/lib/python3.10/site-packages/ase (version 3.22.1)
numpy:  /home/vazumah/.conda/envs/GPAW/lib/python3.10/site-packages/numpy (version 1.24.1)
scipy:  /home/vazumah/.conda/envs/GPAW/lib/python3.10/site-packages/scipy (version 1.10.0)
libxc:  5.2.3
units:  Angstrom and eV
cores: 24
OpenMP: True
OMP_NUM_THREADS: 1

Input parameters:
  h: 0.16

System changes: positions, numbers, cell, pbc, initial_charges, initial_magmoms 

Initialize ...

species:
  Li:
    name: Lithium
    id: b73562207f97a71b6967473b66fe8b65
    Z: 3.0
    valence: 1
    core: 2
    charge: 0.0
    file: /home/vazumah/.conda/envs/GPAW/share/gpaw/Li.LDA.gz
    compensation charges: {type: gauss,
                           rc: 0.33,
                           lmax: 2}
    cutoffs: {filter: 1.91,
              core: 2.55}
    valence states:
      #              energy  rcut
      - 2s(1.00)    -2.874   1.058
      - 2p(0.00)    -1.126   1.058
      -  s          24.338   1.058
  
    # Using partial waves for Li as LCAO basis

  O:
    name: Oxygen
    id: 9b9d51c344dea68c822856295a461509
    Z: 8.0
    valence: 6
    core: 2
    charge: 0.0
    file: /home/vazumah/.conda/envs/GPAW/share/gpaw/O.LDA.gz
    compensation charges: {type: gauss,
                           rc: 0.21,
                           lmax: 2}
    cutoffs: {filter: 1.17,
              core: 0.83}
    valence states:
      #              energy  rcut
      - 2s(2.00)   -23.752   0.688
      - 2p(4.00)    -9.195   0.598
      -  s           3.459   0.688
      -  p          18.016   0.598
      -  d           0.000   0.619
  
    # Using partial waves for O as LCAO basis

  C:
    name: Carbon
    id: d60576a1f549371a163e72552ca58787
    Z: 6.0
    valence: 4
    core: 2
    charge: 0.0
    file: /home/vazumah/.conda/envs/GPAW/share/gpaw/C.LDA.gz
    compensation charges: {type: gauss,
                           rc: 0.20,
                           lmax: 2}
    cutoffs: {filter: 1.14,
              core: 1.14}
    valence states:
      #              energy  rcut
      - 2s(2.00)   -13.639   0.635
      - 2p(2.00)    -5.414   0.635
      -  s          13.573   0.635
      -  p          21.797   0.635
      -  d           0.000   0.635
  
    # Using partial waves for C as LCAO basis

  H:
    name: Hydrogen
    id: 4766778ce56282eaa64abeb28b7c1de3
    Z: 1.0
    valence: 1
    core: 0
    charge: 0.0
    file: /home/vazumah/.conda/envs/GPAW/share/gpaw/H.LDA.gz
    compensation charges: {type: gauss,
                           rc: 0.15,
                           lmax: 2}
    cutoffs: {filter: 0.85,
              core: 0.53}
    valence states:
      #              energy  rcut
      - 1s(1.00)    -6.353   0.476
      -  s          20.858   0.476
      -  p           0.000   0.476
  
    # Using partial waves for H as LCAO basis

Reference energy: -11324.203537  # eV

Spin-paired calculation

Convergence criteria:
 Maximum [total energy] change in last 3 cyles: 0.0005 eV / electron
 Maximum integral of absolute [dens]ity change: 0.0001 electrons / valence electron
 Maximum integral of absolute [eigenst]ate change: 4e-08 eV^2 / valence electron
 Maximum number of scf [iter]ations: 333
 (Square brackets indicate name in SCF output, whereas a 'c' in
 the SCF output indicates the quantity has converged.)

Symmetries present (total): 1

  ( 1  0  0)
  ( 0  1  0)
  ( 0  0  1)

1 k-point (Gamma)
1 k-point in the irreducible part of the Brillouin zone
       k-points in crystal coordinates                weights
   0:     0.00000000    0.00000000    0.00000000          1/1

Wave functions: Uniform real-space grid
  Kinetic energy operator: 6*3+1=19 point O(h^6) finite-difference Laplacian
  ScaLapack parameters: grid=1x1, blocksize=None
  Wavefunction extrapolation:
    Improved wavefunction reuse through dual PAW basis 

Occupation numbers: Fermi-Dirac:
  width: 0.1000  # eV
 

Eigensolver
   Davidson(niter=2) 

Densities:
  Coarse grid: 60*60*156 grid
  Fine grid: 120*120*312 grid
  Total Charge: 0.000000 

Density mixing:
  Method: separate
  Backend: pulay
  Linear mixing parameter: 0.05
  old densities: 5
  Damping of long wavelength oscillations: 50 

Hamiltonian:
  XC and Coulomb potentials evaluated on a 120*120*312 grid
  Using the LDA Exchange-Correlation functional
  Interpolation: tri-quintic (5. degree polynomial)
  Poisson solver: FastPoissonSolver using
    Stencil: 6*3+1=19 point O(h^6) finite-difference Laplacian
    FFT axes: [0, 1]
    FST axes: [2]
 

Memory estimate:
  Process memory now: 234.63 MiB
  Calculator: 32.66 MiB
    Density: 14.59 MiB
      Arrays: 4.55 MiB
      Localized functions: 8.32 MiB
      Mixer: 1.72 MiB
    Hamiltonian: 3.63 MiB
      Arrays: 2.97 MiB
      XC: 0.00 MiB
      Poisson: 0.00 MiB
      vbar: 0.66 MiB
    Wavefunctions: 14.44 MiB
      Arrays psit_nG: 6.52 MiB
      Eigensolver: 7.49 MiB
      Projections: 0.00 MiB
      Projectors: 0.42 MiB

Total number of cores used: 24
Domain decomposition: 2 x 2 x 6

Number of atoms: 45
Number of atomic orbitals: 162
Number of bands in calculation: 38
Number of valence electrons: 56
Bands to converge: occupied

... initialized

Initializing position-dependent things.

Density initialized from atomic densities
Creating initial wave functions:
  38 bands from LCAO basis set

       .-----------------------.  
      /|                       |  
     / |                       |  
    /  |                       |  
   /   |                       |  
  /    H                       |  
 *     C                       |  
 |     |                       |  
 |     |                      C|  
 |     |H                   H  |  
 |     |                       |  
 |     Li              H       |  
 |  H  |       Li      Li      |  
 |     |                       |  
 |   Li|     Li      LH        |  
 |     |  Li      Li    O Li   |  
 |     |   Li      Li      Li  |  
 |     |Li      Li      Li     |  
 |     |                       |  
 |   LLi     LLi     LLi       |  
 |     |  Li      Li      Li   |  
 | Li  |   Li      Li          |  
 |     |Li      Li      Li     |  
 Li    | Li      Li            |  
 |    Li      Li      Li       |  
 |     |                       |  
 |     |                       |  
 |     |                       |  
 |     |                       |  
 |     |                       |  
 |     |                       |  
 |     .-----------------------.  
 |    /                       /   
 |   /                       /    
 |  /                       /     
 | /                       /      
 |/                       /       
 *-----------------------*        

Positions:
   0 Li     1.617037    1.617037   10.000000    ( 0.0000,  0.0000,  0.0000)
   1 Li     4.851111    1.617037   10.000000    ( 0.0000,  0.0000,  0.0000)
   2 Li     8.085185    1.617037   10.000000    ( 0.0000,  0.0000,  0.0000)
   3 Li     1.617037    4.851111   10.000000    ( 0.0000,  0.0000,  0.0000)
   4 Li     4.851111    4.851111   10.000000    ( 0.0000,  0.0000,  0.0000)
   5 Li     8.085185    4.851111   10.000000    ( 0.0000,  0.0000,  0.0000)
   6 Li     1.617037    8.085185   10.000000    ( 0.0000,  0.0000,  0.0000)
   7 Li     4.851111    8.085185   10.000000    ( 0.0000,  0.0000,  0.0000)
   8 Li     8.085185    8.085185   10.000000    ( 0.0000,  0.0000,  0.0000)
   9 Li     0.000000    0.000000   11.617037    ( 0.0000,  0.0000,  0.0000)
  10 Li     3.234074    0.000000   11.617037    ( 0.0000,  0.0000,  0.0000)
  11 Li     6.468148    0.000000   11.617037    ( 0.0000,  0.0000,  0.0000)
  12 Li     0.000000    3.234074   11.617037    ( 0.0000,  0.0000,  0.0000)
  13 Li     3.234074    3.234074   11.617037    ( 0.0000,  0.0000,  0.0000)
  14 Li     6.468148    3.234074   11.617037    ( 0.0000,  0.0000,  0.0000)
  15 Li     0.000000    6.468148   11.617037    ( 0.0000,  0.0000,  0.0000)
  16 Li     3.234074    6.468148   11.617037    ( 0.0000,  0.0000,  0.0000)
  17 Li     6.468148    6.468148   11.617037    ( 0.0000,  0.0000,  0.0000)
  18 Li     1.608349    1.575586   13.528294    ( 0.0000,  0.0000,  0.0000)
  19 Li     4.862291    1.640993   13.473034    ( 0.0000,  0.0000,  0.0000)
  20 Li     8.126322    1.587624   13.529142    ( 0.0000,  0.0000,  0.0000)
  21 Li     1.630927    4.820652   13.481441    ( 0.0000,  0.0000,  0.0000)
  22 Li     4.843758    4.849030   13.481923    ( 0.0000,  0.0000,  0.0000)
  23 Li     8.067293    4.822009   13.487135    ( 0.0000,  0.0000,  0.0000)
  24 Li     1.604648    8.104977   13.528721    ( 0.0000,  0.0000,  0.0000)
  25 Li     4.862868    8.064856   13.467151    ( 0.0000,  0.0000,  0.0000)
  26 Li     8.125471    8.083534   13.508795    ( 0.0000,  0.0000,  0.0000)
  27 Li     0.075187   -0.073526   15.762543    ( 0.0000,  0.0000,  0.0000)
  28 Li     3.345154   -0.006020   15.409550    ( 0.0000,  0.0000,  0.0000)
  29 Li     6.439186   -0.005242   15.363556    ( 0.0000,  0.0000,  0.0000)
  30 Li    -0.001510    3.235878   15.445838    ( 0.0000,  0.0000,  0.0000)
  31 Li     3.247300    3.247229   15.437277    ( 0.0000,  0.0000,  0.0000)
  32 Li     6.469384    3.212406   15.454188    ( 0.0000,  0.0000,  0.0000)
  33 Li     0.011284    6.343657   15.376553    ( 0.0000,  0.0000,  0.0000)
  34 Li     3.221791    6.480104   15.429939    ( 0.0000,  0.0000,  0.0000)
  35 Li     6.448287    6.448829   15.423507    ( 0.0000,  0.0000,  0.0000)
  36 O      9.391823    9.788643   17.652594    ( 0.0000,  0.0000,  0.0000)
  37 C      9.655777    8.861597   18.739544    ( 0.0000,  0.0000,  0.0000)
  38 C      9.788866    9.582790   20.069644    ( 0.0000,  0.0000,  0.0000)
  39 H      8.862637    8.105525   18.769985    ( 0.0000,  0.0000,  0.0000)
  40 H     10.583015    8.359490   18.456662    ( 0.0000,  0.0000,  0.0000)
  41 H     10.008115    8.865425   20.864146    ( 0.0000,  0.0000,  0.0000)
  42 H     10.597990   10.315191   20.037277    ( 0.0000,  0.0000,  0.0000)
  43 H      8.859941   10.099807   20.325951    ( 0.0000,  0.0000,  0.0000)
  44 H      8.550993   10.245990   17.814451    ( 0.0000,  0.0000,  0.0000)

Unit cell:
           periodic     x           y           z      points  spacing
  1. axis:    yes    9.702222    0.000000    0.000000    60     0.1617
  2. axis:    yes    0.000000    9.702222    0.000000    60     0.1617
  3. axis:    no     0.000000    0.000000   24.851111   156     0.1593

  Lengths:   9.702222   9.702222  24.851111
  Angles:   90.000000  90.000000  90.000000

Effective grid spacing dv^(1/3) = 0.1609

     iter     time        total  log10-change:
                         energy  eigst   dens
iter:   1 22:51:06  -179.275681
iter:   2 22:51:28   -85.363622  +1.69  -0.18
iter:   3 22:51:49   -54.656618  +2.81  -0.38
iter:   4 22:52:13   -78.518042  +2.59  -0.51
iter:   5 22:52:36   -94.546928  +2.46  -0.56
iter:   6 22:52:56  -108.760934  +2.24  -0.73
iter:   7 22:53:20  -118.653742  +1.98  -0.82
iter:   8 22:53:44  -124.395770  +1.59  -0.80
iter:   9 22:54:05  -127.803008  +1.29  -0.77
iter:  10 22:54:28  -124.611718  +0.79  -0.75
iter:  11 22:54:52  -122.984384  +0.92  -0.86
iter:  12 22:55:13  -123.276295  +0.01  -0.77
iter:  13 22:55:33  -123.302312  +0.39  -0.82
iter:  14 22:55:54  -119.320741  +0.65  -0.91
iter:  15 22:56:16  -119.147887  +0.32  -1.02
iter:  16 22:56:40  -119.156292  +0.40  -1.04
iter:  17 22:57:01  -118.679435  +0.03  -1.02
iter:  18 22:57:22  -118.625415  +0.12  -1.21
iter:  19 22:57:44  -118.494752  -0.46  -1.29
iter:  20 22:58:05  -118.378783  -0.26  -1.36
iter:  21 22:58:28  -118.382383  -0.91  -1.59
iter:  22 22:58:51  -118.378298c -0.76  -1.64
iter:  23 22:59:14  -118.392208c -0.67  -1.78
iter:  24 22:59:37  -118.374552c -1.31  -1.93
iter:  25 22:59:59  -118.378839c -1.65  -2.13
iter:  26 23:00:21  -118.380803c -1.71  -2.22
iter:  27 23:00:44  -118.378961c -2.05  -2.30
iter:  28 23:01:07  -118.379414c -2.03  -2.41
iter:  29 23:01:31  -118.380046c -2.28  -2.58
iter:  30 23:01:55  -118.379796c -2.34  -2.60
iter:  31 23:02:21  -118.380065c -2.22  -2.70
iter:  32 23:02:47  -118.380495c -2.88  -2.73
iter:  33 23:03:12  -118.381785c -2.59  -2.86
iter:  34 23:03:35  -118.381541c -3.23  -3.00
iter:  35 23:04:00  -118.381350c -2.92  -3.15
iter:  36 23:04:22  -118.381546c -3.34  -3.27
iter:  37 23:04:45  -118.381494c -3.64  -3.40
iter:  38 23:05:08  -118.381451c -3.27  -3.43
iter:  39 23:05:31  -118.381560c -3.57  -3.53
iter:  40 23:05:53  -118.381549c -3.90  -3.60
iter:  41 23:06:13  -118.381568c -3.98  -3.61
iter:  42 23:06:36  -118.381609c -3.98  -3.56
iter:  43 23:06:59  -118.381635c -3.98  -3.71
iter:  44 23:07:23  -118.381635c -4.32  -3.69
iter:  45 23:07:47  -118.381656c -4.36  -3.65
iter:  46 23:08:12  -118.381687c -4.19  -3.63
iter:  47 23:08:35  -118.381659c -4.55  -3.64
iter:  48 23:08:57  -118.381696c -4.41  -3.62
iter:  49 23:09:21  -118.381729c -4.54  -3.57
iter:  50 23:09:44  -118.381762c -4.75  -3.62
iter:  51 23:10:09  -118.381747c -5.06  -3.68
iter:  52 23:10:32  -118.381767c -4.89  -3.63
iter:  53 23:10:55  -118.381740c -4.99  -3.75
iter:  54 23:11:16  -118.381693c -4.85  -3.83
iter:  55 23:11:39  -118.381696c -5.59  -4.00
iter:  56 23:12:01  -118.381688c -5.47  -4.01c
iter:  57 23:12:22  -118.381686c -5.66  -4.20c
iter:  58 23:12:43  -118.381680c -5.69  -4.30c
iter:  59 23:13:04  -118.381681c -5.71  -4.40c
iter:  60 23:13:25  -118.381691c -5.57  -4.55c
iter:  61 23:13:47  -118.381688c -6.18  -4.75c
iter:  62 23:14:08  -118.381682c -5.82  -4.80c
iter:  63 23:14:29  -118.381683c -6.31  -4.99c
iter:  64 23:14:51  -118.381684c -6.19  -5.06c
iter:  65 23:15:12  -118.381682c -5.72  -5.12c
iter:  66 23:15:34  -118.381681c -6.06  -5.32c
iter:  67 23:15:56  -118.381679c -5.82  -5.41c
iter:  68 23:16:20  -118.381678c -6.14  -5.42c
iter:  69 23:16:43  -118.381678c -6.03  -5.36c
iter:  70 23:17:06  -118.381677c -6.01  -5.30c
iter:  71 23:17:29  -118.381676c -5.87  -5.26c
iter:  72 23:17:52  -118.381675c -6.10  -5.24c
iter:  73 23:18:17  -118.381674c -5.85  -5.22c
iter:  74 23:18:39  -118.381673c -5.87  -5.18c
iter:  75 23:19:02  -118.381672c -6.25  -5.15c
iter:  76 23:19:25  -118.381670c -5.93  -5.16c
iter:  77 23:19:46  -118.381669c -6.04  -5.14c
iter:  78 23:20:10  -118.381668c -6.18  -5.11c
iter:  79 23:20:32  -118.381667c -5.96  -5.10c
iter:  80 23:20:55  -118.381666c -6.37  -5.17c
iter:  81 23:21:16  -118.381666c -5.93  -5.18c
iter:  82 23:21:39  -118.381665c -5.99  -5.25c
iter:  83 23:22:02  -118.381665c -5.95  -5.30c
iter:  84 23:22:23  -118.381664c -6.37  -5.42c
iter:  85 23:22:47  -118.381663c -6.16  -5.58c
iter:  86 23:23:08  -118.381663c -6.41  -5.87c
iter:  87 23:23:30  -118.381662c -6.31  -5.91c
iter:  88 23:23:51  -118.381662c -6.43  -6.08c
iter:  89 23:24:13  -118.381661c -6.42  -6.12c
iter:  90 23:24:36  -118.381661c -6.48  -6.28c
iter:  91 23:24:58  -118.381661c -6.74  -6.38c
iter:  92 23:25:20  -118.381661c -6.67  -6.46c
iter:  93 23:25:41  -118.381660c -6.88  -6.89c
iter:  94 23:26:01  -118.381660c -6.38  -6.80c
iter:  95 23:26:22  -118.381660c -6.34  -6.85c
iter:  96 23:26:43  -118.381660c -6.79  -6.88c
iter:  97 23:27:06  -118.381660c -6.63  -6.82c
iter:  98 23:27:28  -118.381660c -6.69  -6.87c
iter:  99 23:27:50  -118.381659c -6.59  -6.87c
iter: 100 23:28:13  -118.381659c -7.09  -6.85c
iter: 101 23:28:34  -118.381659c -7.07  -6.79c
iter: 102 23:28:54  -118.381659c -7.23  -6.90c
iter: 103 23:29:16  -118.381659c -7.07  -6.88c
iter: 104 23:29:40  -118.381659c -7.02  -6.92c
iter: 105 23:30:04  -118.381659c -7.08  -7.01c
iter: 106 23:30:28  -118.381659c -7.34  -7.02c
iter: 107 23:30:49  -118.381659c -7.26  -6.92c
iter: 108 23:31:10  -118.381659c -7.60c -7.11c

Converged after 108 iterations.

Dipole moment: (-1.567192, -5.760848, 0.598257) |e|*Ang

Energy contributions relative to reference atoms: (reference = -11324.203537)

Kinetic:       +124.662515
Potential:     -117.583703
External:        +0.000000
XC:            -125.154091
Entropy (-ST):   -1.028890
Local:           +0.208065
--------------------------
Free energy:   -118.896104
Extrapolated:  -118.381659

 Band  Eigenvalues  Occupancy
    0    -26.07769    2.00000
    1    -18.93100    2.00000
    2    -15.92095    2.00000
    3    -13.06883    2.00000
    4    -11.87253    2.00000
    5    -11.19266    2.00000
    6     -9.84346    2.00000
    7     -9.57437    2.00000
    8     -8.62540    2.00000
    9     -7.42230    2.00000
   10     -6.03270    2.00000
   11     -5.04446    2.00000
   12     -4.89095    2.00000
   13     -4.88541    2.00000
   14     -4.87666    2.00000
   15     -4.87258    2.00000
   16     -3.94054    1.99999
   17     -3.92189    1.99999
   18     -3.90928    1.99999
   19     -3.89244    1.99998
   20     -3.73993    1.99993
   21     -3.73377    1.99993
   22     -3.73109    1.99992
   23     -3.72540    1.99992
   24     -3.66669    1.99986
   25     -2.71663    1.01719
   26     -2.71046    0.98631
   27     -2.70419    0.95501
   28     -2.69990    0.93361
   29     -2.64725    0.68175
   30     -2.61906    0.56125
   31     -2.59283    0.46165
   32     -2.55503    0.34113
   33     -2.36946    0.06230
   34     -1.73040    0.00011
   35     -1.70614    0.00008
   36     -1.67592    0.00006
   37     -1.63415    0.00004

Fermi level: -2.71319

Gap: 0.006 eV
Transition (v -> c):
  (s=0, k=0, n=25, [0.00, 0.00, 0.00]) -> (s=0, k=0, n=26, [0.00, 0.00, 0.00])
Timing:                               incl.     excl.
------------------------------------------------------------
Hamiltonian:                          1.062     0.000   0.0% |
 Atomic:                              0.033     0.001   0.0% |
  XC Correction:                      0.032     0.032   0.0% |
 Calculate atomic Hamiltonians:       0.148     0.148   0.0% |
 Communicate:                         0.052     0.052   0.0% |
 Hartree integrate/restrict:          0.083     0.083   0.0% |
 Initialize Hamiltonian:              0.000     0.000   0.0% |
 Poisson:                             0.547     0.031   0.0% |
  Communicate from 1D:                0.053     0.053   0.0% |
  Communicate from 2D:                0.172     0.172   0.0% |
  Communicate to 1D:                  0.073     0.073   0.0% |
  Communicate to 2D:                  0.109     0.109   0.0% |
  FFT 1D:                             0.064     0.064   0.0% |
  FFT 2D:                             0.046     0.046   0.0% |
 XC 3D grid:                          0.196     0.196   0.0% |
 vbar:                                0.001     0.001   0.0% |
HirshfeldPartitioning initialize:     4.108     4.108   0.0% |
LCAO initialization:                  1.828     0.378   0.0% |
 LCAO eigensolver:                    0.557     0.000   0.0% |
  Calculate projections:              0.000     0.000   0.0% |
  DenseAtomicCorrection:              0.000     0.000   0.0% |
  Distribute overlap matrix:          0.489     0.489   0.0% |
  Orbital Layouts:                    0.067     0.067   0.0% |
  Potential matrix:                   0.000     0.000   0.0% |
 LCAO to grid:                        0.003     0.003   0.0% |
 Set positions (LCAO WFS):            0.890     0.759   0.0% |
  Basic WFS set positions:            0.004     0.004   0.0% |
  Basis functions set positions:      0.001     0.001   0.0% |
  P tci:                              0.000     0.000   0.0% |
  ST tci:                             0.022     0.022   0.0% |
  mktci:                              0.104     0.104   0.0% |
SCF-cycle:                         2425.975     1.535   0.0% |
 Davidson:                         2259.159  1887.010   0.7% |
  Apply hamiltonian:                 59.913    59.913   0.0% |
  Subspace diag:                     83.663     0.018   0.0% |
   calc_h_matrix:                    63.681     4.095   0.0% |
    Apply hamiltonian:               59.587    59.587   0.0% |
   diagonalize:                      11.299    11.299   0.0% |
   rotate_psi:                        8.664     8.664   0.0% |
  calc. matrices:                   206.592    62.337   0.0% |
   Apply hamiltonian:               144.255   144.255   0.1% |
  diagonalize:                        0.690     0.690   0.0% |
  rotate_psi:                        21.292    21.292   0.0% |
 Density:                            41.898     0.034   0.0% |
  Atomic density matrices:            4.393     4.393   0.0% |
  Mix:                               33.865    33.865   0.0% |
  Multipole moments:                  1.493     1.493   0.0% |
  Pseudo density:                     2.113     2.094   0.0% |
   Symmetrize density:                0.019     0.019   0.0% |
 Hamiltonian:                       121.953     0.015   0.0% |
  Atomic:                             3.602     0.454   0.0% |
   XC Correction:                     3.148     3.148   0.0% |
  Calculate atomic Hamiltonians:     14.881    14.881   0.0% |
  Communicate:                        8.680     8.680   0.0% |
  Hartree integrate/restrict:         7.881     7.881   0.0% |
  Poisson:                           65.267     3.816   0.0% |
   Communicate from 1D:              13.992    13.992   0.0% |
   Communicate from 2D:              14.608    14.608   0.0% |
   Communicate to 1D:                 7.609     7.609   0.0% |
   Communicate to 2D:                16.013    16.013   0.0% |
   FFT 1D:                            5.195     5.195   0.0% |
   FFT 2D:                            4.034     4.034   0.0% |
  XC 3D grid:                        21.372    21.372   0.0% |
  vbar:                               0.254     0.254   0.0% |
 Orthonormalize:                      1.429     0.000   0.0% |
  calc_s_matrix:                      0.011     0.011   0.0% |
  inverse-cholesky:                   1.366     1.366   0.0% |
  projections:                        0.000     0.000   0.0% |
  rotate_psi_s:                       0.051     0.051   0.0% |
Set symmetry:                         0.012     0.012   0.0% |
Other:                            258616.759 258616.759  99.1% |---------------------------------------|
------------------------------------------------------------
Total:                                      261049.743 100.0%

Memory usage: 4.54 GiB
Date: Tue Feb 28 23:21:27 2023
