
  ___ ___ ___ _ _ _  
 |   |   |_  | | | | 
 | | | | | . | | | | 
 |__ |  _|___|_____|  22.8.0
 |___|_|             

User:   vazumah@c16.hercules
Date:   Tue Mar 14 07:48:35 2023
Arch:   x86_64
Pid:    20704
CWD:    /home/vazumah/Python_projects/LiNRR/Li_adsorb_studies/proton_donors/N2_with_proton_donor/Li_BCC_100/adsorbates/ethanediol_y/bridge/0.0_1.617/N2_x
Python: 3.10.8
gpaw:   /home/vazumah/.conda/envs/GPAW/lib/python3.10/site-packages/gpaw
_gpaw:  /home/vazumah/.conda/envs/GPAW/lib/python3.10/site-packages/
        _gpaw.cpython-310-x86_64-linux-gnu.so
ase:    /home/vazumah/.conda/envs/GPAW/lib/python3.10/site-packages/ase (version 3.22.1)
numpy:  /home/vazumah/.conda/envs/GPAW/lib/python3.10/site-packages/numpy (version 1.24.1)
scipy:  /home/vazumah/.conda/envs/GPAW/lib/python3.10/site-packages/scipy (version 1.10.0)
libxc:  5.2.3
units:  Angstrom and eV
cores: 24
OpenMP: True
OMP_NUM_THREADS: 1

Reading from output.gpw
Reading input parameters:
  h: 0.16
  kpts: {size: [4, 4, 1]}
  occupations: {name: fermi-dirac,
                width: 0.05}
  poissonsolver: {dipolelayer: xy}
  xc: BEEF-vdW

Initialize ...

species:
  Li:
    name: Lithium
    id: 830b4218f175192f93f959cfc0aad614
    Z: 3.0
    valence: 1
    core: 2
    charge: 0.0
    file: /home/vazumah/.conda/envs/GPAW/share/gpaw/Li.PBE.gz
    compensation charges: {type: gauss,
                           rc: 0.33,
                           lmax: 2}
    cutoffs: {filter: 1.91,
              core: 2.55}
    valence states:
      #              energy  rcut
      - 2s(1.00)    -2.874   1.058
      - 2p(0.00)    -1.090   1.058
      -  s          24.337   1.058
  
    # Using partial waves for Li as LCAO basis

  O:
    name: Oxygen
    id: 32ecd46bf208036f09c70b0ec9a88b78
    Z: 8.0
    valence: 6
    core: 2
    charge: 0.0
    file: /home/vazumah/.conda/envs/GPAW/share/gpaw/O.PBE.gz
    compensation charges: {type: gauss,
                           rc: 0.21,
                           lmax: 2}
    cutoffs: {filter: 1.17,
              core: 0.83}
    valence states:
      #              energy  rcut
      - 2s(2.00)   -23.961   0.688
      - 2p(4.00)    -9.029   0.598
      -  s           3.251   0.688
      -  p          18.182   0.598
      -  d           0.000   0.619
  
    # Using partial waves for O as LCAO basis

  C:
    name: Carbon
    id: 4aa54d4b901d75f77cc0ea3eec22967b
    Z: 6.0
    valence: 4
    core: 2
    charge: 0.0
    file: /home/vazumah/.conda/envs/GPAW/share/gpaw/C.PBE.gz
    compensation charges: {type: gauss,
                           rc: 0.20,
                           lmax: 2}
    cutoffs: {filter: 1.14,
              core: 1.14}
    valence states:
      #              energy  rcut
      - 2s(2.00)   -13.751   0.635
      - 2p(2.00)    -5.284   0.635
      -  s          13.461   0.635
      -  p          21.927   0.635
      -  d           0.000   0.635
  
    # Using partial waves for C as LCAO basis

  H:
    name: Hydrogen
    id: d65de229564ff8ea4db303e23b6d1ecf
    Z: 1.0
    valence: 1
    core: 0
    charge: 0.0
    file: /home/vazumah/.conda/envs/GPAW/share/gpaw/H.PBE.gz
    compensation charges: {type: gauss,
                           rc: 0.15,
                           lmax: 2}
    cutoffs: {filter: 0.85,
              core: 0.53}
    valence states:
      #              energy  rcut
      - 1s(1.00)    -6.494   0.476
      -  s          20.717   0.476
      -  p           0.000   0.476
  
    # Using partial waves for H as LCAO basis

  N:
    name: Nitrogen
    id: f7500608b86eaa90eef8b1d9a670dc53
    Z: 7.0
    valence: 5
    core: 2
    charge: 0.0
    file: /home/vazumah/.conda/envs/GPAW/share/gpaw/N.PBE.gz
    compensation charges: {type: gauss,
                           rc: 0.18,
                           lmax: 2}
    cutoffs: {filter: 1.11,
              core: 0.96}
    valence states:
      #              energy  rcut
      - 2s(2.00)   -18.583   0.603
      - 2p(3.00)    -7.089   0.529
      -  s           8.629   0.603
      -  p          20.123   0.529
      -  d           0.000   0.577
  
    # Using partial waves for N as LCAO basis

Reference energy: -16475.706344  # eV

Spin-paired calculation

Convergence criteria:
 Maximum [total energy] change in last 3 cyles: 0.0005 eV / electron
 Maximum integral of absolute [dens]ity change: 0.0001 electrons / valence electron
 Maximum integral of absolute [eigenst]ate change: 4e-08 eV^2 / valence electron
 Maximum number of scf [iter]ations: 333
 (Square brackets indicate name in SCF output, whereas a 'c' in
 the SCF output indicates the quantity has converged.)

Symmetries present (total): 1

  ( 1  0  0)
  ( 0  1  0)
  ( 0  0  1)

16 k-points: 4 x 4 x 1 Monkhorst-Pack grid
8 k-points in the irreducible part of the Brillouin zone
       k-points in crystal coordinates                weights
   0:     0.12500000   -0.37500000    0.00000000          2/16
   1:     0.12500000   -0.12500000    0.00000000          2/16
   2:     0.12500000    0.12500000    0.00000000          2/16
   3:     0.12500000    0.37500000    0.00000000          2/16
   4:     0.37500000   -0.37500000    0.00000000          2/16
   5:     0.37500000   -0.12500000    0.00000000          2/16
   6:     0.37500000    0.12500000    0.00000000          2/16
   7:     0.37500000    0.37500000    0.00000000          2/16

Wave functions: Uniform real-space grid
  Kinetic energy operator: 6*3+1=19 point O(h^6) finite-difference Laplacian
  ScaLapack parameters: grid=1x1, blocksize=None
  Wavefunction extrapolation:
    Improved wavefunction reuse through dual PAW basis 

Occupation numbers: Fermi-Dirac:
  width: 0.0500  # eV
 

Eigensolver
   Davidson(niter=2) 

Densities:
  Coarse grid: 60*60*164 grid
  Fine grid: 120*120*328 grid
  Total Charge: 0.000000 

Density mixing:
  Method: separate
  Backend: pulay
  Linear mixing parameter: 0.05
  old densities: 5
  Damping of long wavelength oscillations: 50 

Hamiltonian:
  XC and Coulomb potentials evaluated on a 120*120*328 grid
  Using the BEEF-vdW Exchange-Correlation functional
  Interpolation: tri-quintic (5. degree polynomial)
  Poisson solver: FastPoissonSolver using
    Stencil: 6*3+1=19 point O(h^6) finite-difference Laplacian
    FFT axes: [0, 1]
    FST axes: [2]

Dipole correction along z-axis 

XC parameters: BEEF-vdW with 2 nearest neighbor stencil

Memory estimate:
  Process memory now: 263.33 MiB
  Calculator: 455.12 MiB
    Density: 120.87 MiB
      Arrays: 38.89 MiB
      Localized functions: 67.14 MiB
      Mixer: 14.83 MiB
    Hamiltonian: 30.74 MiB
      Arrays: 25.43 MiB
      XC: 0.00 MiB
      Poisson: 0.00 MiB
      vbar: 5.30 MiB
    Wavefunctions: 303.52 MiB
      Arrays psit_nG: 142.38 MiB
      Eigensolver: 157.57 MiB
      Projections: 0.07 MiB
      Projectors: 3.49 MiB

Total number of cores used: 24
Parallelization over k-points: 8
Domain decomposition: 1 x 1 x 3

Number of atoms: 48
Number of atomic orbitals: 174
Number of bands in calculation: 48
Number of valence electrons: 72
Bands to converge: occupied

... initialized

Initializing position-dependent things.

Creating initial wave functions:
  48 bands from LCAO basis set

       .-----------------------.  
      /|                       |  
     / |                       |  
    /  |                       |  
   /   |                       |  
  /    |                       |  
 *     |                       |  
 |     |                       |  
 |     |                       |  
 |     |                       |  
 |     |                       |  
 |  H  |                       |  
 | O  H|H                      |  
 |    CLi      Li        H     |  
 |   H |H                  O   |  
 |   Li|     Li      Li        |  
 |     |                       |  
 |     |  LLi     LLi     Li   |  
 |     |             N N       |  
 |     |Li      LiLi    Li     |  
 |   Li|     Li      LLi       |  
 |    Li  Li  Li  Li      Li   |  
 | Li  |   Li      Li          |  
 |     |Li      Li      Li     |  
 Li    | Li      Li            |  
 |    Li      Li      Li       |  
 |     |                       |  
 |     |                       |  
 |     |                       |  
 |     |                       |  
 |     |                       |  
 |     |                       |  
 |     .-----------------------.  
 |    /                       /   
 |   /                       /    
 |  /                       /     
 | /                       /      
 |/                       /       
 *-----------------------*        

Positions:
   0 Li     1.617037    1.617037   10.000000    ( 0.0000,  0.0000,  0.0000)
   1 Li     4.851111    1.617037   10.000000    ( 0.0000,  0.0000,  0.0000)
   2 Li     8.085185    1.617037   10.000000    ( 0.0000,  0.0000,  0.0000)
   3 Li     1.617037    4.851111   10.000000    ( 0.0000,  0.0000,  0.0000)
   4 Li     4.851111    4.851111   10.000000    ( 0.0000,  0.0000,  0.0000)
   5 Li     8.085185    4.851111   10.000000    ( 0.0000,  0.0000,  0.0000)
   6 Li     1.617037    8.085185   10.000000    ( 0.0000,  0.0000,  0.0000)
   7 Li     4.851111    8.085185   10.000000    ( 0.0000,  0.0000,  0.0000)
   8 Li     8.085185    8.085185   10.000000    ( 0.0000,  0.0000,  0.0000)
   9 Li     0.000000    0.000000   11.617037    ( 0.0000,  0.0000,  0.0000)
  10 Li     3.234074    0.000000   11.617037    ( 0.0000,  0.0000,  0.0000)
  11 Li     6.468148    0.000000   11.617037    ( 0.0000,  0.0000,  0.0000)
  12 Li     0.000000    3.234074   11.617037    ( 0.0000,  0.0000,  0.0000)
  13 Li     3.234074    3.234074   11.617037    ( 0.0000,  0.0000,  0.0000)
  14 Li     6.468148    3.234074   11.617037    ( 0.0000,  0.0000,  0.0000)
  15 Li     0.000000    6.468148   11.617037    ( 0.0000,  0.0000,  0.0000)
  16 Li     3.234074    6.468148   11.617037    ( 0.0000,  0.0000,  0.0000)
  17 Li     6.468148    6.468148   11.617037    ( 0.0000,  0.0000,  0.0000)
  18 Li     1.596396    1.577294   13.519920    ( 0.0000,  0.0000,  0.0000)
  19 Li     4.920017    1.626784   13.469341    ( 0.0000,  0.0000,  0.0000)
  20 Li     8.174880    1.671104   13.653368    ( 0.0000,  0.0000,  0.0000)
  21 Li     1.558669    4.801169   13.463195    ( 0.0000,  0.0000,  0.0000)
  22 Li     4.846111    4.897263   13.453867    ( 0.0000,  0.0000,  0.0000)
  23 Li     8.048551    4.834988   13.495347    ( 0.0000,  0.0000,  0.0000)
  24 Li     1.648213    8.060692   13.497113    ( 0.0000,  0.0000,  0.0000)
  25 Li     4.939855    8.150611   13.470800    ( 0.0000,  0.0000,  0.0000)
  26 Li     8.138564    8.112541   13.521108    ( 0.0000,  0.0000,  0.0000)
  27 Li     0.139151   -0.144069   15.546997    ( 0.0000,  0.0000,  0.0000)
  28 Li     3.421591   -0.041047   15.412897    ( 0.0000,  0.0000,  0.0000)
  29 Li     6.748890    0.228777   15.588111    ( 0.0000,  0.0000,  0.0000)
  30 Li    -0.233632    3.022124   15.923005    ( 0.0000,  0.0000,  0.0000)
  31 Li     3.218475    3.272287   15.279334    ( 0.0000,  0.0000,  0.0000)
  32 Li     6.341604    3.317495   15.479842    ( 0.0000,  0.0000,  0.0000)
  33 Li     0.048194    6.340777   15.430387    ( 0.0000,  0.0000,  0.0000)
  34 Li     3.258167    6.464779   15.388251    ( 0.0000,  0.0000,  0.0000)
  35 Li     6.419019    6.599559   15.420419    ( 0.0000,  0.0000,  0.0000)
  36 O      0.185900    2.410458   20.340036    ( 0.0000,  0.0000,  0.0000)
  37 O     -0.062964    3.772346   17.777630    ( 0.0000,  0.0000,  0.0000)
  38 C      1.306645    2.612051   19.453369    ( 0.0000,  0.0000,  0.0000)
  39 C      1.094362    3.872215   18.637102    ( 0.0000,  0.0000,  0.0000)
  40 H      2.246547    2.703166   20.007589    ( 0.0000,  0.0000,  0.0000)
  41 H      1.378761    1.743540   18.788343    ( 0.0000,  0.0000,  0.0000)
  42 H      1.944727    4.043638   17.971570    ( 0.0000,  0.0000,  0.0000)
  43 H      0.982361    4.741810   19.295044    ( 0.0000,  0.0000,  0.0000)
  44 H      0.506363    2.384557   21.245707    ( 0.0000,  0.0000,  0.0000)
  45 H     -0.836789    3.618824   18.339350    ( 0.0000,  0.0000,  0.0000)
  46 N     -1.144626    1.169996   15.679220    ( 0.0000,  0.0000,  0.0000)
  47 N     -2.043370    2.048247   15.669359    ( 0.0000,  0.0000,  0.0000)

Unit cell:
           periodic     x           y           z      points  spacing
  1. axis:    yes    9.702222    0.000000    0.000000    60     0.1617
  2. axis:    yes    0.000000    9.702222    0.000000    60     0.1617
  3. axis:    no     0.000000    0.000000   26.351111   164     0.1607

  Lengths:   9.702222   9.702222  26.351111
  Angles:   90.000000  90.000000  90.000000

Effective grid spacing dv^(1/3) = 0.1614

     iter     time        total  log10-change:
                         energy  eigst   dens
iter:   1 07:52:09  -327.569357  +1.09
iter:   2 07:54:45  -328.253717  +0.38  -1.76
iter:   3 07:57:33  -328.416110  -0.11  -2.04
iter:   4 08:00:22  -328.478920  -0.50  -2.29
iter:   5 08:03:05  -328.507751  -0.84  -2.47
iter:   6 08:05:53  -328.521871  -1.17  -2.57
iter:   7 08:08:43  -328.531649c -1.41  -2.66
iter:   8 08:11:30  -328.536266c -1.69  -2.60
iter:   9 08:14:15  -328.539197c -1.87  -2.63
iter:  10 08:17:05  -328.540076c -1.92  -2.67
iter:  11 08:19:42  -328.541765c -1.92  -2.95
iter:  12 08:22:23  -328.543131c -2.28  -3.25
iter:  13 08:25:11  -328.544041c -2.40  -3.33
iter:  14 08:27:55  -328.544778c -2.40  -3.33
iter:  15 08:30:46  -328.545459c -2.54  -3.27
iter:  16 08:33:31  -328.546029c -2.55  -3.10
iter:  17 08:36:18  -328.546104c -2.86  -3.01
iter:  18 08:39:09  -328.546435c -3.02  -3.11
iter:  19 08:41:50  -328.546432c -3.16  -3.02
iter:  20 08:44:33  -328.546608c -3.29  -3.09
iter:  21 08:47:26  -328.546770c -3.25  -3.02
iter:  22 08:50:17  -328.546581c -3.56  -3.00
iter:  23 08:53:07  -328.546732c -3.67  -3.13
iter:  24 08:55:49  -328.546602c -3.77  -3.05
iter:  25 08:58:31  -328.546623c -3.96  -3.15
iter:  26 09:01:20  -328.546684c -4.01  -3.16
iter:  27 09:04:04  -328.546652c -4.16  -3.10
iter:  28 09:06:50  -328.546592c -4.19  -3.16
iter:  29 09:09:35  -328.546569c -4.39  -3.23
iter:  30 09:12:14  -328.546479c -4.17  -3.27
iter:  31 09:15:03  -328.546478c -4.31  -3.46
iter:  32 09:17:59  -328.546470c -4.24  -3.52
iter:  33 09:20:37  -328.546423c -4.33  -3.47
iter:  34 09:23:18  -328.546428c -4.22  -3.72
iter:  35 09:25:59  -328.546429c -4.61  -3.86
iter:  36 09:28:40  -328.546436c -4.69  -3.93
iter:  37 09:31:27  -328.546444c -4.72  -3.93
iter:  38 09:34:11  -328.546455c -4.90  -3.94
iter:  39 09:36:57  -328.546450c -5.43  -3.92
iter:  40 09:39:44  -328.546448c -5.84  -3.98
iter:  41 09:42:25  -328.546446c -5.83  -4.01c
iter:  42 09:45:04  -328.546440c -5.82  -4.04c
iter:  43 09:47:42  -328.546437c -5.74  -4.07c
iter:  44 09:50:26  -328.546438c -5.91  -4.18c
iter:  45 09:53:06  -328.546449c -6.02  -4.24c
iter:  46 09:55:46  -328.546449c -6.24  -4.40c
iter:  47 09:58:26  -328.546448c -6.41  -4.46c
iter:  48 10:01:11  -328.546447c -6.53  -4.52c
iter:  49 10:03:54  -328.546444c -6.28  -4.57c
iter:  50 10:06:45  -328.546445c -6.60  -4.78c
iter:  51 10:09:28  -328.546446c -6.68  -4.81c
iter:  52 10:12:07  -328.546446c -6.73  -4.85c
iter:  53 10:14:50  -328.546447c -6.88  -5.00c
iter:  54 10:17:32  -328.546446c -6.85  -5.08c
iter:  55 10:20:12  -328.546446c -7.18  -5.11c
iter:  56 10:22:56  -328.546446c -7.10  -5.19c
iter:  57 10:25:40  -328.546446c -7.21  -5.18c
iter:  58 10:28:18  -328.546446c -7.56c -5.41c

Converged after 58 iterations.

Dipole moment: (-15.127646, -2.438267, 0.505268) |e|*Ang

Energy contributions relative to reference atoms: (reference = -16475.706344)

Kinetic:       +159.485904
Potential:     -151.904580
External:        +0.000000
XC:            -337.200552
Entropy (-ST):   -0.162169
Local:           +1.153866
--------------------------
Free energy:   -328.627531
Extrapolated:  -328.546446

Dipole-layer corrected work functions: 3.391053, 2.419755 eV

Showing only first 2 kpts
 Kpt  Band  Eigenvalues  Occupancy
  0    34     -3.10559    1.96416
  0    35     -2.92460    1.18963
  0    36     -2.88942    0.84148
  0    37     -2.80116    0.22116

  1    34     -3.19109    1.99342
  1    35     -2.87292    0.68612
  1    36     -2.80096    0.22035
  1    37     -2.74271    0.07438


Fermi level: -2.90540

No gap
