
  ___ ___ ___ _ _ _  
 |   |   |_  | | | | 
 | | | | | . | | | | 
 |__ |  _|___|_____|  22.8.0
 |___|_|             

User:   vazumah@r253.ib.bridges2.psc.edu
Date:   Fri Mar 10 10:03:24 2023
Arch:   x86_64
Pid:    61354
CWD:    /jet/home/vazumah/Calcs/LiMEAS/proton_donors/butanol_x/bridge/8.085_1.617/N2_z
Python: 3.11.0
gpaw:   /jet/home/vazumah/.conda/envs/GPAW_mpich/lib/python3.11/site-packages/gpaw
_gpaw:  /jet/home/vazumah/.conda/envs/GPAW_mpich/lib/python3.11/site-packages/
        _gpaw.cpython-311-x86_64-linux-gnu.so
ase:    /jet/home/vazumah/.conda/envs/GPAW_mpich/lib/python3.11/site-packages/ase (version 3.22.1)
numpy:  /jet/home/vazumah/.conda/envs/GPAW_mpich/lib/python3.11/site-packages/numpy (version 1.24.2)
scipy:  /jet/home/vazumah/.conda/envs/GPAW_mpich/lib/python3.11/site-packages/scipy (version 1.10.1)
libxc:  5.2.3
units:  Angstrom and eV
cores: 128
OpenMP: True
OMP_NUM_THREADS: 1

Input parameters:
  h: 0.16
  kpts: {size: [4, 4, 1]}
  occupations: {name: fermi-dirac,
                width: 0.05}
  poissonsolver: {dipolelayer: xy}
  xc: BEEF-vdW

System changes: positions, numbers, cell, pbc, initial_charges, initial_magmoms 

Initialize ...

species:
  Li:
    name: Lithium
    id: 830b4218f175192f93f959cfc0aad614
    Z: 3.0
    valence: 1
    core: 2
    charge: 0.0
    file: /jet/home/vazumah/datasets/gpaw-setups-0.9.20000/Li.PBE.gz
    compensation charges: {type: gauss,
                           rc: 0.33,
                           lmax: 2}
    cutoffs: {filter: 1.91,
              core: 2.55}
    valence states:
      #              energy  rcut
      - 2s(1.00)    -2.874   1.058
      - 2p(0.00)    -1.090   1.058
      -  s          24.337   1.058
  
    # Using partial waves for Li as LCAO basis

  O:
    name: Oxygen
    id: 32ecd46bf208036f09c70b0ec9a88b78
    Z: 8.0
    valence: 6
    core: 2
    charge: 0.0
    file: /jet/home/vazumah/datasets/gpaw-setups-0.9.20000/O.PBE.gz
    compensation charges: {type: gauss,
                           rc: 0.21,
                           lmax: 2}
    cutoffs: {filter: 1.17,
              core: 0.83}
    valence states:
      #              energy  rcut
      - 2s(2.00)   -23.961   0.688
      - 2p(4.00)    -9.029   0.598
      -  s           3.251   0.688
      -  p          18.182   0.598
      -  d           0.000   0.619
  
    # Using partial waves for O as LCAO basis

  C:
    name: Carbon
    id: 4aa54d4b901d75f77cc0ea3eec22967b
    Z: 6.0
    valence: 4
    core: 2
    charge: 0.0
    file: /jet/home/vazumah/datasets/gpaw-setups-0.9.20000/C.PBE.gz
    compensation charges: {type: gauss,
                           rc: 0.20,
                           lmax: 2}
    cutoffs: {filter: 1.14,
              core: 1.14}
    valence states:
      #              energy  rcut
      - 2s(2.00)   -13.751   0.635
      - 2p(2.00)    -5.284   0.635
      -  s          13.461   0.635
      -  p          21.927   0.635
      -  d           0.000   0.635
  
    # Using partial waves for C as LCAO basis

  H:
    name: Hydrogen
    id: d65de229564ff8ea4db303e23b6d1ecf
    Z: 1.0
    valence: 1
    core: 0
    charge: 0.0
    file: /jet/home/vazumah/datasets/gpaw-setups-0.9.20000/H.PBE.gz
    compensation charges: {type: gauss,
                           rc: 0.15,
                           lmax: 2}
    cutoffs: {filter: 0.85,
              core: 0.53}
    valence states:
      #              energy  rcut
      - 1s(1.00)    -6.494   0.476
      -  s          20.717   0.476
      -  p           0.000   0.476
  
    # Using partial waves for H as LCAO basis

  N:
    name: Nitrogen
    id: f7500608b86eaa90eef8b1d9a670dc53
    Z: 7.0
    valence: 5
    core: 2
    charge: 0.0
    file: /jet/home/vazumah/datasets/gpaw-setups-0.9.20000/N.PBE.gz
    compensation charges: {type: gauss,
                           rc: 0.18,
                           lmax: 2}
    cutoffs: {filter: 1.11,
              core: 0.96}
    valence states:
      #              energy  rcut
      - 2s(2.00)   -18.583   0.603
      - 2p(3.00)    -7.089   0.529
      -  s           8.629   0.603
      -  p          20.123   0.529
      -  d           0.000   0.577
  
    # Using partial waves for N as LCAO basis

Reference energy: -16540.070923  # eV

Spin-paired calculation

Convergence criteria:
 Maximum [total energy] change in last 3 cyles: 0.0005 eV / electron
 Maximum integral of absolute [dens]ity change: 0.0001 electrons / valence electron
 Maximum integral of absolute [eigenst]ate change: 4e-08 eV^2 / valence electron
 Maximum number of scf [iter]ations: 333
 (Square brackets indicate name in SCF output, whereas a 'c' in
 the SCF output indicates the quantity has converged.)

Symmetries present (total): 1

  ( 1  0  0)
  ( 0  1  0)
  ( 0  0  1)

16 k-points: 4 x 4 x 1 Monkhorst-Pack grid
8 k-points in the irreducible part of the Brillouin zone
       k-points in crystal coordinates                weights
   0:     0.12500000   -0.37500000    0.00000000          2/16
   1:     0.12500000   -0.12500000    0.00000000          2/16
   2:     0.12500000    0.12500000    0.00000000          2/16
   3:     0.12500000    0.37500000    0.00000000          2/16
   4:     0.37500000   -0.37500000    0.00000000          2/16
   5:     0.37500000   -0.12500000    0.00000000          2/16
   6:     0.37500000    0.12500000    0.00000000          2/16
   7:     0.37500000    0.37500000    0.00000000          2/16

Wave functions: Uniform real-space grid
  Kinetic energy operator: 6*3+1=19 point O(h^6) finite-difference Laplacian
  ScaLapack parameters: grid=1x1, blocksize=None
  Wavefunction extrapolation:
    Improved wavefunction reuse through dual PAW basis 

Occupation numbers: Fermi-Dirac:
  width: 0.0500  # eV
 

Eigensolver
   Davidson(niter=2) 

Densities:
  Coarse grid: 60*60*168 grid
  Fine grid: 120*120*336 grid
  Total Charge: 0.000000 

Density mixing:
  Method: separate
  Backend: pulay
  Linear mixing parameter: 0.05
  old densities: 5
  Damping of long wavelength oscillations: 50 

Hamiltonian:
  XC and Coulomb potentials evaluated on a 120*120*336 grid
  Using the BEEF-vdW Exchange-Correlation functional
  Interpolation: tri-quintic (5. degree polynomial)
  Poisson solver: FastPoissonSolver using
    Stencil: 6*3+1=19 point O(h^6) finite-difference Laplacian
    FFT axes: [0, 1]
    FST axes: [2]

Dipole correction along z-axis 

XC parameters: BEEF-vdW with 2 nearest neighbor stencil

Memory estimate:
  Process memory now: 127.88 MiB
  Calculator: 90.37 MiB
    Density: 23.17 MiB
      Arrays: 7.40 MiB
      Localized functions: 12.95 MiB
      Mixer: 2.82 MiB
    Hamiltonian: 5.86 MiB
      Arrays: 4.84 MiB
      XC: 0.00 MiB
      Poisson: 0.00 MiB
      vbar: 1.02 MiB
    Wavefunctions: 61.34 MiB
      Arrays psit_nG: 28.72 MiB
      Eigensolver: 31.93 MiB
      Projections: 0.02 MiB
      Projectors: 0.68 MiB

Total number of cores used: 128
Parallelization over k-points: 8
Domain decomposition: 2 x 2 x 4

Number of atoms: 53
Number of atomic orbitals: 182
Number of bands in calculation: 51
Number of valence electrons: 78
Bands to converge: occupied

... initialized

Initializing position-dependent things.

Density initialized from atomic densities
Creating initial wave functions:
  51 bands from LCAO basis set

       .-----------------------.  
      /|                       |  
     / |                       |  
    /  |                       |  
   /   |                       |  
  /    |                       |  
 *     |                       |  
 |     |                       |  
 |     |                       |  
 |     |                       |  
 |     |                       |  
 |     |                       |  
 |     |      H     H          |  
 |     |HH   C  H   C          |  
 |     |  C   H C   H O        |  
 |     | H     H      H        |  
 |   Li|     Li      Li        |  
 |     |  Li      Li  N   Li   |  
 | Li  |   Li      Li          |  
 |     |Li      Li      Li     |  
 Li    | Li      Li            |  
 |   LLi     LLi     LLi       |  
 |     |  Li      Li      Li   |  
 | Li  |   Li      Li          |  
 |     |Li      Li      Li     |  
 Li    | Li      Li            |  
 |    Li      Li      Li       |  
 |     |                       |  
 |     |                       |  
 |     |                       |  
 |     |                       |  
 |     |                       |  
 |     |                       |  
 |     .-----------------------.  
 |    /                       /   
 |   /                       /    
 |  /                       /     
 | /                       /      
 |/                       /       
 *-----------------------*        

Positions:
   0 Li     1.617037    1.617037   10.000000    ( 0.0000,  0.0000,  0.0000)
   1 Li     4.851111    1.617037   10.000000    ( 0.0000,  0.0000,  0.0000)
   2 Li     8.085185    1.617037   10.000000    ( 0.0000,  0.0000,  0.0000)
   3 Li     1.617037    4.851111   10.000000    ( 0.0000,  0.0000,  0.0000)
   4 Li     4.851111    4.851111   10.000000    ( 0.0000,  0.0000,  0.0000)
   5 Li     8.085185    4.851111   10.000000    ( 0.0000,  0.0000,  0.0000)
   6 Li     1.617037    8.085185   10.000000    ( 0.0000,  0.0000,  0.0000)
   7 Li     4.851111    8.085185   10.000000    ( 0.0000,  0.0000,  0.0000)
   8 Li     8.085185    8.085185   10.000000    ( 0.0000,  0.0000,  0.0000)
   9 Li     0.000000    0.000000   11.617037    ( 0.0000,  0.0000,  0.0000)
  10 Li     3.234074    0.000000   11.617037    ( 0.0000,  0.0000,  0.0000)
  11 Li     6.468148    0.000000   11.617037    ( 0.0000,  0.0000,  0.0000)
  12 Li     0.000000    3.234074   11.617037    ( 0.0000,  0.0000,  0.0000)
  13 Li     3.234074    3.234074   11.617037    ( 0.0000,  0.0000,  0.0000)
  14 Li     6.468148    3.234074   11.617037    ( 0.0000,  0.0000,  0.0000)
  15 Li     0.000000    6.468148   11.617037    ( 0.0000,  0.0000,  0.0000)
  16 Li     3.234074    6.468148   11.617037    ( 0.0000,  0.0000,  0.0000)
  17 Li     6.468148    6.468148   11.617037    ( 0.0000,  0.0000,  0.0000)
  18 Li     1.617038    1.617038   13.469728    ( 0.0000,  0.0000,  0.0000)
  19 Li     4.851111    1.617038   13.469729    ( 0.0000,  0.0000,  0.0000)
  20 Li     8.085184    1.617038   13.469728    ( 0.0000,  0.0000,  0.0000)
  21 Li     1.617038    4.851111   13.469729    ( 0.0000,  0.0000,  0.0000)
  22 Li     4.851111    4.851111   13.469730    ( 0.0000,  0.0000,  0.0000)
  23 Li     8.085184    4.851111   13.469729    ( 0.0000,  0.0000,  0.0000)
  24 Li     1.617038    8.085184   13.469728    ( 0.0000,  0.0000,  0.0000)
  25 Li     4.851111    8.085184   13.469729    ( 0.0000,  0.0000,  0.0000)
  26 Li     8.085184    8.085184   13.469728    ( 0.0000,  0.0000,  0.0000)
  27 Li    -0.000000   -0.000000   15.445939    ( 0.0000,  0.0000,  0.0000)
  28 Li     3.234074    0.000000   15.445939    ( 0.0000,  0.0000,  0.0000)
  29 Li     6.468148    0.000000   15.445939    ( 0.0000,  0.0000,  0.0000)
  30 Li     0.000000    3.234074   15.445939    ( 0.0000,  0.0000,  0.0000)
  31 Li     3.234076    3.234076   15.445938    ( 0.0000,  0.0000,  0.0000)
  32 Li     6.468146    3.234076   15.445938    ( 0.0000,  0.0000,  0.0000)
  33 Li     0.000000    6.468148   15.445939    ( 0.0000,  0.0000,  0.0000)
  34 Li     3.234076    6.468146   15.445938    ( 0.0000,  0.0000,  0.0000)
  35 Li     6.468146    6.468146   15.445938    ( 0.0000,  0.0000,  0.0000)
  36 O      8.085185    1.617037   19.645939    ( 0.0000,  0.0000,  0.0000)
  37 C      5.618126    1.604696   19.681765    ( 0.0000,  0.0000,  0.0000)
  38 C      4.348565    2.459748   19.668355    ( 0.0000,  0.0000,  0.0000)
  39 C      6.900702    2.427516   19.646147    ( 0.0000,  0.0000,  0.0000)
  40 C      3.075854    1.608762   19.652726    ( 0.0000,  0.0000,  0.0000)
  41 H      5.632924    0.971527   20.575259    ( 0.0000,  0.0000,  0.0000)
  42 H      5.604809    0.934508   18.810409    ( 0.0000,  0.0000,  0.0000)
  43 H      4.361526    3.118823   18.792145    ( 0.0000,  0.0000,  0.0000)
  44 H      4.343661    3.115912   20.546325    ( 0.0000,  0.0000,  0.0000)
  45 H      6.894148    3.093082   18.772008    ( 0.0000,  0.0000,  0.0000)
  46 H      6.985218    3.050830   20.540765    ( 0.0000,  0.0000,  0.0000)
  47 H      3.048268    0.966282   18.768683    ( 0.0000,  0.0000,  0.0000)
  48 H      3.030537    0.958749   20.530177    ( 0.0000,  0.0000,  0.0000)
  49 H      2.172680    2.222488   19.646581    ( 0.0000,  0.0000,  0.0000)
  50 H      8.035875    1.027937   18.883760    ( 0.0000,  0.0000,  0.0000)
  51 N      8.085000    1.617000   17.195939    ( 0.0000,  0.0000,  0.0000)
  52 N      8.085000    1.617000   18.292561    ( 0.0000,  0.0000,  0.0000)

Unit cell:
           periodic     x           y           z      points  spacing
  1. axis:    yes    9.702222    0.000000    0.000000    60     0.1617
  2. axis:    yes    0.000000    9.702222    0.000000    60     0.1617
  3. axis:    no     0.000000    0.000000   26.601111   168     0.1583

  Lengths:   9.702222   9.702222  26.601111
  Angles:   90.000000  90.000000  90.000000

Effective grid spacing dv^(1/3) = 0.1606

     iter     time        total  log10-change:
                         energy  eigst   dens
iter:   1 10:03:39  -779.984307
iter:   2 10:03:47    92.478080  +2.76  +0.05
iter:   3 10:03:55   113.251934  +3.39  -0.12
iter:   4 10:04:02  -260.977116  +3.39  -0.21
Writing to output.gpw (mode='')

iter:   5 10:04:10  -280.698816  +2.87  -0.21
iter:   6 10:04:24  -335.515326  +2.56  -0.51
iter:   7 10:04:32  -386.539299  +2.23  -0.59
iter:   8 10:04:39  -428.607693  +1.95  -0.54
iter:   9 10:04:47  -487.975967  +2.16  -0.44
Writing to output.gpw (mode='')

iter:  10 10:04:54  -413.150820  +1.70  -0.37
iter:  11 10:05:02  -376.540577  +1.49  -0.43
iter:  12 10:05:10  -376.694041  +1.05  -0.56
iter:  13 10:05:17  -360.055092  +1.73  -0.58
iter:  14 10:05:25  -353.156032  +0.79  -0.64
Writing to output.gpw (mode='')

iter:  15 10:05:32  -353.119384  +0.55  -0.69
iter:  16 10:05:40  -357.868962  +1.69  -0.69
iter:  17 10:05:47  -352.823382  +0.94  -0.68
iter:  18 10:05:55  -347.392394  +0.70  -0.71
iter:  19 10:06:02  -346.143461  +0.03  -0.88
Writing to output.gpw (mode='')

iter:  20 10:06:10  -346.118456  -0.30  -0.94
iter:  21 10:06:17  -346.116740c -0.14  -0.94
iter:  22 10:06:25  -345.108304  +0.65  -0.98
iter:  23 10:06:32  -345.902383  +0.10  -1.24
iter:  24 10:06:40  -345.270100  -0.26  -1.11
Writing to output.gpw (mode='')

iter:  25 10:06:47  -344.959914  -0.90  -1.28
iter:  26 10:06:55  -345.005484  -0.16  -1.41
iter:  27 10:07:02  -344.806833  -0.87  -1.54
iter:  28 10:07:10  -344.807265  -0.92  -1.72
iter:  29 10:07:18  -344.851129  -0.91  -1.74
Writing to output.gpw (mode='')

iter:  30 10:07:25  -344.826492  -1.25  -1.70
iter:  31 10:07:33  -344.828249c -1.54  -1.76
iter:  32 10:07:40  -344.823958c -1.88  -1.81
iter:  33 10:07:48  -344.822405c -1.85  -1.82
iter:  34 10:07:55  -344.811826c -1.93  -1.82
Writing to output.gpw (mode='')

iter:  35 10:08:03  -344.801693c -1.66  -1.92
iter:  36 10:08:10  -344.796625c -1.77  -2.18
iter:  37 10:08:18  -344.792749c -2.02  -2.19
iter:  38 10:08:26  -344.791226c -1.82  -2.34
iter:  39 10:08:33  -344.790562c -2.03  -2.49
Writing to output.gpw (mode='')

iter:  40 10:08:41  -344.790818c -2.54  -2.63
iter:  41 10:08:48  -344.791041c -2.57  -2.73
iter:  42 10:08:56  -344.791322c -2.88  -2.80
iter:  43 10:09:04  -344.791530c -3.03  -2.81
iter:  44 10:09:11  -344.791660c -2.93  -2.83
Writing to output.gpw (mode='')

iter:  45 10:09:25  -344.791791c -3.13  -3.05
iter:  46 10:09:33  -344.791917c -3.03  -3.33
iter:  47 10:09:40  -344.792035c -3.14  -3.41
iter:  48 10:09:48  -344.792136c -3.23  -3.52
iter:  49 10:09:56  -344.792197c -3.42  -3.54
Writing to output.gpw (mode='')

iter:  50 10:10:03  -344.792268c -3.51  -3.57
iter:  51 10:10:11  -344.792314c -3.69  -3.60
iter:  52 10:10:18  -344.792379c -3.72  -3.71
iter:  53 10:10:26  -344.792415c -3.82  -3.96
iter:  54 10:10:33  -344.792444c -3.87  -4.04c
Writing to output.gpw (mode='')

iter:  55 10:10:41  -344.792473c -3.91  -4.05c
iter:  56 10:10:49  -344.792503c -3.95  -4.11c
iter:  57 10:10:57  -344.792521c -4.14  -4.14c
iter:  58 10:11:04  -344.792545c -4.10  -4.16c
iter:  59 10:11:12  -344.792563c -4.35  -4.35c
Writing to output.gpw (mode='')

iter:  60 10:11:20  -344.792575c -4.31  -4.52c
iter:  61 10:11:27  -344.792583c -4.31  -4.53c
iter:  62 10:11:35  -344.792594c -4.39  -4.54c
iter:  63 10:11:42  -344.792601c -4.53  -4.52c
iter:  64 10:11:50  -344.792609c -4.62  -4.44c
Writing to output.gpw (mode='')

iter:  65 10:11:58  -344.792614c -4.60  -4.48c
iter:  66 10:12:05  -344.792618c -4.76  -4.53c
iter:  67 10:12:13  -344.792622c -4.82  -4.51c
iter:  68 10:12:20  -344.792625c -4.73  -4.45c
iter:  69 10:12:28  -344.792629c -4.97  -4.42c
Writing to output.gpw (mode='')

iter:  70 10:12:35  -344.792632c -4.81  -4.38c
iter:  71 10:12:43  -344.792634c -5.12  -4.33c
iter:  72 10:12:51  -344.792635c -5.05  -4.40c
iter:  73 10:12:58  -344.792636c -5.11  -4.45c
iter:  74 10:13:06  -344.792638c -5.20  -4.49c
Writing to output.gpw (mode='')

iter:  75 10:13:13  -344.792639c -5.09  -4.49c
iter:  76 10:13:21  -344.792641c -5.13  -4.51c
iter:  77 10:13:28  -344.792642c -5.29  -4.52c
iter:  78 10:13:36  -344.792643c -5.39  -4.57c
iter:  79 10:13:44  -344.792646c -5.60  -4.67c
Writing to output.gpw (mode='')

iter:  80 10:13:51  -344.792646c -5.68  -4.90c
iter:  81 10:13:59  -344.792647c -5.74  -4.89c
iter:  82 10:14:07  -344.792646c -5.67  -5.00c
iter:  83 10:14:14  -344.792647c -5.72  -5.11c
iter:  84 10:14:29  -344.792647c -5.93  -5.25c
Writing to output.gpw (mode='')

iter:  85 10:14:37  -344.792647c -6.00  -5.33c
iter:  86 10:14:45  -344.792647c -5.91  -5.48c
iter:  87 10:14:52  -344.792647c -5.94  -5.54c
iter:  88 10:15:00  -344.792647c -6.03  -5.64c
iter:  89 10:15:07  -344.792647c -6.22  -5.65c
Writing to output.gpw (mode='')

iter:  90 10:15:15  -344.792648c -6.29  -5.72c
iter:  91 10:15:23  -344.792648c -6.32  -5.76c
iter:  92 10:15:30  -344.792648c -6.35  -5.94c
iter:  93 10:15:38  -344.792648c -6.42  -5.95c
iter:  94 10:15:45  -344.792648c -6.47  -5.99c
Writing to output.gpw (mode='')

iter:  95 10:15:53  -344.792648c -6.56  -5.97c
iter:  96 10:16:00  -344.792648c -6.63  -5.87c
iter:  97 10:16:08  -344.792648c -6.54  -6.00c
iter:  98 10:16:16  -344.792648c -6.70  -6.00c
iter:  99 10:16:23  -344.792648c -6.72  -6.02c
Writing to output.gpw (mode='')

iter: 100 10:16:31  -344.792648c -6.80  -6.04c
iter: 101 10:16:38  -344.792648c -6.84  -6.15c
iter: 102 10:16:46  -344.792648c -6.94  -6.11c
iter: 103 10:16:54  -344.792648c -6.79  -6.06c
iter: 104 10:17:01  -344.792648c -7.02  -6.01c
Writing to output.gpw (mode='')

iter: 105 10:17:10  -344.792648c -7.06  -5.84c
iter: 106 10:17:18  -344.792648c -7.08  -5.94c
iter: 107 10:17:25  -344.792648c -7.20  -5.98c
iter: 108 10:17:33  -344.792648c -7.11  -5.98c
iter: 109 10:17:40  -344.792648c -7.28  -5.94c
Writing to output.gpw (mode='')

iter: 110 10:17:48  -344.792648c -7.30  -6.05c
iter: 111 10:17:55  -344.792648c -7.27  -6.13c
iter: 112 10:18:03  -344.792648c -7.15  -6.21c
iter: 113 10:18:11  -344.792648c -7.51c -6.37c

Converged after 113 iterations.

Dipole moment: (-2.222932, -4.681304, 0.352460) |e|*Ang

Energy contributions relative to reference atoms: (reference = -16540.070923)

Kinetic:       +237.771295
Potential:     -212.046137
External:        +0.000000
XC:            -371.261684
Entropy (-ST):   -0.152253
Local:           +0.820005
--------------------------
Free energy:   -344.868775
Extrapolated:  -344.792648

Dipole-layer corrected work functions: 3.372743, 2.695195 eV

Showing only first 2 kpts
 Kpt  Band  Eigenvalues  Occupancy
  0    37     -3.27331    1.98346
  0    38     -3.17360    1.88454
  0    39     -2.89972    0.12772
  0    40     -2.79822    0.01776

  1    37     -3.08284    1.45318
  1    38     -3.04316    1.09166
  1    39     -2.99990    0.67194
  1    40     -2.93569    0.24572


Fermi level: -3.03397

No gap
Writing to output.gpw (mode='')


Forces in eV/Ang:
  0 Li    0.01871    0.00015   -0.27086
  1 Li   -0.01815    0.00224   -0.27048
  2 Li   -0.00038   -0.00484   -0.28345
  3 Li    0.00117   -0.00263   -0.27102
  4 Li   -0.00205   -0.00443   -0.27455
  5 Li   -0.00083    0.02079   -0.27714
  6 Li   -0.00561    0.00111   -0.27643
  7 Li    0.00363    0.00223   -0.27365
  8 Li    0.00134   -0.01773   -0.27098
  9 Li    0.00236   -0.00858    0.28200
 10 Li   -0.00184    0.01476    0.26029
 11 Li   -0.00222   -0.00540    0.28471
 12 Li   -0.00741   -0.00190    0.30114
 13 Li    0.00197   -0.00358    0.24701
 14 Li    0.00564   -0.00384    0.29975
 15 Li   -0.00097    0.01288    0.25553
 16 Li    0.00333   -0.00917    0.26692
 17 Li   -0.00061    0.00926    0.25666
 18 Li   -0.01073    0.00814    0.04101
 19 Li    0.00846    0.00500    0.05183
 20 Li    0.00345   -0.01098   -0.16519
 21 Li   -0.01505   -0.01398    0.04975
 22 Li    0.01456   -0.01250    0.04623
 23 Li    0.00162    0.02130   -0.00699
 24 Li    0.00117    0.00720    0.03283
 25 Li    0.00167    0.00936    0.03993
 26 Li   -0.00082    0.00239    0.04429
 27 Li   -0.01690   -0.01390    0.05914
 28 Li    0.00765    0.01889   -0.02310
 29 Li    0.02572   -0.00900    0.04726
 30 Li   -0.10722   -0.04538    0.15748
 31 Li    0.00618   -0.01327   -0.02805
 32 Li    0.09410   -0.02753    0.10923
 33 Li   -0.00340    0.01675   -0.01829
 34 Li    0.00114   -0.00845   -0.00975
 35 Li    0.00124    0.01486   -0.01231
 36 O     1.17164   13.75543   23.31040
 37 C     0.12755   -0.43279   -0.11721
 38 C    -0.00072    0.18421    0.04938
 39 C    -2.67286    2.30672    3.12049
 40 C     0.07008   -0.10863    0.03960
 41 H    -0.01703   -0.03643   -0.01252
 42 H    -0.08109   -0.00402    0.09341
 43 H    -0.00227   -0.01496   -0.03033
 44 H    -0.01255    0.00543    0.00128
 45 H     0.04459    0.13907    0.28810
 46 H    -0.28135    0.13991   -0.05631
 47 H    -0.01798    0.01722   -0.03393
 48 H    -0.00801   -0.01136    0.02631
 49 H     0.03813    0.05531   -0.02093
 50 H    -1.70982  -20.97992   -0.28175
 51 N     0.49115    5.70430  -14.88442
 52 N     2.87681   -0.71225  -11.86680

System changes: positions 

Initializing position-dependent things.

Density initialized from wave functions
       .-----------------------.  
      /|                       |  
     / |                       |  
    /  |                       |  
   /   |                       |  
  /    |                       |  
 *     |                       |  
 |     |                       |  
 |     |                       |  
 |     |                       |  
 |     |                       |  
 |     |                       |  
 |     |      H     H          |  
 |     |HH   C  H   C          |  
 |     |  C   H C   H OLi      Li 
 |     | H     H     HN        |  
 |     |     Li      Li      Li|  
 |     |  Li      Li  N   Li   |  
 |     |   Li      Li      Li  |  
 |     |Li      Li      Li     |  
 |     | Li                    |  
 |   LLi     LLi     LLi       |  
 |     |  Li      Li      Li   |  
 | Li  |   Li      Li          |  
 |     |Li      Li      Li     |  
 Li    | Li      Li            |  
 |    Li      Li      Li       |  
 |     |                       |  
 |     |                       |  
 |     |                       |  
 |     |                       |  
 |     |                       |  
 |     |                       |  
 |     .-----------------------.  
 |    /                       /   
 |   /                       /    
 |  /                       /     
 | /                       /      
 |/                       /       
 *-----------------------*        

Positions:
   0 Li     1.617037    1.617037   10.000000    ( 0.0000,  0.0000,  0.0000)
   1 Li     4.851111    1.617037   10.000000    ( 0.0000,  0.0000,  0.0000)
   2 Li     8.085185    1.617037   10.000000    ( 0.0000,  0.0000,  0.0000)
   3 Li     1.617037    4.851111   10.000000    ( 0.0000,  0.0000,  0.0000)
   4 Li     4.851111    4.851111   10.000000    ( 0.0000,  0.0000,  0.0000)
   5 Li     8.085185    4.851111   10.000000    ( 0.0000,  0.0000,  0.0000)
   6 Li     1.617037    8.085185   10.000000    ( 0.0000,  0.0000,  0.0000)
   7 Li     4.851111    8.085185   10.000000    ( 0.0000,  0.0000,  0.0000)
   8 Li     8.085185    8.085185   10.000000    ( 0.0000,  0.0000,  0.0000)
   9 Li     0.000000    0.000000   11.617037    ( 0.0000,  0.0000,  0.0000)
  10 Li     3.234074    0.000000   11.617037    ( 0.0000,  0.0000,  0.0000)
  11 Li     6.468148    0.000000   11.617037    ( 0.0000,  0.0000,  0.0000)
  12 Li     0.000000    3.234074   11.617037    ( 0.0000,  0.0000,  0.0000)
  13 Li     3.234074    3.234074   11.617037    ( 0.0000,  0.0000,  0.0000)
  14 Li     6.468148    3.234074   11.617037    ( 0.0000,  0.0000,  0.0000)
  15 Li     0.000000    6.468148   11.617037    ( 0.0000,  0.0000,  0.0000)
  16 Li     3.234074    6.468148   11.617037    ( 0.0000,  0.0000,  0.0000)
  17 Li     6.468148    6.468148   11.617037    ( 0.0000,  0.0000,  0.0000)
  18 Li     1.617022    1.617050   13.469788    ( 0.0000,  0.0000,  0.0000)
  19 Li     4.851123    1.617046   13.469806    ( 0.0000,  0.0000,  0.0000)
  20 Li     8.085189    1.617022   13.469484    ( 0.0000,  0.0000,  0.0000)
  21 Li     1.617016    4.851090   13.469803    ( 0.0000,  0.0000,  0.0000)
  22 Li     4.851132    4.851093   13.469798    ( 0.0000,  0.0000,  0.0000)
  23 Li     8.085186    4.851142   13.469719    ( 0.0000,  0.0000,  0.0000)
  24 Li     1.617040    8.085195   13.469776    ( 0.0000,  0.0000,  0.0000)
  25 Li     4.851113    8.085197   13.469788    ( 0.0000,  0.0000,  0.0000)
  26 Li     8.085183    8.085187   13.469793    ( 0.0000,  0.0000,  0.0000)
  27 Li    -0.000025   -0.000021   15.446027    ( 0.0000,  0.0000,  0.0000)
  28 Li     3.234085    0.000028   15.445905    ( 0.0000,  0.0000,  0.0000)
  29 Li     6.468186   -0.000013   15.446009    ( 0.0000,  0.0000,  0.0000)
  30 Li    -0.000158    3.234007   15.446171    ( 0.0000,  0.0000,  0.0000)
  31 Li     3.234086    3.234057   15.445897    ( 0.0000,  0.0000,  0.0000)
  32 Li     6.468284    3.234036   15.446099    ( 0.0000,  0.0000,  0.0000)
  33 Li    -0.000005    6.468173   15.445912    ( 0.0000,  0.0000,  0.0000)
  34 Li     3.234078    6.468133   15.445924    ( 0.0000,  0.0000,  0.0000)
  35 Li     6.468147    6.468167   15.445920    ( 0.0000,  0.0000,  0.0000)
  36 O      8.086915    1.637346   19.680356    ( 0.0000,  0.0000,  0.0000)
  37 C      5.618314    1.604057   19.681592    ( 0.0000,  0.0000,  0.0000)
  38 C      4.348564    2.460020   19.668428    ( 0.0000,  0.0000,  0.0000)
  39 C      6.896756    2.430922   19.650754    ( 0.0000,  0.0000,  0.0000)
  40 C      3.075958    1.608602   19.652784    ( 0.0000,  0.0000,  0.0000)
  41 H      5.632899    0.971473   20.575240    ( 0.0000,  0.0000,  0.0000)
  42 H      5.604689    0.934502   18.810547    ( 0.0000,  0.0000,  0.0000)
  43 H      4.361522    3.118801   18.792100    ( 0.0000,  0.0000,  0.0000)
  44 H      4.343643    3.115920   20.546327    ( 0.0000,  0.0000,  0.0000)
  45 H      6.894214    3.093288   18.772433    ( 0.0000,  0.0000,  0.0000)
  46 H      6.984802    3.051037   20.540682    ( 0.0000,  0.0000,  0.0000)
  47 H      3.048241    0.966307   18.768632    ( 0.0000,  0.0000,  0.0000)
  48 H      3.030525    0.958732   20.530216    ( 0.0000,  0.0000,  0.0000)
  49 H      2.172736    2.222569   19.646550    ( 0.0000,  0.0000,  0.0000)
  50 H      8.033350    0.996961   18.883344    ( 0.0000,  0.0000,  0.0000)
  51 N      8.085725    1.625422   17.173963    ( 0.0000,  0.0000,  0.0000)
  52 N      8.089248    1.615948   18.275040    ( 0.0000,  0.0000,  0.0000)

Unit cell:
           periodic     x           y           z      points  spacing
  1. axis:    yes    9.702222    0.000000    0.000000    60     0.1617
  2. axis:    yes    0.000000    9.702222    0.000000    60     0.1617
  3. axis:    no     0.000000    0.000000   26.601111   168     0.1583

  Lengths:   9.702222   9.702222  26.601111
  Angles:   90.000000  90.000000  90.000000

Effective grid spacing dv^(1/3) = 0.1606

     iter     time        total  log10-change:
                         energy  eigst   dens
iter:   1 10:18:20  -347.669523  -0.44
iter:   2 10:18:28  -347.671145  -0.52  -1.33
iter:   3 10:18:35  -347.043966  -0.65  -1.27
iter:   4 10:18:43  -346.991265  -1.28  -1.70
Writing to output.gpw (mode='')

iter:   5 10:18:51  -346.962222  -1.07  -1.95
iter:   6 10:18:58  -346.959208c -1.56  -2.21
iter:   7 10:19:06  -346.961218c -1.56  -2.36
iter:   8 10:19:14  -346.958399c -2.10  -2.33
iter:   9 10:19:27  -346.958391c -2.41  -2.57
Writing to output.gpw (mode='')

iter:  10 10:19:34  -346.958662c -2.29  -2.65
iter:  11 10:19:42  -346.958846c -2.63  -2.66
iter:  12 10:19:50  -346.958732c -3.00  -2.82
iter:  13 10:19:57  -346.958858c -2.94  -2.98
iter:  14 10:20:05  -346.958902c -3.44  -3.05
Writing to output.gpw (mode='')

iter:  15 10:20:13  -346.959008c -3.38  -3.12
iter:  16 10:20:20  -346.958986c -3.84  -3.30
iter:  17 10:20:28  -346.959012c -4.03  -3.35
iter:  18 10:20:36  -346.959029c -3.85  -3.40
iter:  19 10:20:43  -346.959053c -3.89  -3.68
Writing to output.gpw (mode='')

iter:  20 10:20:51  -346.959054c -4.53  -3.80
iter:  21 10:20:59  -346.959059c -4.46  -3.87
iter:  22 10:21:07  -346.959062c -4.55  -3.94
iter:  23 10:21:14  -346.959078c -4.94  -4.01c
iter:  24 10:21:22  -346.959077c -4.93  -4.04c
Writing to output.gpw (mode='')

iter:  25 10:21:30  -346.959075c -5.15  -4.19c
iter:  26 10:21:37  -346.959077c -5.28  -4.35c
iter:  27 10:21:45  -346.959075c -5.35  -4.46c
iter:  28 10:21:53  -346.959077c -5.56  -4.56c
iter:  29 10:22:00  -346.959079c -5.58  -4.60c
Writing to output.gpw (mode='')

iter:  30 10:22:08  -346.959079c -5.56  -4.66c
iter:  31 10:22:16  -346.959081c -5.80  -4.74c
iter:  32 10:22:23  -346.959081c -5.75  -4.76c
iter:  33 10:22:31  -346.959082c -6.12  -4.83c
iter:  34 10:22:39  -346.959083c -6.07  -4.93c
Writing to output.gpw (mode='')

iter:  35 10:22:47  -346.959083c -6.10  -5.12c
iter:  36 10:22:54  -346.959083c -6.22  -5.18c
iter:  37 10:23:02  -346.959084c -6.31  -5.20c
iter:  38 10:23:10  -346.959084c -6.51  -5.40c
iter:  39 10:23:17  -346.959084c -6.64  -5.41c
Writing to output.gpw (mode='')

iter:  40 10:23:25  -346.959085c -6.70  -5.42c
iter:  41 10:23:33  -346.959084c -6.70  -5.48c
iter:  42 10:23:40  -346.959084c -6.79  -5.73c
iter:  43 10:23:48  -346.959085c -6.90  -5.74c
iter:  44 10:23:56  -346.959085c -6.84  -5.77c
Writing to output.gpw (mode='')

iter:  45 10:24:03  -346.959085c -7.05  -5.75c
iter:  46 10:24:11  -346.959085c -7.02  -5.70c
iter:  47 10:24:25  -346.959084c -7.23  -5.60c
iter:  48 10:24:33  -346.959085c -7.34  -5.49c
iter:  49 10:24:41  -346.959085c -7.21  -5.58c
Writing to output.gpw (mode='')

iter:  50 10:24:48  -346.959085c -7.38  -5.66c
iter:  51 10:24:56  -346.959085c -7.39  -5.63c
iter:  52 10:25:04  -346.959085c -7.53c -5.53c

Converged after 52 iterations.

Dipole moment: (-2.338490, -4.582023, 0.247597) |e|*Ang

Energy contributions relative to reference atoms: (reference = -16540.070923)

Kinetic:       +231.918712
Potential:     -209.307428
External:        +0.000000
XC:            -370.306356
Entropy (-ST):   -0.151566
Local:           +0.811770
--------------------------
Free energy:   -347.034868
Extrapolated:  -346.959085

Dipole-layer corrected work functions: 3.379199, 2.903233 eV

Showing only first 2 kpts
 Kpt  Band  Eigenvalues  Occupancy
  0    37     -3.38463    1.98474
  0    38     -3.28050    1.88380
  0    39     -2.99463    0.10121
  0    40     -2.91126    0.01992

  1    37     -3.18531    1.41445
  1    38     -3.14700    1.05776
  1    39     -3.11606    0.75359
  1    40     -3.04230    0.24297


Fermi level: -3.14122

No gap
Writing to output.gpw (mode='')


Forces in eV/Ang:
  0 Li    0.02075    0.00005   -0.27104
  1 Li   -0.02014    0.00196   -0.27115
  2 Li   -0.00052   -0.00508   -0.28242
  3 Li    0.00062   -0.00205   -0.27178
  4 Li   -0.00173   -0.00388   -0.27511
  5 Li   -0.00059    0.02231   -0.27636
  6 Li   -0.00497    0.00142   -0.27723
  7 Li    0.00311    0.00279   -0.27460
  8 Li    0.00136   -0.01952   -0.27105
  9 Li    0.00286   -0.00738    0.28062
 10 Li   -0.00143    0.01494    0.25883
 11 Li   -0.00316   -0.00500    0.28279
 12 Li   -0.00821   -0.00271    0.30067
 13 Li    0.00213   -0.00305    0.24486
 14 Li    0.00653   -0.00417    0.29903
 15 Li   -0.00172    0.01338    0.25309
 16 Li    0.00226   -0.01120    0.26673
 17 Li    0.00116    0.00992    0.25482
 18 Li   -0.00864    0.00819    0.04143
 19 Li    0.00705    0.00501    0.05140
 20 Li    0.00292   -0.01349   -0.16336
 21 Li   -0.01715   -0.01583    0.05250
 22 Li    0.01630   -0.01306    0.04769
 23 Li    0.00195    0.02146   -0.00196
 24 Li    0.00108    0.00780    0.03382
 25 Li    0.00160    0.00869    0.04005
 26 Li   -0.00076    0.00474    0.04680
 27 Li   -0.00318   -0.02442    0.04066
 28 Li    0.00709    0.01947   -0.02330
 29 Li    0.01349   -0.01675    0.03316
 30 Li   -0.09515   -0.04177    0.14073
 31 Li    0.00547   -0.01449   -0.02766
 32 Li    0.07888   -0.02185    0.09183
 33 Li   -0.00681    0.01401   -0.01892
 34 Li    0.00049   -0.00677   -0.01061
 35 Li    0.00532    0.01270   -0.01355
 36 O     1.03319   11.29984   20.25359
 37 C     0.04408   -0.32505   -0.06991
 38 C    -0.01053    0.10707    0.04805
 39 C    -2.19394    1.94224    2.76902
 40 C     0.05304   -0.07242    0.04076
 41 H    -0.01834   -0.04405   -0.01168
 42 H    -0.06549   -0.01532    0.08068
 43 H    -0.00193   -0.00597   -0.03315
 44 H    -0.01157    0.00603    0.00181
 45 H    -0.01947    0.15143    0.32963
 46 H    -0.42002    0.32103    0.04498
 47 H    -0.01458    0.00927   -0.03709
 48 H    -0.00842   -0.00990    0.02273
 49 H     0.03050    0.04472   -0.01611
 50 H    -1.37764  -15.59089   -0.38180
 51 N     0.48308    5.53810  -12.64955
 52 N     2.50618   -3.23376  -10.65548

System changes: positions 

Initializing position-dependent things.

Density initialized from wave functions
       .-----------------------.  
      /|                       |  
     / |                       |  
    /  |                       |  
   /   |                       |  
  /    |                       |  
 *     |                       |  
 |     |                       |  
 |     |                       |  
 |     |                       |  
 |     |                       |  
 |     |                       |  
 |     |      H     H          |  
 |     |HH   C  H   C          |  
 |     Li C   H C   H OLi      |  
 |     | H     H     HN        |  
 |     |     Li      Li      Li|  
 |     |  Li      Li  N   Li   |  
 |     |   Li      Li      Li  |  
 |     |Li      Li      Li     |  
 |     | Li                    |  
 |   LLi     LLi     LLi       |  
 |     |  Li      Li      Li   |  
 | Li  |   Li      Li          |  
 |     |Li      Li      Li     |  
 Li    | Li      Li            |  
 |    Li      Li      Li       |  
 |     |                       |  
 |     |                       |  
 |     |                       |  
 |     |                       |  
 |     |                       |  
 |     |                       |  
 |     .-----------------------.  
 |    /                       /   
 |   /                       /    
 |  /                       /     
 | /                       /      
 |/                       /       
 *-----------------------*        

Positions:
   0 Li     1.617037    1.617037   10.000000    ( 0.0000,  0.0000,  0.0000)
   1 Li     4.851111    1.617037   10.000000    ( 0.0000,  0.0000,  0.0000)
   2 Li     8.085185    1.617037   10.000000    ( 0.0000,  0.0000,  0.0000)
   3 Li     1.617037    4.851111   10.000000    ( 0.0000,  0.0000,  0.0000)
   4 Li     4.851111    4.851111   10.000000    ( 0.0000,  0.0000,  0.0000)
   5 Li     8.085185    4.851111   10.000000    ( 0.0000,  0.0000,  0.0000)
   6 Li     1.617037    8.085185   10.000000    ( 0.0000,  0.0000,  0.0000)
   7 Li     4.851111    8.085185   10.000000    ( 0.0000,  0.0000,  0.0000)
   8 Li     8.085185    8.085185   10.000000    ( 0.0000,  0.0000,  0.0000)
   9 Li     0.000000    0.000000   11.617037    ( 0.0000,  0.0000,  0.0000)
  10 Li     3.234074    0.000000   11.617037    ( 0.0000,  0.0000,  0.0000)
  11 Li     6.468148    0.000000   11.617037    ( 0.0000,  0.0000,  0.0000)
  12 Li     0.000000    3.234074   11.617037    ( 0.0000,  0.0000,  0.0000)
  13 Li     3.234074    3.234074   11.617037    ( 0.0000,  0.0000,  0.0000)
  14 Li     6.468148    3.234074   11.617037    ( 0.0000,  0.0000,  0.0000)
  15 Li     0.000000    6.468148   11.617037    ( 0.0000,  0.0000,  0.0000)
  16 Li     3.234074    6.468148   11.617037    ( 0.0000,  0.0000,  0.0000)
  17 Li     6.468148    6.468148   11.617037    ( 0.0000,  0.0000,  0.0000)
  18 Li     1.617012    1.617073   13.469907    ( 0.0000,  0.0000,  0.0000)
  19 Li     4.851134    1.617060   13.469947    ( 0.0000,  0.0000,  0.0000)
  20 Li     8.085194    1.616968   13.469040    ( 0.0000,  0.0000,  0.0000)
  21 Li     1.616955    4.851034   13.469967    ( 0.0000,  0.0000,  0.0000)
  22 Li     4.851189    4.851052   13.469941    ( 0.0000,  0.0000,  0.0000)
  23 Li     8.085194    4.851203   13.469746    ( 0.0000,  0.0000,  0.0000)
  24 Li     1.617042    8.085220   13.469877    ( 0.0000,  0.0000,  0.0000)
  25 Li     4.851118    8.085217   13.469901    ( 0.0000,  0.0000,  0.0000)
  26 Li     8.085181    8.085216   13.469940    ( 0.0000,  0.0000,  0.0000)
  27 Li     0.000055   -0.000157   15.446021    ( 0.0000,  0.0000,  0.0000)
  28 Li     3.234101    0.000086   15.445838    ( 0.0000,  0.0000,  0.0000)
  29 Li     6.468145   -0.000110   15.446010    ( 0.0000,  0.0000,  0.0000)
  30 Li    -0.000346    3.233913   15.446456    ( 0.0000,  0.0000,  0.0000)
  31 Li     3.234096    3.234009   15.445822    ( 0.0000,  0.0000,  0.0000)
  32 Li     6.468406    3.234012   15.446243    ( 0.0000,  0.0000,  0.0000)
  33 Li    -0.000046    6.468194   15.445855    ( 0.0000,  0.0000,  0.0000)
  34 Li     3.234075    6.468125   15.445888    ( 0.0000,  0.0000,  0.0000)
  35 Li     6.468189    6.468189   15.445874    ( 0.0000,  0.0000,  0.0000)
  36 O      8.088903    1.652998   19.717114    ( 0.0000,  0.0000,  0.0000)
  37 C      5.617897    1.603847   19.681703    ( 0.0000,  0.0000,  0.0000)
  38 C      4.348471    2.459820   19.668553    ( 0.0000,  0.0000,  0.0000)
  39 C      6.893731    2.433985   19.656209    ( 0.0000,  0.0000,  0.0000)
  40 C      3.075995    1.608634   19.652905    ( 0.0000,  0.0000,  0.0000)
  41 H      5.632840    0.971301   20.575213    ( 0.0000,  0.0000,  0.0000)
  42 H      5.604608    0.934386   18.810690    ( 0.0000,  0.0000,  0.0000)
  43 H      4.361519    3.118843   18.791989    ( 0.0000,  0.0000,  0.0000)
  44 H      4.343617    3.115941   20.546335    ( 0.0000,  0.0000,  0.0000)
  45 H      6.893745    3.093791   18.773622    ( 0.0000,  0.0000,  0.0000)
  46 H      6.982732    3.053106   20.541463    ( 0.0000,  0.0000,  0.0000)
  47 H      3.048223    0.966282   18.768508    ( 0.0000,  0.0000,  0.0000)
  48 H      3.030499    0.958714   20.530256    ( 0.0000,  0.0000,  0.0000)
  49 H      2.172772    2.222626   19.646536    ( 0.0000,  0.0000,  0.0000)
  50 H      8.031654    0.988320   18.881630    ( 0.0000,  0.0000,  0.0000)
  51 N      8.087022    1.639808   17.153115    ( 0.0000,  0.0000,  0.0000)
  52 N      8.093845    1.590597   18.253133    ( 0.0000,  0.0000,  0.0000)

Unit cell:
           periodic     x           y           z      points  spacing
  1. axis:    yes    9.702222    0.000000    0.000000    60     0.1617
  2. axis:    yes    0.000000    9.702222    0.000000    60     0.1617
  3. axis:    no     0.000000    0.000000   26.601111   168     0.1583

  Lengths:   9.702222   9.702222  26.601111
  Angles:   90.000000  90.000000  90.000000

Effective grid spacing dv^(1/3) = 0.1606

     iter     time        total  log10-change:
                         energy  eigst   dens
iter:   1 10:25:13  -348.761783  -0.64
iter:   2 10:25:21  -348.708251  -1.13  -1.96
iter:   3 10:25:28  -348.668830  -1.15  -1.92
iter:   4 10:25:36  -348.642002  -1.29  -1.84
Writing to output.gpw (mode='')

iter:   5 10:25:44  -348.635656c -2.22  -2.18
iter:   6 10:25:51  -348.632775c -1.90  -2.32
iter:   7 10:25:59  -348.630467c -2.13  -2.34
iter:   8 10:26:07  -348.629160c -2.54  -2.56
iter:   9 10:26:14  -348.628390c -2.64  -2.52
Writing to output.gpw (mode='')

iter:  10 10:26:22  -348.628177c -3.22  -2.74
iter:  11 10:26:30  -348.628156c -3.14  -2.84
iter:  12 10:26:37  -348.628171c -3.38  -2.95
iter:  13 10:26:45  -348.628148c -3.78  -2.95
iter:  14 10:26:52  -348.628118c -3.84  -2.97
Writing to output.gpw (mode='')

iter:  15 10:27:00  -348.628108c -4.26  -3.35
iter:  16 10:27:08  -348.628121c -4.37  -3.45
iter:  17 10:27:15  -348.628143c -4.58  -3.56
iter:  18 10:27:23  -348.628132c -4.62  -3.64
iter:  19 10:27:30  -348.628141c -5.00  -3.83
Writing to output.gpw (mode='')

iter:  20 10:27:38  -348.628137c -5.12  -3.92
iter:  21 10:27:46  -348.628145c -5.14  -4.03c
iter:  22 10:27:53  -348.628144c -5.39  -4.17c
iter:  23 10:28:01  -348.628144c -5.58  -4.21c
iter:  24 10:28:08  -348.628145c -5.62  -4.35c
Writing to output.gpw (mode='')

iter:  25 10:28:16  -348.628147c -5.98  -4.40c
iter:  26 10:28:24  -348.628146c -6.11  -4.81c
iter:  27 10:28:31  -348.628146c -6.23  -4.82c
iter:  28 10:28:39  -348.628146c -6.24  -4.85c
iter:  29 10:28:46  -348.628146c -6.08  -4.86c
Writing to output.gpw (mode='')

iter:  30 10:28:54  -348.628146c -6.36  -4.93c
iter:  31 10:29:02  -348.628146c -6.58  -5.02c
iter:  32 10:29:09  -348.628146c -6.68  -5.10c
iter:  33 10:29:23  -348.628147c -6.57  -5.25c
iter:  34 10:29:32  -348.628146c -6.64  -5.34c
Writing to output.gpw (mode='')

iter:  35 10:29:41  -348.628146c -6.95  -5.40c
iter:  36 10:29:54  -348.628146c -6.81  -5.46c
iter:  37 10:30:04  -348.628146c -7.16  -5.55c
iter:  38 10:30:12  -348.628147c -7.07  -5.53c
iter:  39 10:30:20  -348.628147c -7.27  -5.48c
Writing to output.gpw (mode='')

iter:  40 10:30:27  -348.628147c -7.46c -5.49c

Converged after 40 iterations.

Dipole moment: (-2.428981, -4.486295, 0.147601) |e|*Ang

Energy contributions relative to reference atoms: (reference = -16540.070923)

Kinetic:       +228.327692
Potential:     -207.793067
External:        +0.000000
XC:            -369.900184
Entropy (-ST):   -0.150026
Local:           +0.812426
--------------------------
Free energy:   -348.703159
Extrapolated:  -348.628147

Dipole-layer corrected work functions: 3.384956, 3.101217 eV

Showing only first 2 kpts
 Kpt  Band  Eigenvalues  Occupancy
  0    37     -3.48919    1.98554
  0    38     -3.38397    1.88724
  0    39     -3.09113    0.09139
  0    40     -3.01140    0.01925

  1    37     -3.28718    1.41438
  1    38     -3.24587    1.02781
  1    39     -3.22314    0.80315
  1    40     -3.14200    0.23388


Fermi level: -3.24309

No gap

Forces in eV/Ang:
  0 Li    0.02220   -0.00017   -0.27041
  1 Li   -0.02164    0.00135   -0.27133
  2 Li   -0.00057   -0.00465   -0.28122
  3 Li   -0.00117   -0.00165   -0.27219
  4 Li   -0.00008   -0.00331   -0.27514
  5 Li   -0.00029    0.02421   -0.27631
  6 Li   -0.00492    0.00204   -0.27760
  7 Li    0.00326    0.00353   -0.27517
  8 Li    0.00127   -0.02202   -0.27161
  9 Li    0.00292   -0.00595    0.27895
 10 Li   -0.00114    0.01476    0.25786
 11 Li   -0.00343   -0.00432    0.28079
 12 Li   -0.00803   -0.00286    0.29826
 13 Li    0.00185   -0.00390    0.24501
 14 Li    0.00679   -0.00382    0.29709
 15 Li   -0.00207    0.01267    0.25028
 16 Li    0.00123   -0.01160    0.26744
 17 Li    0.00237    0.00958    0.25230
 18 Li   -0.00894    0.00746    0.04430
 19 Li    0.00755    0.00457    0.05211
 20 Li    0.00255   -0.01567   -0.16466
 21 Li   -0.01766   -0.01687    0.05363
 22 Li    0.01661   -0.01310    0.04809
 23 Li    0.00200    0.01987    0.00545
 24 Li   -0.00028    0.00821    0.03551
 25 Li    0.00278    0.00788    0.04065
 26 Li   -0.00074    0.00635    0.04842
 27 Li    0.01582   -0.03505    0.01662
 28 Li    0.00604    0.02048   -0.02159
 29 Li   -0.00427   -0.02447    0.01324
 30 Li   -0.07272   -0.03367    0.11704
 31 Li    0.00428   -0.01687   -0.02461
 32 Li    0.05545   -0.01412    0.07163
 33 Li   -0.01136    0.01017   -0.01911
 34 Li    0.00008   -0.00427   -0.01077
 35 Li    0.01035    0.00951   -0.01448
 36 O     0.75436    9.22198   17.43978
 37 C     0.00807   -0.24555   -0.02491
 38 C    -0.02616    0.06733    0.04033
 39 C    -1.65157    1.59042    2.40153
 40 C     0.03543   -0.05540    0.03696
 41 H    -0.02326   -0.04939   -0.01068
 42 H    -0.05428   -0.02029    0.07102
 43 H    -0.00236   -0.00498   -0.02790
 44 H    -0.01077    0.00090   -0.00224
 45 H    -0.03455    0.13583    0.34339
 46 H    -0.54685    0.48490    0.12767
 47 H    -0.01200    0.00578   -0.03503
 48 H    -0.00957   -0.00759    0.01855
 49 H     0.02048    0.03886   -0.01147
 50 H    -1.28614  -13.33599    1.38804
 51 N     0.39517    5.28587  -10.72466
 52 N     2.39823   -3.03497  -11.24702

System changes: positions 

Initializing position-dependent things.

Density initialized from wave functions
       .-----------------------.  
      /|                       |  
     / |                       |  
    /  |                       |  
   /   |                       |  
  /    |                       |  
 *     |                       |  
 |     |                       |  
 |     |                       |  
 |     |                       |  
 |     |                       |  
 |     |                       |  
 |     |      H     H          |  
 |     |HH   C  H   C O        |  
 |     Li C   H C   H  Li      |  
 |     | H     H     HN        |  
 |     |     Li      Li      Li|  
 |     |  Li      Li  N   Li   |  
 |     |   Li      Li      Li  |  
 |     |Li      Li      Li     |  
 |     | Li                    |  
 |   LLi     LLi     LLi       |  
 |     |  Li      Li      Li   |  
 | Li  |   Li      Li          |  
 |     |Li      Li      Li     |  
 Li    | Li      Li            |  
 |    Li      Li      Li       |  
 |     |                       |  
 |     |                       |  
 |     |                       |  
 |     |                       |  
 |     |                       |  
 |     |                       |  
 |     .-----------------------.  
 |    /                       /   
 |   /                       /    
 |  /                       /     
 | /                       /      
 |/                       /       
 *-----------------------*        

Positions:
   0 Li     1.617037    1.617037   10.000000    ( 0.0000,  0.0000,  0.0000)
   1 Li     4.851111    1.617037   10.000000    ( 0.0000,  0.0000,  0.0000)
   2 Li     8.085185    1.617037   10.000000    ( 0.0000,  0.0000,  0.0000)
   3 Li     1.617037    4.851111   10.000000    ( 0.0000,  0.0000,  0.0000)
   4 Li     4.851111    4.851111   10.000000    ( 0.0000,  0.0000,  0.0000)
   5 Li     8.085185    4.851111   10.000000    ( 0.0000,  0.0000,  0.0000)
   6 Li     1.617037    8.085185   10.000000    ( 0.0000,  0.0000,  0.0000)
   7 Li     4.851111    8.085185   10.000000    ( 0.0000,  0.0000,  0.0000)
   8 Li     8.085185    8.085185   10.000000    ( 0.0000,  0.0000,  0.0000)
   9 Li     0.000000    0.000000   11.617037    ( 0.0000,  0.0000,  0.0000)
  10 Li     3.234074    0.000000   11.617037    ( 0.0000,  0.0000,  0.0000)
  11 Li     6.468148    0.000000   11.617037    ( 0.0000,  0.0000,  0.0000)
  12 Li     0.000000    3.234074   11.617037    ( 0.0000,  0.0000,  0.0000)
  13 Li     3.234074    3.234074   11.617037    ( 0.0000,  0.0000,  0.0000)
  14 Li     6.468148    3.234074   11.617037    ( 0.0000,  0.0000,  0.0000)
  15 Li     0.000000    6.468148   11.617037    ( 0.0000,  0.0000,  0.0000)
  16 Li     3.234074    6.468148   11.617037    ( 0.0000,  0.0000,  0.0000)
  17 Li     6.468148    6.468148   11.617037    ( 0.0000,  0.0000,  0.0000)
  18 Li     1.616991    1.617094   13.470067    ( 0.0000,  0.0000,  0.0000)
  19 Li     4.851154    1.617073   13.470117    ( 0.0000,  0.0000,  0.0000)
  20 Li     8.085198    1.616894   13.468508    ( 0.0000,  0.0000,  0.0000)
  21 Li     1.616885    4.850965   13.470160    ( 0.0000,  0.0000,  0.0000)
  22 Li     4.851253    4.851007   13.470106    ( 0.0000,  0.0000,  0.0000)
  23 Li     8.085202    4.851261   13.469825    ( 0.0000,  0.0000,  0.0000)
  24 Li     1.617034    8.085252   13.470006    ( 0.0000,  0.0000,  0.0000)
  25 Li     4.851132    8.085236   13.470036    ( 0.0000,  0.0000,  0.0000)
  26 Li     8.085179    8.085256   13.470117    ( 0.0000,  0.0000,  0.0000)
  27 Li     0.000268   -0.000374   15.445865    ( 0.0000,  0.0000,  0.0000)
  28 Li     3.234113    0.000160   15.445776    ( 0.0000,  0.0000,  0.0000)
  29 Li     6.467983   -0.000266   15.445885    ( 0.0000,  0.0000,  0.0000)
  30 Li    -0.000411    3.233862   15.446636    ( 0.0000,  0.0000,  0.0000)
  31 Li     3.234101    3.233936   15.445759    ( 0.0000,  0.0000,  0.0000)
  32 Li     6.468395    3.234032   15.446290    ( 0.0000,  0.0000,  0.0000)
  33 Li    -0.000122    6.468195   15.445789    ( 0.0000,  0.0000,  0.0000)
  34 Li     3.234070    6.468132   15.445849    ( 0.0000,  0.0000,  0.0000)
  35 Li     6.468267    6.468193   15.445816    ( 0.0000,  0.0000,  0.0000)
  36 O      8.089284    1.660644   19.744823    ( 0.0000,  0.0000,  0.0000)
  37 C      5.617340    1.603969   19.682076    ( 0.0000,  0.0000,  0.0000)
  38 C      4.348260    2.459467   19.668639    ( 0.0000,  0.0000,  0.0000)
  39 C      6.893404    2.435621   19.660460    ( 0.0000,  0.0000,  0.0000)
  40 C      3.075940    1.608715   19.653012    ( 0.0000,  0.0000,  0.0000)
  41 H      5.632733    0.971077   20.575187    ( 0.0000,  0.0000,  0.0000)
  42 H      5.604563    0.934241   18.810810    ( 0.0000,  0.0000,  0.0000)
  43 H      4.361511    3.118875   18.791912    ( 0.0000,  0.0000,  0.0000)
  44 H      4.343591    3.115921   20.546310    ( 0.0000,  0.0000,  0.0000)
  45 H      6.893248    3.094212   18.775005    ( 0.0000,  0.0000,  0.0000)
  46 H      6.979654    3.056374   20.542780    ( 0.0000,  0.0000,  0.0000)
  47 H      3.048213    0.966245   18.768390    ( 0.0000,  0.0000,  0.0000)
  48 H      3.030460    0.958708   20.530278    ( 0.0000,  0.0000,  0.0000)
  49 H      2.172751    2.222671   19.646546    ( 0.0000,  0.0000,  0.0000)
  50 H      8.029544    0.982367   18.894523    ( 0.0000,  0.0000,  0.0000)
  51 N      8.087824    1.654885   17.138763    ( 0.0000,  0.0000,  0.0000)
  52 N      8.099294    1.569588   18.219533    ( 0.0000,  0.0000,  0.0000)

Unit cell:
           periodic     x           y           z      points  spacing
  1. axis:    yes    9.702222    0.000000    0.000000    60     0.1617
  2. axis:    yes    0.000000    9.702222    0.000000    60     0.1617
  3. axis:    no     0.000000    0.000000   26.601111   168     0.1583

  Lengths:   9.702222   9.702222  26.601111
  Angles:   90.000000  90.000000  90.000000

Effective grid spacing dv^(1/3) = 0.1606

     iter     time        total  log10-change:
                         energy  eigst   dens
iter:   1 10:30:37  -350.091493  -0.75
iter:   2 10:30:45  -350.025214  -1.22  -1.83
iter:   3 10:30:52  -349.984245  -1.06  -1.93
iter:   4 10:31:00  -349.940892  -1.16  -1.79
Writing to output.gpw (mode='')

iter:   5 10:31:08  -349.946880  -1.82  -2.28
iter:   6 10:31:15  -349.938227c -1.74  -2.24
iter:   7 10:31:23  -349.930338c -1.88  -2.28
iter:   8 10:31:31  -349.929926c -2.77  -2.61
iter:   9 10:31:38  -349.929786c -2.74  -2.65
Writing to output.gpw (mode='')

iter:  10 10:31:46  -349.929879c -2.55  -2.82
iter:  11 10:31:53  -349.929771c -3.32  -2.97
iter:  12 10:32:01  -349.929781c -3.58  -3.06
iter:  13 10:32:09  -349.929707c -3.92  -3.18
iter:  14 10:32:17  -349.929668c -4.09  -3.23
Writing to output.gpw (mode='')

iter:  15 10:32:24  -349.929657c -4.32  -3.33
iter:  16 10:32:32  -349.929630c -4.20  -3.45
iter:  17 10:32:40  -349.929634c -4.75  -3.64
iter:  18 10:32:47  -349.929645c -4.69  -3.68
iter:  19 10:32:55  -349.929652c -4.88  -3.87
Writing to output.gpw (mode='')

iter:  20 10:33:04  -349.929644c -5.02  -3.94
iter:  21 10:33:13  -349.929645c -5.27  -4.02c
iter:  22 10:33:21  -349.929651c -5.39  -4.05c
iter:  23 10:33:28  -349.929654c -5.49  -4.25c
iter:  24 10:33:36  -349.929654c -5.84  -4.44c
Writing to output.gpw (mode='')

iter:  25 10:33:44  -349.929656c -5.98  -4.47c
iter:  26 10:33:51  -349.929654c -5.96  -4.50c
iter:  27 10:33:59  -349.929655c -5.94  -4.62c
iter:  28 10:34:07  -349.929655c -6.05  -4.71c
iter:  29 10:34:14  -349.929655c -6.47  -4.73c
Writing to output.gpw (mode='')

iter:  30 10:34:28  -349.929655c -6.48  -4.76c
iter:  31 10:34:36  -349.929655c -6.60  -4.86c
iter:  32 10:34:44  -349.929655c -6.85  -4.97c
iter:  33 10:34:51  -349.929656c -6.83  -5.18c
iter:  34 10:34:59  -349.929656c -7.03  -5.42c
Writing to output.gpw (mode='')

iter:  35 10:35:07  -349.929656c -7.02  -5.52c
iter:  36 10:35:14  -349.929656c -7.07  -5.60c
iter:  37 10:35:22  -349.929656c -7.13  -5.64c
iter:  38 10:35:30  -349.929656c -7.25  -5.67c
iter:  39 10:35:37  -349.929656c -7.30  -5.82c
Writing to output.gpw (mode='')

iter:  40 10:35:45  -349.929656c -7.36  -5.85c
iter:  41 10:35:53  -349.929656c -7.39  -5.94c
iter:  42 10:36:00  -349.929656c -7.66c -6.01c

Converged after 42 iterations.

Dipole moment: (-2.470503, -4.460137, 0.059212) |e|*Ang

Energy contributions relative to reference atoms: (reference = -16540.070923)

Kinetic:       +226.886343
Potential:     -207.866804
External:        +0.000000
XC:            -369.685562
Entropy (-ST):   -0.148925
Local:           +0.810829
--------------------------
Free energy:   -350.004118
Extrapolated:  -349.929656

Dipole-layer corrected work functions: 3.389256, 3.275431 eV

Showing only first 2 kpts
 Kpt  Band  Eigenvalues  Occupancy
  0    37     -3.57906    1.98571
  0    38     -3.47463    1.89019
  0    39     -3.17299    0.07931
  0    40     -3.10040    0.01915

  1    37     -3.37983    1.44212
  1    38     -3.33251    1.00166
  1    39     -3.31564    0.83451
  1    40     -3.22949    0.22666


Fermi level: -3.33234

No gap
Writing to output.gpw (mode='')


Forces in eV/Ang:
  0 Li    0.02381   -0.00021   -0.27038
  1 Li   -0.02317    0.00086   -0.27174
  2 Li   -0.00067   -0.00434   -0.28017
  3 Li   -0.00208   -0.00150   -0.27277
  4 Li    0.00083   -0.00307   -0.27507
  5 Li   -0.00004    0.02532   -0.27575
  6 Li   -0.00464    0.00278   -0.27776
  7 Li    0.00321    0.00434   -0.27597
  8 Li    0.00106   -0.02363   -0.27142
  9 Li    0.00310   -0.00496    0.27720
 10 Li   -0.00064    0.01436    0.25690
 11 Li   -0.00385   -0.00399    0.27842
 12 Li   -0.00783   -0.00284    0.29597
 13 Li    0.00152   -0.00423    0.24476
 14 Li    0.00678   -0.00346    0.29510
 15 Li   -0.00277    0.01196    0.24947
 16 Li    0.00050   -0.01213    0.26739
 17 Li    0.00361    0.00966    0.25161
 18 Li   -0.00941    0.00676    0.04720
 19 Li    0.00800    0.00452    0.05337
 20 Li    0.00213   -0.01713   -0.16381
 21 Li   -0.01684   -0.01692    0.05303
 22 Li    0.01587   -0.01300    0.04804
 23 Li    0.00179    0.01629    0.01387
 24 Li   -0.00101    0.00786    0.03690
 25 Li    0.00302    0.00664    0.04043
 26 Li   -0.00049    0.00924    0.05171
 27 Li    0.03891   -0.05373   -0.01709
 28 Li    0.00513    0.02223   -0.01935
 29 Li   -0.02816   -0.04199   -0.01917
 30 Li   -0.04099   -0.01176    0.07807
 31 Li    0.00337   -0.01960   -0.02140
 32 Li    0.02613    0.00330    0.04076
 33 Li   -0.01602    0.00682   -0.01650
 34 Li   -0.00010   -0.00236   -0.01089
 35 Li    0.01533    0.00650   -0.01250
 36 O     0.48862    7.12368   15.35573
 37 C     0.00002   -0.17639    0.00890
 38 C    -0.03754    0.05130    0.03378
 39 C    -1.25951    1.24495    2.12929
 40 C     0.02151   -0.04773    0.03311
 41 H    -0.02519   -0.05253   -0.01134
 42 H    -0.04502   -0.02045    0.06963
 43 H    -0.00371   -0.00521   -0.02302
 44 H    -0.01099   -0.00490   -0.00672
 45 H    -0.02033    0.11522    0.31577
 46 H    -0.59777    0.56250    0.13532
 47 H    -0.01086    0.00364   -0.03264
 48 H    -0.01139   -0.00549    0.01514
 49 H     0.01164    0.03483   -0.00774
 50 H    -1.09427  -10.20488    2.52882
 51 N     0.25877    5.00397  -11.24979
 52 N     2.33444   -3.58058   -9.38368

System changes: positions 

Initializing position-dependent things.

Density initialized from wave functions
       .-----------------------.  
      /|                       |  
     / |                       |  
    /  |                       |  
   /   |                       |  
  /    |                       |  
 *     |                       |  
 |     |                       |  
 |     |                       |  
 |     |                       |  
 |     |                       |  
 |     |                       |  
 |     |      H     H          |  
 |     |HH   C  H   C O        |  
 |     Li C   H C   H  Li      |  
 |     | H     H     HN        |  
 |     |     Li      Li      Li|  
 |     |  Li      Li  N   Li   |  
 |     |   Li      Li      Li  |  
 |     |Li      Li      Li     |  
 |     | Li                    |  
 |   LLi     LLi     LLi       |  
 |     |  Li      Li      Li   |  
 | Li  |   Li      Li          |  
 |     |Li      Li      Li     |  
 Li    | Li      Li            |  
 |    Li      Li      Li       |  
 |     |                       |  
 |     |                       |  
 |     |                       |  
 |     |                       |  
 |     |                       |  
 |     |                       |  
 |     .-----------------------.  
 |    /                       /   
 |   /                       /    
 |  /                       /     
 | /                       /      
 |/                       /       
 *-----------------------*        

Positions:
   0 Li     1.617037    1.617037   10.000000    ( 0.0000,  0.0000,  0.0000)
   1 Li     4.851111    1.617037   10.000000    ( 0.0000,  0.0000,  0.0000)
   2 Li     8.085185    1.617037   10.000000    ( 0.0000,  0.0000,  0.0000)
   3 Li     1.617037    4.851111   10.000000    ( 0.0000,  0.0000,  0.0000)
   4 Li     4.851111    4.851111   10.000000    ( 0.0000,  0.0000,  0.0000)
   5 Li     8.085185    4.851111   10.000000    ( 0.0000,  0.0000,  0.0000)
   6 Li     1.617037    8.085185   10.000000    ( 0.0000,  0.0000,  0.0000)
   7 Li     4.851111    8.085185   10.000000    ( 0.0000,  0.0000,  0.0000)
   8 Li     8.085185    8.085185   10.000000    ( 0.0000,  0.0000,  0.0000)
   9 Li     0.000000    0.000000   11.617037    ( 0.0000,  0.0000,  0.0000)
  10 Li     3.234074    0.000000   11.617037    ( 0.0000,  0.0000,  0.0000)
  11 Li     6.468148    0.000000   11.617037    ( 0.0000,  0.0000,  0.0000)
  12 Li     0.000000    3.234074   11.617037    ( 0.0000,  0.0000,  0.0000)
  13 Li     3.234074    3.234074   11.617037    ( 0.0000,  0.0000,  0.0000)
  14 Li     6.468148    3.234074   11.617037    ( 0.0000,  0.0000,  0.0000)
  15 Li     0.000000    6.468148   11.617037    ( 0.0000,  0.0000,  0.0000)
  16 Li     3.234074    6.468148   11.617037    ( 0.0000,  0.0000,  0.0000)
  17 Li     6.468148    6.468148   11.617037    ( 0.0000,  0.0000,  0.0000)
  18 Li     1.616957    1.617116   13.470290    ( 0.0000,  0.0000,  0.0000)
  19 Li     4.851186    1.617089   13.470346    ( 0.0000,  0.0000,  0.0000)
  20 Li     8.085201    1.616797   13.467832    ( 0.0000,  0.0000,  0.0000)
  21 Li     1.616808    4.850883   13.470394    ( 0.0000,  0.0000,  0.0000)
  22 Li     4.851324    4.850951   13.470313    ( 0.0000,  0.0000,  0.0000)
  23 Li     8.085210    4.851307   13.469971    ( 0.0000,  0.0000,  0.0000)
  24 Li     1.617020    8.085287   13.470176    ( 0.0000,  0.0000,  0.0000)
  25 Li     4.851151    8.085252   13.470207    ( 0.0000,  0.0000,  0.0000)
  26 Li     8.085178    8.085323   13.470363    ( 0.0000,  0.0000,  0.0000)
  27 Li     0.000665   -0.000764   15.445474    ( 0.0000,  0.0000,  0.0000)
  28 Li     3.234123    0.000267   15.445712    ( 0.0000,  0.0000,  0.0000)
  29 Li     6.467639   -0.000577   15.445526    ( 0.0000,  0.0000,  0.0000)
  30 Li    -0.000302    3.233954   15.446627    ( 0.0000,  0.0000,  0.0000)
  31 Li     3.234103    3.233828   15.445699    ( 0.0000,  0.0000,  0.0000)
  32 Li     6.468217    3.234174   15.446173    ( 0.0000,  0.0000,  0.0000)
  33 Li    -0.000242    6.468181   15.445728    ( 0.0000,  0.0000,  0.0000)
  34 Li     3.234065    6.468148   15.445799    ( 0.0000,  0.0000,  0.0000)
  35 Li     6.468390    6.468185   15.445763    ( 0.0000,  0.0000,  0.0000)
  36 O      8.088404    1.662556   19.775255    ( 0.0000,  0.0000,  0.0000)
  37 C      5.616816    1.604304   19.682643    ( 0.0000,  0.0000,  0.0000)
  38 C      4.347947    2.459131   19.668712    ( 0.0000,  0.0000,  0.0000)
  39 C      6.894138    2.436345   19.665134    ( 0.0000,  0.0000,  0.0000)
  40 C      3.075825    1.608767   19.653121    ( 0.0000,  0.0000,  0.0000)
  41 H      5.632593    0.970791   20.575146    ( 0.0000,  0.0000,  0.0000)
  42 H      5.604526    0.934088   18.811000    ( 0.0000,  0.0000,  0.0000)
  43 H      4.361489    3.118892   18.791849    ( 0.0000,  0.0000,  0.0000)
  44 H      4.343552    3.115855   20.546247    ( 0.0000,  0.0000,  0.0000)
  45 H      6.892903    3.094583   18.776431    ( 0.0000,  0.0000,  0.0000)
  46 H      6.975835    3.060491   20.544151    ( 0.0000,  0.0000,  0.0000)
  47 H      3.048198    0.966204   18.768261    ( 0.0000,  0.0000,  0.0000)
  48 H      3.030398    0.958710   20.530294    ( 0.0000,  0.0000,  0.0000)
  49 H      2.172687    2.222731   19.646569    ( 0.0000,  0.0000,  0.0000)
  50 H      8.027489    0.984045   18.917498    ( 0.0000,  0.0000,  0.0000)
  51 N      8.087906    1.672723   17.107493    ( 0.0000,  0.0000,  0.0000)
  52 N      8.106799    1.543630   18.190040    ( 0.0000,  0.0000,  0.0000)

Unit cell:
           periodic     x           y           z      points  spacing
  1. axis:    yes    9.702222    0.000000    0.000000    60     0.1617
  2. axis:    yes    0.000000    9.702222    0.000000    60     0.1617
  3. axis:    no     0.000000    0.000000   26.601111   168     0.1583

  Lengths:   9.702222   9.702222  26.601111
  Angles:   90.000000  90.000000  90.000000

Effective grid spacing dv^(1/3) = 0.1606

     iter     time        total  log10-change:
                         energy  eigst   dens
iter:   1 10:36:10  -351.322794  -0.74
iter:   2 10:36:17  -351.295150  -1.14  -1.86
iter:   3 10:36:25  -351.270222  -1.48  -1.79
iter:   4 10:36:33  -351.247209  -1.61  -2.00
Writing to output.gpw (mode='')

iter:   5 10:36:40  -351.246162c -1.95  -2.37
iter:   6 10:36:48  -351.249243c -1.89  -2.46
iter:   7 10:36:55  -351.244024c -2.49  -2.31
iter:   8 10:37:03  -351.243557c -2.70  -2.64
iter:   9 10:37:11  -351.243689c -2.75  -2.86
Writing to output.gpw (mode='')

iter:  10 10:37:18  -351.243486c -3.28  -2.99
iter:  11 10:37:26  -351.243537c -3.32  -3.01
iter:  12 10:37:33  -351.243508c -3.80  -3.13
iter:  13 10:37:41  -351.243508c -3.98  -3.16
iter:  14 10:37:48  -351.243480c -3.75  -3.35
Writing to output.gpw (mode='')

iter:  15 10:37:56  -351.243458c -4.61  -3.40
iter:  16 10:38:04  -351.243447c -4.44  -3.51
iter:  17 10:38:11  -351.243450c -5.06  -3.72
iter:  18 10:38:19  -351.243448c -5.11  -3.92
iter:  19 10:38:26  -351.243447c -5.27  -4.00
Writing to output.gpw (mode='')

iter:  20 10:38:34  -351.243447c -5.56  -4.08c
iter:  21 10:38:41  -351.243447c -5.80  -4.28c
iter:  22 10:38:49  -351.243447c -5.78  -4.39c
iter:  23 10:38:57  -351.243449c -5.86  -4.47c
iter:  24 10:39:04  -351.243448c -6.26  -4.58c
Writing to output.gpw (mode='')

iter:  25 10:39:12  -351.243449c -6.33  -4.64c
iter:  26 10:39:26  -351.243448c -6.43  -4.74c
iter:  27 10:39:33  -351.243449c -6.37  -4.82c
iter:  28 10:39:41  -351.243449c -6.37  -4.86c
iter:  29 10:39:49  -351.243449c -6.52  -5.02c
Writing to output.gpw (mode='')

iter:  30 10:39:56  -351.243449c -6.90  -5.05c
iter:  31 10:40:04  -351.243449c -6.90  -5.12c
iter:  32 10:40:11  -351.243449c -7.02  -5.24c
iter:  33 10:40:19  -351.243449c -7.31  -5.28c
iter:  34 10:40:27  -351.243449c -7.08  -5.30c
Writing to output.gpw (mode='')

iter:  35 10:40:34  -351.243449c -7.42c -5.33c

Converged after 35 iterations.

Dipole moment: (-2.550607, -4.384545, -0.019119) |e|*Ang

Energy contributions relative to reference atoms: (reference = -16540.070923)

Kinetic:       +221.704484
Potential:     -204.780292
External:        +0.000000
XC:            -368.905229
Entropy (-ST):   -0.148753
Local:           +0.811965
--------------------------
Free energy:   -351.317825
Extrapolated:  -351.243449

Dipole-layer corrected work functions: 3.392741, 3.429495 eV

Showing only first 2 kpts
 Kpt  Band  Eigenvalues  Occupancy
  0    37     -3.65784    1.98571
  0    38     -3.55370    1.89081
  0    39     -3.25288    0.08102
  0    40     -3.18064    0.01971

  1    37     -3.46476    1.49026
  1    38     -3.40934    0.98226
  1    39     -3.39416    0.83207
  1    40     -3.30530    0.21504


Fermi level: -3.41112

No gap

Forces in eV/Ang:
  0 Li    0.02438   -0.00027   -0.26996
  1 Li   -0.02370    0.00036   -0.27183
  2 Li   -0.00073   -0.00406   -0.27972
  3 Li   -0.00287   -0.00076   -0.27331
  4 Li    0.00140   -0.00233   -0.27494
  5 Li    0.00024    0.02593   -0.27623
  6 Li   -0.00425    0.00306   -0.27796
  7 Li    0.00277    0.00475   -0.27661
  8 Li    0.00091   -0.02490   -0.27113
  9 Li    0.00337   -0.00445    0.27613
 10 Li   -0.00028    0.01441    0.25678
 11 Li   -0.00431   -0.00377    0.27719
 12 Li   -0.00817   -0.00278    0.29533
 13 Li    0.00105   -0.00486    0.24505
 14 Li    0.00728   -0.00328    0.29519
 15 Li   -0.00277    0.01194    0.24839
 16 Li    0.00022   -0.01287    0.26630
 17 Li    0.00400    0.01036    0.25062
 18 Li   -0.00987    0.00634    0.04772
 19 Li    0.00804    0.00477    0.05248
 20 Li    0.00228   -0.01912   -0.15986
 21 Li   -0.01600   -0.01730    0.05215
 22 Li    0.01548   -0.01323    0.04781
 23 Li    0.00148    0.01664    0.01563
 24 Li   -0.00153    0.00750    0.03806
 25 Li    0.00336    0.00538    0.04002
 26 Li   -0.00026    0.01067    0.05234
 27 Li    0.04816   -0.05657   -0.02703
 28 Li    0.00463    0.02180   -0.01778
 29 Li   -0.03873   -0.04464   -0.02887
 30 Li   -0.03044   -0.00850    0.06710
 31 Li    0.00296   -0.02005   -0.01886
 32 Li    0.01965    0.00080    0.03834
 33 Li   -0.01752    0.00411   -0.01608
 34 Li   -0.00038   -0.00050   -0.01107
 35 Li    0.01707    0.00398   -0.01263
 36 O     0.16885    5.40379   13.00029
 37 C     0.00643   -0.12908    0.03011
 38 C    -0.04079    0.04394    0.02930
 39 C    -0.97629    1.00625    1.89657
 40 C     0.00963   -0.04091    0.02846
 41 H    -0.03116   -0.05419   -0.00828
 42 H    -0.03067   -0.01139    0.07164
 43 H    -0.00531   -0.00553   -0.01900
 44 H    -0.01382   -0.00828   -0.00917
 45 H     0.03020    0.05565    0.30641
 46 H    -0.62740    0.61110    0.15309
 47 H    -0.01039    0.00169   -0.03013
 48 H    -0.01307   -0.00460    0.01259
 49 H     0.00418    0.03077   -0.00516
 50 H    -0.91283   -7.84637    3.50282
 51 N     0.07682    4.39919   -8.98914
 52 N     2.36734   -3.39488  -10.10964

System changes: positions 

Initializing position-dependent things.

Density initialized from wave functions
       .-----------------------.  
      /|                       |  
     / |                       |  
    /  |                       |  
   /   |                       |  
  /    |                       |  
 *     |                       |  
 |     |                       |  
 |     |                       |  
 |     |                       |  
 |     |                       |  
 |     |                       |  
 |     |      H     H          |  
 |     |HH   C  H   C O        |  
 |     Li C   H C   H  Li      |  
 |     | H     H     H         |  
 |     |     Li      LN      Li|  
 |     |  Li      Li  N   Li   |  
 |     |   Li      Li      Li  |  
 |     |Li      Li      Li     |  
 |     | Li                    |  
 |   LLi     LLi     LLi       |  
 |     |  Li      Li      Li   |  
 | Li  |   Li      Li          |  
 |     |Li      Li      Li     |  
 Li    | Li      Li            |  
 |    Li      Li      Li       |  
 |     |                       |  
 |     |                       |  
 |     |                       |  
 |     |                       |  
 |     |                       |  
 |     |                       |  
 |     .-----------------------.  
 |    /                       /   
 |   /                       /    
 |  /                       /     
 | /                       /      
 |/                       /       
 *-----------------------*        

Positions:
   0 Li     1.617037    1.617037   10.000000    ( 0.0000,  0.0000,  0.0000)
   1 Li     4.851111    1.617037   10.000000    ( 0.0000,  0.0000,  0.0000)
   2 Li     8.085185    1.617037   10.000000    ( 0.0000,  0.0000,  0.0000)
   3 Li     1.617037    4.851111   10.000000    ( 0.0000,  0.0000,  0.0000)
   4 Li     4.851111    4.851111   10.000000    ( 0.0000,  0.0000,  0.0000)
   5 Li     8.085185    4.851111   10.000000    ( 0.0000,  0.0000,  0.0000)
   6 Li     1.617037    8.085185   10.000000    ( 0.0000,  0.0000,  0.0000)
   7 Li     4.851111    8.085185   10.000000    ( 0.0000,  0.0000,  0.0000)
   8 Li     8.085185    8.085185   10.000000    ( 0.0000,  0.0000,  0.0000)
   9 Li     0.000000    0.000000   11.617037    ( 0.0000,  0.0000,  0.0000)
  10 Li     3.234074    0.000000   11.617037    ( 0.0000,  0.0000,  0.0000)
  11 Li     6.468148    0.000000   11.617037    ( 0.0000,  0.0000,  0.0000)
  12 Li     0.000000    3.234074   11.617037    ( 0.0000,  0.0000,  0.0000)
  13 Li     3.234074    3.234074   11.617037    ( 0.0000,  0.0000,  0.0000)
  14 Li     6.468148    3.234074   11.617037    ( 0.0000,  0.0000,  0.0000)
  15 Li     0.000000    6.468148   11.617037    ( 0.0000,  0.0000,  0.0000)
  16 Li     3.234074    6.468148   11.617037    ( 0.0000,  0.0000,  0.0000)
  17 Li     6.468148    6.468148   11.617037    ( 0.0000,  0.0000,  0.0000)
  18 Li     1.616920    1.617136   13.470491    ( 0.0000,  0.0000,  0.0000)
  19 Li     4.851216    1.617108   13.470550    ( 0.0000,  0.0000,  0.0000)
  20 Li     8.085207    1.616702   13.467231    ( 0.0000,  0.0000,  0.0000)
  21 Li     1.616746    4.850808   13.470599    ( 0.0000,  0.0000,  0.0000)
  22 Li     4.851385    4.850898   13.470502    ( 0.0000,  0.0000,  0.0000)
  23 Li     8.085215    4.851360   13.470087    ( 0.0000,  0.0000,  0.0000)
  24 Li     1.617008    8.085316   13.470337    ( 0.0000,  0.0000,  0.0000)
  25 Li     4.851167    8.085261   13.470361    ( 0.0000,  0.0000,  0.0000)
  26 Li     8.085179    8.085387   13.470587    ( 0.0000,  0.0000,  0.0000)
  27 Li     0.001019   -0.001094   15.445146    ( 0.0000,  0.0000,  0.0000)
  28 Li     3.234134    0.000358   15.445657    ( 0.0000,  0.0000,  0.0000)
  29 Li     6.467319   -0.000847   15.445213    ( 0.0000,  0.0000,  0.0000)
  30 Li    -0.000219    3.234024   15.446649    ( 0.0000,  0.0000,  0.0000)
  31 Li     3.234106    3.233733   15.445651    ( 0.0000,  0.0000,  0.0000)
  32 Li     6.468107    3.234249   15.446144    ( 0.0000,  0.0000,  0.0000)
  33 Li    -0.000345    6.468165   15.445674    ( 0.0000,  0.0000,  0.0000)
  34 Li     3.234060    6.468166   15.445752    ( 0.0000,  0.0000,  0.0000)
  35 Li     6.468496    6.468172   15.445716    ( 0.0000,  0.0000,  0.0000)
  36 O      8.086318    1.661713   19.799250    ( 0.0000,  0.0000,  0.0000)
  37 C      5.616591    1.604566   19.683120    ( 0.0000,  0.0000,  0.0000)
  38 C      4.347696    2.458985   19.668775    ( 0.0000,  0.0000,  0.0000)
  39 C      6.894519    2.436909   19.669435    ( 0.0000,  0.0000,  0.0000)
  40 C      3.075709    1.608767   19.653199    ( 0.0000,  0.0000,  0.0000)
  41 H      5.632434    0.970539   20.575126    ( 0.0000,  0.0000,  0.0000)
  42 H      5.604542    0.934044   18.811238    ( 0.0000,  0.0000,  0.0000)
  43 H      4.361459    3.118891   18.791806    ( 0.0000,  0.0000,  0.0000)
  44 H      4.343490    3.115787   20.546184    ( 0.0000,  0.0000,  0.0000)
  45 H      6.893081    3.094521   18.777613    ( 0.0000,  0.0000,  0.0000)
  46 H      6.972628    3.063942   20.545184    ( 0.0000,  0.0000,  0.0000)
  47 H      3.048174    0.966173   18.768156    ( 0.0000,  0.0000,  0.0000)
  48 H      3.030333    0.958709   20.530308    ( 0.0000,  0.0000,  0.0000)
  49 H      2.172616    2.222789   19.646588    ( 0.0000,  0.0000,  0.0000)
  50 H      8.026173    0.988559   18.940393    ( 0.0000,  0.0000,  0.0000)
  51 N      8.086951    1.685922   17.087012    ( 0.0000,  0.0000,  0.0000)
  52 N      8.114871    1.523418   18.156479    ( 0.0000,  0.0000,  0.0000)

Unit cell:
           periodic     x           y           z      points  spacing
  1. axis:    yes    9.702222    0.000000    0.000000    60     0.1617
  2. axis:    yes    0.000000    9.702222    0.000000    60     0.1617
  3. axis:    no     0.000000    0.000000   26.601111   168     0.1583

  Lengths:   9.702222   9.702222  26.601111
  Angles:   90.000000  90.000000  90.000000

Effective grid spacing dv^(1/3) = 0.1606

     iter     time        total  log10-change:
                         energy  eigst   dens
iter:   1 10:40:44  -352.285334  -0.89
iter:   2 10:40:52  -352.272064  -1.47  -2.08
iter:   3 10:40:59  -352.261577c -1.50  -2.17
iter:   4 10:41:07  -352.250670c -1.48  -2.08
Writing to output.gpw (mode='')

iter:   5 10:41:15  -352.254018c -2.11  -2.44
iter:   6 10:41:23  -352.250089c -2.20  -2.43
iter:   7 10:41:30  -352.247160c -2.17  -2.49
iter:   8 10:41:38  -352.246594c -3.07  -2.88
iter:   9 10:41:46  -352.246961c -3.40  -2.89
Writing to output.gpw (mode='')

iter:  10 10:41:54  -352.246731c -2.95  -2.88
iter:  11 10:42:01  -352.246630c -3.46  -3.01
iter:  12 10:42:09  -352.246607c -4.29  -3.25
iter:  13 10:42:17  -352.246567c -4.34  -3.39
iter:  14 10:42:24  -352.246545c -4.26  -3.47
Writing to output.gpw (mode='')

iter:  15 10:42:32  -352.246514c -4.71  -3.49
iter:  16 10:42:40  -352.246507c -4.55  -3.62
iter:  17 10:42:48  -352.246510c -5.14  -3.76
iter:  18 10:42:55  -352.246522c -5.34  -3.79
iter:  19 10:43:03  -352.246529c -5.34  -3.94
Writing to output.gpw (mode='')

iter:  20 10:43:11  -352.246531c -5.59  -4.06c
iter:  21 10:43:18  -352.246534c -5.70  -4.13c
iter:  22 10:43:26  -352.246537c -5.85  -4.30c
iter:  23 10:43:34  -352.246535c -6.22  -4.38c
iter:  24 10:43:41  -352.246533c -6.37  -4.61c
Writing to output.gpw (mode='')

iter:  25 10:43:49  -352.246533c -6.39  -4.68c
iter:  26 10:43:57  -352.246532c -6.69  -4.80c
iter:  27 10:44:05  -352.246533c -6.86  -4.94c
iter:  28 10:44:12  -352.246534c -6.88  -5.12c
iter:  29 10:44:27  -352.246534c -6.94  -5.25c
Writing to output.gpw (mode='')

iter:  30 10:44:35  -352.246533c -7.13  -5.25c
iter:  31 10:44:42  -352.246534c -7.23  -5.39c
iter:  32 10:44:50  -352.246534c -7.43c -5.54c

Converged after 32 iterations.

Dipole moment: (-2.581424, -4.361324, -0.075873) |e|*Ang

Energy contributions relative to reference atoms: (reference = -16540.070923)

Kinetic:       +219.325205
Potential:     -203.754975
External:        +0.000000
XC:            -368.555152
Entropy (-ST):   -0.148134
Local:           +0.812456
--------------------------
Free energy:   -352.320601
Extrapolated:  -352.246534

Dipole-layer corrected work functions: 3.394871, 3.540724 eV

Showing only first 2 kpts
 Kpt  Band  Eigenvalues  Occupancy
  0    37     -3.71466    1.98575
  0    38     -3.61131    1.89271
  0    39     -3.30780    0.07833
  0    40     -3.23659    0.01943

  1    37     -3.52717    1.53259
  1    38     -3.46503    0.97231
  1    39     -3.45031    0.82684
  1    40     -3.35948    0.20562


Fermi level: -3.46780

No gap
Writing to output.gpw (mode='')


Forces in eV/Ang:
  0 Li    0.02519   -0.00025   -0.26979
  1 Li   -0.02441   -0.00004   -0.27189
  2 Li   -0.00078   -0.00373   -0.27912
  3 Li   -0.00347   -0.00034   -0.27385
  4 Li    0.00188   -0.00192   -0.27468
  5 Li    0.00045    0.02646   -0.27629
  6 Li   -0.00396    0.00346   -0.27798
  7 Li    0.00244    0.00519   -0.27717
  8 Li    0.00070   -0.02602   -0.27075
  9 Li    0.00358   -0.00403    0.27536
 10 Li    0.00002    0.01427    0.25626
 11 Li   -0.00458   -0.00352    0.27623
 12 Li   -0.00817   -0.00253    0.29438
 13 Li    0.00048   -0.00541    0.24507
 14 Li    0.00737   -0.00300    0.29489
 15 Li   -0.00311    0.01152    0.24788
 16 Li    0.00022   -0.01326    0.26603
 17 Li    0.00445    0.01083    0.24993
 18 Li   -0.01068    0.00576    0.04914
 19 Li    0.00830    0.00497    0.05285
 20 Li    0.00239   -0.02022   -0.15775
 21 Li   -0.01485   -0.01720    0.05084
 22 Li    0.01504   -0.01354    0.04777
 23 Li    0.00101    0.01552    0.01924
 24 Li   -0.00208    0.00712    0.03921
 25 Li    0.00363    0.00440    0.03959
 26 Li   -0.00001    0.01250    0.05384
 27 Li    0.06255   -0.06714   -0.04665
 28 Li    0.00421    0.02244   -0.01603
 29 Li   -0.05475   -0.05530   -0.04832
 30 Li   -0.01145    0.00520    0.04314
 31 Li    0.00283   -0.02137   -0.01648
 32 Li    0.00692    0.00658    0.02431
 33 Li   -0.01986    0.00183   -0.01427
 34 Li   -0.00049    0.00094   -0.01086
 35 Li    0.01945    0.00160   -0.01142
 36 O    -0.15571    3.86201   11.13592
 37 C    -0.00467   -0.07792    0.05850
 38 C    -0.04508    0.03133    0.02308
 39 C    -0.72860    0.77479    1.69541
 40 C     0.00169   -0.03369    0.02488
 41 H    -0.03383   -0.05538   -0.00792
 42 H    -0.01640   -0.00685    0.06804
 43 H    -0.00705   -0.00420   -0.01750
 44 H    -0.01560   -0.00945   -0.00895
 45 H     0.07297    0.00837    0.29020
 46 H    -0.63134    0.64611    0.17131
 47 H    -0.01006    0.00021   -0.02864
 48 H    -0.01429   -0.00416    0.01127
 49 H    -0.00088    0.02715   -0.00331
 50 H    -0.70171   -5.60913    4.18541
 51 N    -0.11369    4.16338   -9.08980
 52 N     2.37375   -3.58667   -8.52163

System changes: positions 

Initializing position-dependent things.

Density initialized from wave functions
       .-----------------------.  
      /|                       |  
     / |                       |  
    /  |                       |  
   /   |                       |  
  /    |                       |  
 *     |                       |  
 |     |                       |  
 |     |                       |  
 |     |                       |  
 |     |                       |  
 |     |                       |  
 |     |      H     H          |  
 |     |HH   C  H   C O        |  
 |     Li C   H C   H  Li      |  
 |     | H     H     H         |  
 |     |     Li      LN      Li|  
 |     |  Li      Li  N   Li   |  
 |     |   Li      Li      Li  |  
 |     |Li      Li      Li     |  
 |     | Li                    |  
 |   LLi     LLi     LLi       |  
 |     |  Li      Li      Li   |  
 | Li  |   Li      Li          |  
 |     |Li      Li      Li     |  
 Li    | Li      Li            |  
 |    Li      Li      Li       |  
 |     |                       |  
 |     |                       |  
 |     |                       |  
 |     |                       |  
 |     |                       |  
 |     |                       |  
 |     .-----------------------.  
 |    /                       /   
 |   /                       /    
 |  /                       /     
 | /                       /      
 |/                       /       
 *-----------------------*        

Positions:
   0 Li     1.617037    1.617037   10.000000    ( 0.0000,  0.0000,  0.0000)
   1 Li     4.851111    1.617037   10.000000    ( 0.0000,  0.0000,  0.0000)
   2 Li     8.085185    1.617037   10.000000    ( 0.0000,  0.0000,  0.0000)
[...]

Showing only first 2 kpts
 Kpt  Band  Eigenvalues  Occupancy
  0    37     -3.68793    1.96619
  0    38     -3.50737    1.22216
  0    39     -3.47193    0.87226
  0    40     -3.37717    0.20827

  1    37     -3.79865    1.99625
  1    38     -3.43875    0.56970
  1    39     -3.37938    0.21664
  1    40     -3.35847    0.14809


Fermi level: -3.48478

No gap

Forces in eV/Ang:
  0 Li   -0.01034   -0.01239   -0.29225
  1 Li    0.00708    0.01037   -0.29523
  2 Li    0.00035   -0.00044   -0.25280
  3 Li    0.01478    0.01722   -0.28354
  4 Li   -0.01044    0.01068   -0.29192
  5 Li   -0.01063   -0.00736   -0.29555
  6 Li    0.00790   -0.00971   -0.29419
  7 Li   -0.01642   -0.01726   -0.28275
  8 Li    0.01107    0.00628   -0.29343
  9 Li   -0.02873    0.02238    0.31604
 10 Li    0.00500    0.00034    0.28593
 11 Li    0.04764    0.02675    0.26865
 12 Li   -0.02492   -0.03522    0.26085
 13 Li   -0.01726   -0.01594    0.29645
 14 Li    0.03900   -0.02745    0.34122
 15 Li   -0.00778    0.00569    0.26587
 16 Li   -0.00547    0.01357    0.25891
 17 Li    0.02477    0.02105    0.27185
 18 Li    0.00101   -0.00081   -0.00246
 19 Li    0.00201    0.00073   -0.00234
 20 Li    0.00108    0.00367    0.00437
 21 Li    0.00306   -0.00716    0.00090
 22 Li    0.00257   -0.00648    0.00464
 23 Li    0.00025    0.00015    0.00094
 24 Li    0.00021    0.00284   -0.00550
 25 Li    0.00201    0.00250   -0.00289
 26 Li    0.00512   -0.00249   -0.00442
 27 Li    0.02965   -0.02146   -0.00765
 28 Li    0.00043    0.00277    0.00047
 29 Li    0.01465    0.00050    0.01261
 30 Li   -0.00287   -0.00936    0.01055
 31 Li   -0.00154    0.00135   -0.00200
 32 Li   -0.03125    0.02527   -0.00820
 33 Li   -0.00069    0.00106    0.00381
 34 Li   -0.00260   -0.00028    0.00193
 35 Li   -0.00076    0.00217   -0.00342
 36 O    -0.01579    0.02431   -0.00341
 37 C    -0.00865   -0.01404    0.00496
 38 C     0.00011   -0.00356    0.00458
 39 C    -0.00665   -0.00242    0.00317
 40 C     0.00223    0.02037   -0.00491
 41 H     0.01457   -0.00015   -0.00772
 42 H    -0.01044   -0.01033    0.01382
 43 H     0.00981   -0.00521    0.00454
 44 H     0.02059    0.01317   -0.00553
 45 H     0.00226    0.01787   -0.01756
 46 H     0.02349    0.00273    0.00221
 47 H     0.00772    0.00244   -0.01215
 48 H     0.00350    0.00994    0.00967
 49 H     0.00958    0.00578    0.01163
 50 H    -0.01210   -0.01145   -0.00042
 51 N    -0.02980    0.04181   -0.01116
 52 N    -0.00758   -0.00525    0.04939

System changes: positions 

Initializing position-dependent things.

Density initialized from wave functions
       .-----------------------.  
      /|                       |  
     / |                       |  
    /  |                       |  
   /   |                       |  
  /    |                       |  
 *     |                       |  
 |     |                       |  
 |     |                       |  
 |     |                       |  
 |     |                       |  
 |     |                       |  
 |     |    H      H           |  
 |    H|    C     C            |  
 |     LH      Hi    O         |  
 |     |             H         |  
 |   Li|H    LH      Li        |  
 |     |  Li      Li      Li   |  
 |     |   Li      LiN    Li   |  
 |     |Li      Li     NLi     |  
 |     |          Li           |  
 |   LLi     LLi     LLi       |  
 |     |  Li      Li      Li   |  
 | Li  |   Li      Li          |  
 |     |Li      Li      Li     |  
 Li    | Li      Li            |  
 |    Li      Li      Li       |  
 |     |                       |  
 |     |                       |  
 |     |                       |  
 |     |                       |  
 |     |                       |  
 |     |                       |  
 |     .-----------------------.  
 |    /                       /   
 |   /                       /    
 |  /                       /     
 | /                       /      
 |/                       /       
 *-----------------------*        

Positions:
   0 Li     1.617037    1.617037   10.000000    ( 0.0000,  0.0000,  0.0000)
   1 Li     4.851111    1.617037   10.000000    ( 0.0000,  0.0000,  0.0000)
   2 Li     8.085185    1.617037   10.000000    ( 0.0000,  0.0000,  0.0000)
   3 Li     1.617037    4.851111   10.000000    ( 0.0000,  0.0000,  0.0000)
   4 Li     4.851111    4.851111   10.000000    ( 0.0000,  0.0000,  0.0000)
   5 Li     8.085185    4.851111   10.000000    ( 0.0000,  0.0000,  0.0000)
   6 Li     1.617037    8.085185   10.000000    ( 0.0000,  0.0000,  0.0000)
   7 Li     4.851111    8.085185   10.000000    ( 0.0000,  0.0000,  0.0000)
   8 Li     8.085185    8.085185   10.000000    ( 0.0000,  0.0000,  0.0000)
   9 Li     0.000000    0.000000   11.617037    ( 0.0000,  0.0000,  0.0000)
  10 Li     3.234074    0.000000   11.617037    ( 0.0000,  0.0000,  0.0000)
  11 Li     6.468148    0.000000   11.617037    ( 0.0000,  0.0000,  0.0000)
  12 Li     0.000000    3.234074   11.617037    ( 0.0000,  0.0000,  0.0000)
  13 Li     3.234074    3.234074   11.617037    ( 0.0000,  0.0000,  0.0000)
  14 Li     6.468148    3.234074   11.617037    ( 0.0000,  0.0000,  0.0000)
  15 Li     0.000000    6.468148   11.617037    ( 0.0000,  0.0000,  0.0000)
  16 Li     3.234074    6.468148   11.617037    ( 0.0000,  0.0000,  0.0000)
  17 Li     6.468148    6.468148   11.617037    ( 0.0000,  0.0000,  0.0000)
  18 Li     1.600987    1.561753   13.505671    ( 0.0000,  0.0000,  0.0000)
  19 Li     4.860509    1.641582   13.476997    ( 0.0000,  0.0000,  0.0000)
  20 Li     8.105004    1.617135   13.577770    ( 0.0000,  0.0000,  0.0000)
  21 Li     1.549077    4.800674   13.483871    ( 0.0000,  0.0000,  0.0000)
  22 Li     4.809930    4.914117   13.461320    ( 0.0000,  0.0000,  0.0000)
  23 Li     8.066441    4.864290   13.478665    ( 0.0000,  0.0000,  0.0000)
  24 Li     1.658339    8.033802   13.490130    ( 0.0000,  0.0000,  0.0000)
  25 Li     4.927301    8.140431   13.491772    ( 0.0000,  0.0000,  0.0000)
  26 Li     8.135502    8.096952   13.513594    ( 0.0000,  0.0000,  0.0000)
  27 Li     0.139696   -0.140591   15.515298    ( 0.0000,  0.0000,  0.0000)
  28 Li     3.397231   -0.078285   15.414086    ( 0.0000,  0.0000,  0.0000)
  29 Li     6.749284    0.247685   15.562558    ( 0.0000,  0.0000,  0.0000)
  30 Li    -0.215524    2.992593   15.573927    ( 0.0000,  0.0000,  0.0000)
  31 Li     3.114053    3.302869   15.375170    ( 0.0000,  0.0000,  0.0000)
  32 Li     6.396148    3.353906   15.345981    ( 0.0000,  0.0000,  0.0000)
  33 Li     0.060320    6.309488   15.454374    ( 0.0000,  0.0000,  0.0000)
  34 Li     3.235990    6.464236   15.438649    ( 0.0000,  0.0000,  0.0000)
  35 Li     6.415823    6.601149   15.445347    ( 0.0000,  0.0000,  0.0000)
  36 O      7.381875    2.690652   18.799476    ( 0.0000,  0.0000,  0.0000)
  37 C      4.935362    2.329658   18.937924    ( 0.0000,  0.0000,  0.0000)
  38 C      3.582434    2.949663   19.310023    ( 0.0000,  0.0000,  0.0000)
  39 C      6.115307    3.285061   19.118903    ( 0.0000,  0.0000,  0.0000)
  40 C      2.414170    1.970042   19.158492    ( 0.0000,  0.0000,  0.0000)
  41 H      5.110735    1.434604   19.545075    ( 0.0000,  0.0000,  0.0000)
  42 H      4.909094    1.998036   17.889490    ( 0.0000,  0.0000,  0.0000)
  43 H      3.399608    3.836604   18.688355    ( 0.0000,  0.0000,  0.0000)
  44 H      3.618761    3.307197   20.345241    ( 0.0000,  0.0000,  0.0000)
  45 H      5.956737    4.195299   18.521446    ( 0.0000,  0.0000,  0.0000)
  46 H      6.190071    3.592568   20.164643    ( 0.0000,  0.0000,  0.0000)
  47 H      2.316194    1.626090   18.123370    ( 0.0000,  0.0000,  0.0000)
  48 H      2.560799    1.083859   19.782204    ( 0.0000,  0.0000,  0.0000)
  49 H      1.462621    2.426759   19.441831    ( 0.0000,  0.0000,  0.0000)
  50 H      7.407330    2.527749   17.843936    ( 0.0000,  0.0000,  0.0000)
  51 N      7.676928    2.063158   15.593294    ( 0.0000,  0.0000,  0.0000)
  52 N      8.572016    1.168360   15.586595    ( 0.0000,  0.0000,  0.0000)

Unit cell:
           periodic     x           y           z      points  spacing
  1. axis:    yes    9.702222    0.000000    0.000000    60     0.1617
  2. axis:    yes    0.000000    9.702222    0.000000    60     0.1617
  3. axis:    no     0.000000    0.000000   26.601111   168     0.1583

  Lengths:   9.702222   9.702222  26.601111
  Angles:   90.000000  90.000000  90.000000

Effective grid spacing dv^(1/3) = 0.1606

     iter     time        total  log10-change:
                         energy  eigst   dens
iter:   1 07:00:51  -360.948979  -3.12
iter:   2 07:00:59  -360.948867  -3.97  -3.16
iter:   3 07:01:07  -360.948880c -4.62  -3.29
iter:   4 07:01:15  -360.948861c -5.14  -3.41
Writing to output.gpw (mode='')

iter:   5 07:01:22  -360.948827c -4.35  -3.48
iter:   6 07:01:30  -360.948829c -5.12  -3.74
iter:   7 07:01:38  -360.948840c -4.34  -3.73
iter:   8 07:01:45  -360.948823c -5.17  -3.63
iter:   9 07:01:53  -360.948828c -5.47  -3.75
Writing to output.gpw (mode='')

iter:  10 07:02:01  -360.948823c -5.89  -3.74
iter:  11 07:02:08  -360.948820c -5.07  -3.80
iter:  12 07:02:16  -360.948816c -5.67  -4.04c
iter:  13 07:02:24  -360.948813c -5.70  -4.14c
iter:  14 07:02:32  -360.948819c -5.82  -4.27c
Writing to output.gpw (mode='')

iter:  15 07:02:39  -360.948816c -6.51  -4.47c
iter:  16 07:02:47  -360.948815c -7.00  -4.65c
iter:  17 07:02:55  -360.948816c -7.03  -4.72c
iter:  18 07:03:02  -360.948815c -7.35  -4.81c
iter:  19 07:03:10  -360.948815c -7.54c -4.85c

Converged after 19 iterations.

Dipole moment: (-3.037173, -2.049521, -0.074653) |e|*Ang

Energy contributions relative to reference atoms: (reference = -16540.070923)

Kinetic:       +182.146536
Potential:     -176.635269
External:        +0.000000
XC:            -367.225527
Entropy (-ST):   -0.161968
Local:           +0.846429
--------------------------
Free energy:   -361.029799
Extrapolated:  -360.948815

Dipole-layer corrected work functions: 3.412925, 3.556433 eV

Showing only first 2 kpts
 Kpt  Band  Eigenvalues  Occupancy
  0    37     -3.68786    1.96621
  0    38     -3.50730    1.22244
  0    39     -3.47185    0.87238
  0    40     -3.37708    0.20829

  1    37     -3.79864    1.99626
  1    38     -3.43859    0.56923
  1    39     -3.37925    0.21654
  1    40     -3.35839    0.14813


Fermi level: -3.48468

No gap
Writing to output.gpw (mode='')


Forces in eV/Ang:
  0 Li   -0.01035   -0.01241   -0.29223
  1 Li    0.00710    0.01034   -0.29522
  2 Li    0.00036   -0.00044   -0.25281
  3 Li    0.01479    0.01728   -0.28355
  4 Li   -0.01046    0.01071   -0.29191
  5 Li   -0.01062   -0.00734   -0.29555
  6 Li    0.00792   -0.00973   -0.29420
  7 Li   -0.01641   -0.01726   -0.28269
  8 Li    0.01108    0.00631   -0.29341
  9 Li   -0.02881    0.02220    0.31618
 10 Li    0.00488    0.00024    0.28584
 11 Li    0.04767    0.02672    0.26846
 12 Li   -0.02490   -0.03539    0.26082
 13 Li   -0.01728   -0.01601    0.29638
 14 Li    0.03896   -0.02762    0.34105
 15 Li   -0.00787    0.00571    0.26587
 16 Li   -0.00550    0.01364    0.25866
 17 Li    0.02477    0.02100    0.27158
 18 Li    0.00105   -0.00087   -0.00251
 19 Li    0.00209    0.00076   -0.00204
 20 Li    0.00105    0.00381    0.00385
 21 Li    0.00302   -0.00728    0.00102
 22 Li    0.00251   -0.00652    0.00483
 23 Li    0.00027    0.00024    0.00125
 24 Li    0.00004    0.00303   -0.00540
 25 Li    0.00210    0.00250   -0.00268
 26 Li    0.00551   -0.00247   -0.00448
 27 Li    0.02836   -0.01959   -0.00742
 28 Li    0.00011    0.00295    0.00043
 29 Li    0.01423   -0.00038    0.01237
 30 Li   -0.00202   -0.00775    0.01054
 31 Li   -0.00156    0.00126   -0.00197
 32 Li   -0.03091    0.02505   -0.00829
 33 Li   -0.00071    0.00140    0.00383
 34 Li   -0.00280   -0.00025    0.00205
 35 Li   -0.00069    0.00225   -0.00360
 36 O    -0.01629    0.02525    0.00184
 37 C    -0.00803   -0.01724    0.00600
 38 C     0.00302   -0.00328    0.00370
 39 C    -0.00697   -0.00547    0.00219
 40 C     0.00339    0.01999   -0.00452
 41 H     0.01600    0.00112   -0.01014
 42 H    -0.01273   -0.00837    0.01503
 43 H     0.01047   -0.00615    0.00308
 44 H     0.02190    0.01348   -0.00343
 45 H     0.00336    0.01943   -0.01900
 46 H     0.02354    0.00082    0.00144
 47 H     0.00761    0.00172   -0.01205
 48 H     0.00324    0.01090    0.00779
 49 H     0.00874    0.00710    0.01080
 50 H    -0.01434   -0.01060   -0.00173
 51 N    -0.02567    0.03951   -0.00954
 52 N    -0.00784   -0.00810    0.04818

Timing:                                      incl.     excl.
-------------------------------------------------------------------
Density initialized from wave functions:    18.647    18.637   0.0% |
 Symmetrize density:                         0.010     0.010   0.0% |
Forces:                                    161.397   161.397   0.2% |
Hamiltonian:                              2002.396     0.048   0.0% |
 Atomic:                                     0.081     0.080   0.0% |
  XC Correction:                             0.001     0.001   0.0% |
 Calculate atomic Hamiltonians:              0.146     0.146   0.0% |
 Communicate:                               23.531    23.531   0.0% |
 Hartree integrate/restrict:                 7.748     7.748   0.0% |
 Initialize Hamiltonian:                     0.000     0.000   0.0% |
 Poisson:                                   97.175    36.549   0.0% |
  Communicate from 1D:                       9.341     9.341   0.0% |
  Communicate from 2D:                       9.344     9.344   0.0% |
  Communicate to 1D:                         5.511     5.511   0.0% |
  Communicate to 2D:                        12.714    12.714   0.0% |
  FFT 1D:                                   12.015    12.015   0.0% |
  FFT 2D:                                   11.702    11.702   0.0% |
 XC 3D grid:                              1871.906   297.910   0.4% |
  VdW-DF integral:                        1573.995    12.896   0.0% |
   Convolution:                            143.873   143.873   0.2% |
   FFT:                                     60.927    60.927   0.1% |
   gather:                                 545.386   545.386   0.7% |
   hmm1:                                    50.801    50.801   0.1% |
   hmm2:                                    67.881    67.881   0.1% |
   iFFT:                                    63.561    63.561   0.1% |
   potential:                              624.893    17.064   0.0% |
    collect:                                95.917    95.917   0.1% |
    p1:                                    278.112   278.112   0.4% |
    p2:                                    103.171   103.171   0.1% |
    sum:                                   130.631   130.631   0.2% |
   splines:                                  3.777     3.777   0.0% |
 vbar:                                       1.761     1.761   0.0% |
LCAO initialization:                         1.268     0.183   0.0% |
 LCAO eigensolver:                           0.242     0.000   0.0% |
  Calculate projections:                     0.000     0.000   0.0% |
  DenseAtomicCorrection:                     0.000     0.000   0.0% |
  Distribute overlap matrix:                 0.220     0.220   0.0% |
  Orbital Layouts:                           0.019     0.019   0.0% |
  Potential matrix:                          0.001     0.001   0.0% |
  Sum over cells:                            0.001     0.001   0.0% |
 LCAO to grid:                               0.722     0.722   0.0% |
 Set positions (LCAO WFS):                   0.121     0.074   0.0% |
  Basic WFS set positions:                   0.001     0.001   0.0% |
  Basis functions set positions:             0.000     0.000   0.0% |
  P tci:                                     0.000     0.000   0.0% |
  ST tci:                                    0.012     0.012   0.0% |
  mktci:                                     0.033     0.033   0.0% |
Redistribute:                                0.208     0.208   0.0% |
SCF-cycle:                               72938.717  1270.409   1.7% ||
 Davidson:                               21056.887  6307.134   8.3% |--|
  Apply hamiltonian:                      1295.628  1295.628   1.7% ||
  Subspace diag:                          3908.765     1.136   0.0% |
   calc_h_matrix:                         2036.343   702.415   0.9% |
    Apply hamiltonian:                    1333.928  1333.928   1.8% ||
   diagonalize:                            129.284   129.284   0.2% |
   rotate_psi:                            1742.002  1742.002   2.3% ||
  calc. matrices:                         6734.385  3526.713   4.7% |-|
   Apply hamiltonian:                     3207.672  3207.672   4.2% |-|
  diagonalize:                              65.978    65.978   0.1% |
  rotate_psi:                             2744.996  2744.996   3.6% ||
 Density:                                  365.136     0.260   0.0% |
  Atomic density matrices:                  47.564    47.564   0.1% |
  Mix:                                     151.711   151.711   0.2% |
  Multipole moments:                        15.735    15.735   0.0% |
  Pseudo density:                          149.866   149.635   0.2% |
   Symmetrize density:                       0.231     0.231   0.0% |
 Hamiltonian:                            50179.401     1.175   0.0% |
  Atomic:                                    2.352     2.328   0.0% |
   XC Correction:                            0.024     0.024   0.0% |
  Calculate atomic Hamiltonians:             3.812     3.812   0.0% |
  Communicate:                             728.100   728.100   1.0% |
  Hartree integrate/restrict:              193.606   193.606   0.3% |
  Poisson:                                2405.539   890.333   1.2% |
   Communicate from 1D:                    239.331   239.331   0.3% |
   Communicate from 2D:                    241.251   241.251   0.3% |
   Communicate to 1D:                      137.134   137.134   0.2% |
   Communicate to 2D:                      290.766   290.766   0.4% |
   FFT 1D:                                 307.749   307.749   0.4% |
   FFT 2D:                                 298.975   298.975   0.4% |
  XC 3D grid:                            46804.699  7487.867   9.9% |---|
   VdW-DF integral:                      39316.832   324.545   0.4% |
    Convolution:                          3647.223  3647.223   4.8% |-|
    FFT:                                  1547.365  1547.365   2.0% ||
    gather:                              13508.377 13508.377  17.9% |------|
    hmm1:                                 1289.681  1289.681   1.7% ||
    hmm2:                                 1717.600  1717.600   2.3% ||
    iFFT:                                 1610.563  1610.563   2.1% ||
    potential:                           15671.393   437.392   0.6% |
     collect:                             2424.640  2424.640   3.2% ||
     p1:                                  7072.120  7072.120   9.4% |---|
     p2:                                  2627.826  2627.826   3.5% ||
     sum:                                 3109.416  3109.416   4.1% |-|
    splines:                                 0.085     0.085   0.0% |
  vbar:                                     40.118    40.118   0.1% |
 Orthonormalize:                            66.884     0.048   0.0% |
  calc_s_matrix:                            10.977    10.977   0.0% |
  inverse-cholesky:                         15.647    15.647   0.0% |
  projections:                               0.008     0.008   0.0% |
  rotate_psi_s:                             40.205    40.205   0.1% |
Set symmetry:                                0.014     0.014   0.0% |
Other:                                     463.884   463.884   0.6% |
-------------------------------------------------------------------
Total:                                             75586.532 100.0%

Memory usage: 1.16 GiB
Date: Sat Mar 11 07:03:11 2023
