
  ___ ___ ___ _ _ _  
 |   |   |_  | | | | 
 | | | | | . | | | | 
 |__ |  _|___|_____|  22.8.0
 |___|_|             

User:   vazumah@r423.ib.bridges2.psc.edu
Date:   Fri Mar 10 12:22:51 2023
Arch:   x86_64
Pid:    6843
CWD:    /jet/home/vazumah/Calcs/LiMEAS/proton_donors/ethanediol_y/bridge/8.085_1.617/N2_z
Python: 3.11.0
gpaw:   /jet/home/vazumah/.conda/envs/GPAW_mpich/lib/python3.11/site-packages/gpaw
_gpaw:  /jet/home/vazumah/.conda/envs/GPAW_mpich/lib/python3.11/site-packages/
        _gpaw.cpython-311-x86_64-linux-gnu.so
ase:    /jet/home/vazumah/.conda/envs/GPAW_mpich/lib/python3.11/site-packages/ase (version 3.22.1)
numpy:  /jet/home/vazumah/.conda/envs/GPAW_mpich/lib/python3.11/site-packages/numpy (version 1.24.2)
scipy:  /jet/home/vazumah/.conda/envs/GPAW_mpich/lib/python3.11/site-packages/scipy (version 1.10.1)
libxc:  5.2.3
units:  Angstrom and eV
cores: 128
OpenMP: True
OMP_NUM_THREADS: 1

Input parameters:
  h: 0.16
  kpts: {size: [4, 4, 1]}
  occupations: {name: fermi-dirac,
                width: 0.05}
  poissonsolver: {dipolelayer: xy}
  xc: BEEF-vdW

System changes: positions, numbers, cell, pbc, initial_charges, initial_magmoms 

Initialize ...

species:
  Li:
    name: Lithium
    id: 830b4218f175192f93f959cfc0aad614
    Z: 3.0
    valence: 1
    core: 2
    charge: 0.0
    file: /jet/home/vazumah/datasets/gpaw-setups-0.9.20000/Li.PBE.gz
    compensation charges: {type: gauss,
                           rc: 0.33,
                           lmax: 2}
    cutoffs: {filter: 1.91,
              core: 2.55}
    valence states:
      #              energy  rcut
      - 2s(1.00)    -2.874   1.058
      - 2p(0.00)    -1.090   1.058
      -  s          24.337   1.058
  
    # Using partial waves for Li as LCAO basis

  O:
    name: Oxygen
    id: 32ecd46bf208036f09c70b0ec9a88b78
    Z: 8.0
    valence: 6
    core: 2
    charge: 0.0
    file: /jet/home/vazumah/datasets/gpaw-setups-0.9.20000/O.PBE.gz
    compensation charges: {type: gauss,
                           rc: 0.21,
                           lmax: 2}
    cutoffs: {filter: 1.17,
              core: 0.83}
    valence states:
      #              energy  rcut
      - 2s(2.00)   -23.961   0.688
      - 2p(4.00)    -9.029   0.598
      -  s           3.251   0.688
      -  p          18.182   0.598
      -  d           0.000   0.619
  
    # Using partial waves for O as LCAO basis

  C:
    name: Carbon
    id: 4aa54d4b901d75f77cc0ea3eec22967b
    Z: 6.0
    valence: 4
    core: 2
    charge: 0.0
    file: /jet/home/vazumah/datasets/gpaw-setups-0.9.20000/C.PBE.gz
    compensation charges: {type: gauss,
                           rc: 0.20,
                           lmax: 2}
    cutoffs: {filter: 1.14,
              core: 1.14}
    valence states:
      #              energy  rcut
      - 2s(2.00)   -13.751   0.635
      - 2p(2.00)    -5.284   0.635
      -  s          13.461   0.635
      -  p          21.927   0.635
      -  d           0.000   0.635
  
    # Using partial waves for C as LCAO basis

  H:
    name: Hydrogen
    id: d65de229564ff8ea4db303e23b6d1ecf
    Z: 1.0
    valence: 1
    core: 0
    charge: 0.0
    file: /jet/home/vazumah/datasets/gpaw-setups-0.9.20000/H.PBE.gz
    compensation charges: {type: gauss,
                           rc: 0.15,
                           lmax: 2}
    cutoffs: {filter: 0.85,
              core: 0.53}
    valence states:
      #              energy  rcut
      - 1s(1.00)    -6.494   0.476
      -  s          20.717   0.476
      -  p           0.000   0.476
  
    # Using partial waves for H as LCAO basis

  N:
    name: Nitrogen
    id: f7500608b86eaa90eef8b1d9a670dc53
    Z: 7.0
    valence: 5
    core: 2
    charge: 0.0
    file: /jet/home/vazumah/datasets/gpaw-setups-0.9.20000/N.PBE.gz
    compensation charges: {type: gauss,
                           rc: 0.18,
                           lmax: 2}
    cutoffs: {filter: 1.11,
              core: 0.96}
    valence states:
      #              energy  rcut
      - 2s(2.00)   -18.583   0.603
      - 2p(3.00)    -7.089   0.529
      -  s           8.629   0.603
      -  p          20.123   0.529
      -  d           0.000   0.577
  
    # Using partial waves for N as LCAO basis

Reference energy: -16475.706344  # eV

Spin-paired calculation

Convergence criteria:
 Maximum [total energy] change in last 3 cyles: 0.0005 eV / electron
 Maximum integral of absolute [dens]ity change: 0.0001 electrons / valence electron
 Maximum integral of absolute [eigenst]ate change: 4e-08 eV^2 / valence electron
 Maximum number of scf [iter]ations: 333
 (Square brackets indicate name in SCF output, whereas a 'c' in
 the SCF output indicates the quantity has converged.)

Symmetries present (total): 1

  ( 1  0  0)
  ( 0  1  0)
  ( 0  0  1)

16 k-points: 4 x 4 x 1 Monkhorst-Pack grid
8 k-points in the irreducible part of the Brillouin zone
       k-points in crystal coordinates                weights
   0:     0.12500000   -0.37500000    0.00000000          2/16
   1:     0.12500000   -0.12500000    0.00000000          2/16
   2:     0.12500000    0.12500000    0.00000000          2/16
   3:     0.12500000    0.37500000    0.00000000          2/16
   4:     0.37500000   -0.37500000    0.00000000          2/16
   5:     0.37500000   -0.12500000    0.00000000          2/16
   6:     0.37500000    0.12500000    0.00000000          2/16
   7:     0.37500000    0.37500000    0.00000000          2/16

Wave functions: Uniform real-space grid
  Kinetic energy operator: 6*3+1=19 point O(h^6) finite-difference Laplacian
  ScaLapack parameters: grid=1x1, blocksize=None
  Wavefunction extrapolation:
    Improved wavefunction reuse through dual PAW basis 

Occupation numbers: Fermi-Dirac:
  width: 0.0500  # eV
 

Eigensolver
   Davidson(niter=2) 

Densities:
  Coarse grid: 60*60*168 grid
  Fine grid: 120*120*336 grid
  Total Charge: 0.000000 

Density mixing:
  Method: separate
  Backend: pulay
  Linear mixing parameter: 0.05
  old densities: 5
  Damping of long wavelength oscillations: 50 

Hamiltonian:
  XC and Coulomb potentials evaluated on a 120*120*336 grid
  Using the BEEF-vdW Exchange-Correlation functional
  Interpolation: tri-quintic (5. degree polynomial)
  Poisson solver: FastPoissonSolver using
    Stencil: 6*3+1=19 point O(h^6) finite-difference Laplacian
    FFT axes: [0, 1]
    FST axes: [2]

Dipole correction along z-axis 

XC parameters: BEEF-vdW with 2 nearest neighbor stencil

Memory estimate:
  Process memory now: 126.57 MiB
  Calculator: 86.74 MiB
    Density: 22.99 MiB
      Arrays: 7.40 MiB
      Localized functions: 12.78 MiB
      Mixer: 2.82 MiB
    Hamiltonian: 5.85 MiB
      Arrays: 4.84 MiB
      XC: 0.00 MiB
      Poisson: 0.00 MiB
      vbar: 1.01 MiB
    Wavefunctions: 57.90 MiB
      Arrays psit_nG: 27.03 MiB
      Eigensolver: 30.19 MiB
      Projections: 0.01 MiB
      Projectors: 0.66 MiB

Total number of cores used: 128
Parallelization over k-points: 8
Domain decomposition: 2 x 2 x 4

Number of atoms: 48
Number of atomic orbitals: 174
Number of bands in calculation: 48
Number of valence electrons: 72
Bands to converge: occupied

... initialized

Initializing position-dependent things.

Density initialized from atomic densities
Creating initial wave functions:
  48 bands from LCAO basis set

       .-----------------------.  
      /|                       |  
     / |                       |  
    /  |                       |  
   /   |                       |  
  /    |                       |  
 *     |                       |  
 |     |                       |  
 |     |                       |  
 |     |                       |  
 |     |                       |  
 |     |                  H    |  
 |   H |              H O C    |  
 |     |              H        |  
 | H   |              O  C     |  
 |     |              N  H     |  
 |   Li|     Li      Li        |  
 |     |  Li      Li  N   Li   |  
 | Li  |   Li      Li          |  
 |     |Li      Li      Li     |  
 Li    | Li      Li            |  
 |   LLi     LLi     LLi       |  
 |     |  Li      Li      Li   |  
 | Li  |   Li      Li          |  
 |     |Li      Li      Li     |  
 Li    | Li      Li            |  
 |    Li      Li      Li       |  
 |     |                       |  
 |     |                       |  
 |     |                       |  
 |     |                       |  
 |     |                       |  
 |     |                       |  
 |     .-----------------------.  
 |    /                       /   
 |   /                       /    
 |  /                       /     
 | /                       /      
 |/                       /       
 *-----------------------*        

Positions:
   0 Li     1.617037    1.617037   10.000000    ( 0.0000,  0.0000,  0.0000)
   1 Li     4.851111    1.617037   10.000000    ( 0.0000,  0.0000,  0.0000)
   2 Li     8.085185    1.617037   10.000000    ( 0.0000,  0.0000,  0.0000)
   3 Li     1.617037    4.851111   10.000000    ( 0.0000,  0.0000,  0.0000)
   4 Li     4.851111    4.851111   10.000000    ( 0.0000,  0.0000,  0.0000)
   5 Li     8.085185    4.851111   10.000000    ( 0.0000,  0.0000,  0.0000)
   6 Li     1.617037    8.085185   10.000000    ( 0.0000,  0.0000,  0.0000)
   7 Li     4.851111    8.085185   10.000000    ( 0.0000,  0.0000,  0.0000)
   8 Li     8.085185    8.085185   10.000000    ( 0.0000,  0.0000,  0.0000)
   9 Li     0.000000    0.000000   11.617037    ( 0.0000,  0.0000,  0.0000)
  10 Li     3.234074    0.000000   11.617037    ( 0.0000,  0.0000,  0.0000)
  11 Li     6.468148    0.000000   11.617037    ( 0.0000,  0.0000,  0.0000)
  12 Li     0.000000    3.234074   11.617037    ( 0.0000,  0.0000,  0.0000)
  13 Li     3.234074    3.234074   11.617037    ( 0.0000,  0.0000,  0.0000)
  14 Li     6.468148    3.234074   11.617037    ( 0.0000,  0.0000,  0.0000)
  15 Li     0.000000    6.468148   11.617037    ( 0.0000,  0.0000,  0.0000)
  16 Li     3.234074    6.468148   11.617037    ( 0.0000,  0.0000,  0.0000)
  17 Li     6.468148    6.468148   11.617037    ( 0.0000,  0.0000,  0.0000)
  18 Li     1.617038    1.617038   13.469728    ( 0.0000,  0.0000,  0.0000)
  19 Li     4.851111    1.617038   13.469729    ( 0.0000,  0.0000,  0.0000)
  20 Li     8.085184    1.617038   13.469728    ( 0.0000,  0.0000,  0.0000)
  21 Li     1.617038    4.851111   13.469729    ( 0.0000,  0.0000,  0.0000)
  22 Li     4.851111    4.851111   13.469730    ( 0.0000,  0.0000,  0.0000)
  23 Li     8.085184    4.851111   13.469729    ( 0.0000,  0.0000,  0.0000)
  24 Li     1.617038    8.085184   13.469728    ( 0.0000,  0.0000,  0.0000)
  25 Li     4.851111    8.085184   13.469729    ( 0.0000,  0.0000,  0.0000)
  26 Li     8.085184    8.085184   13.469728    ( 0.0000,  0.0000,  0.0000)
  27 Li    -0.000000   -0.000000   15.445939    ( 0.0000,  0.0000,  0.0000)
  28 Li     3.234074    0.000000   15.445939    ( 0.0000,  0.0000,  0.0000)
  29 Li     6.468148    0.000000   15.445939    ( 0.0000,  0.0000,  0.0000)
  30 Li     0.000000    3.234074   15.445939    ( 0.0000,  0.0000,  0.0000)
  31 Li     3.234076    3.234076   15.445938    ( 0.0000,  0.0000,  0.0000)
  32 Li     6.468146    3.234076   15.445938    ( 0.0000,  0.0000,  0.0000)
  33 Li     0.000000    6.468148   15.445939    ( 0.0000,  0.0000,  0.0000)
  34 Li     3.234076    6.468146   15.445938    ( 0.0000,  0.0000,  0.0000)
  35 Li     6.468146    6.468146   15.445938    ( 0.0000,  0.0000,  0.0000)
  36 O      8.085185    1.617037   19.645939    ( 0.0000,  0.0000,  0.0000)
  37 O      8.129179    4.515235   19.413250    ( 0.0000,  0.0000,  0.0000)
  38 C      9.256397    2.345598   19.233562    ( 0.0000,  0.0000,  0.0000)
  39 C      9.270087    3.754783   19.802713    ( 0.0000,  0.0000,  0.0000)
  40 H     10.170788    1.817472   19.526395    ( 0.0000,  0.0000,  0.0000)
  41 H      9.209099    2.378347   18.143996    ( 0.0000,  0.0000,  0.0000)
  42 H     10.144353    4.291502   19.426232    ( 0.0000,  0.0000,  0.0000)
  43 H      9.345589    3.705053   20.901774    ( 0.0000,  0.0000,  0.0000)
  44 H      8.159700    1.447612   20.593261    ( 0.0000,  0.0000,  0.0000)
  45 H      7.362058    3.935769   19.509689    ( 0.0000,  0.0000,  0.0000)
  46 N      8.085000    1.617000   17.195939    ( 0.0000,  0.0000,  0.0000)
  47 N      8.085000    1.617000   18.292561    ( 0.0000,  0.0000,  0.0000)

Unit cell:
           periodic     x           y           z      points  spacing
  1. axis:    yes    9.702222    0.000000    0.000000    60     0.1617
  2. axis:    yes    0.000000    9.702222    0.000000    60     0.1617
  3. axis:    no     0.000000    0.000000   26.601111   168     0.1583

  Lengths:   9.702222   9.702222  26.601111
  Angles:   90.000000  90.000000  90.000000

Effective grid spacing dv^(1/3) = 0.1606

     iter     time        total  log10-change:
                         energy  eigst   dens
iter:   1 12:23:06  -694.089557
iter:   2 12:23:14     4.741339  +2.67  +0.04
iter:   3 12:23:21    19.125423  +3.29  -0.15
iter:   4 12:23:29  -208.428128  +3.25  -0.25
Writing to output.gpw (mode='')

iter:   5 12:23:36  -241.094953  +2.77  -0.24
iter:   6 12:23:44  -306.418309  +2.51  -0.50
iter:   7 12:23:51  -317.554301  +2.20  -0.54
iter:   8 12:23:58  -309.777771  +1.93  -0.59
iter:   9 12:24:06  -339.507685  +1.77  -0.83
Writing to output.gpw (mode='')

iter:  10 12:24:13  -324.343288  +1.37  -0.63
iter:  11 12:24:21  -335.649283  +1.18  -0.73
iter:  12 12:24:28  -328.280610  +0.88  -0.75
iter:  13 12:24:41  -319.755559  +0.73  -0.76
iter:  14 12:24:49  -316.609773  +0.67  -0.79
Writing to output.gpw (mode='')

iter:  15 12:24:56  -315.785594  +0.61  -0.85
iter:  16 12:25:03  -314.997915  -0.03  -0.85
iter:  17 12:25:13  -314.372819  +0.28  -0.92
iter:  18 12:25:20  -314.104022  +0.24  -1.02
iter:  19 12:25:28  -313.968932  -0.10  -1.16
Writing to output.gpw (mode='')

iter:  20 12:25:35  -313.733937  +0.01  -1.21
iter:  21 12:25:43  -313.764214  -0.12  -1.38
iter:  22 12:25:50  -313.682417  -0.27  -1.44
iter:  23 12:25:57  -313.659883  -0.80  -1.53
iter:  24 12:26:05  -313.637590  -0.91  -1.54
Writing to output.gpw (mode='')

iter:  25 12:26:12  -313.664222c -0.93  -1.53
iter:  26 12:26:20  -313.652916c -0.89  -1.54
iter:  27 12:26:27  -313.592129  -0.96  -1.60
iter:  28 12:26:35  -313.588128  -1.10  -1.88
iter:  29 12:26:42  -313.591447c -1.32  -2.03
Writing to output.gpw (mode='')

iter:  30 12:26:50  -313.595229c -1.50  -2.08
iter:  31 12:26:57  -313.595192c -1.86  -2.12
iter:  32 12:27:04  -313.595456c -1.75  -2.24
iter:  33 12:27:12  -313.597289c -1.73  -2.31
iter:  34 12:27:20  -313.596059c -1.98  -2.30
Writing to output.gpw (mode='')

iter:  35 12:27:27  -313.596828c -2.23  -2.59
iter:  36 12:27:34  -313.597604c -2.34  -2.68
iter:  37 12:27:42  -313.598151c -2.35  -2.70
iter:  38 12:27:49  -313.598922c -2.42  -2.88
iter:  39 12:27:57  -313.599438c -2.69  -2.98
Writing to output.gpw (mode='')

iter:  40 12:28:04  -313.599899c -2.66  -3.06
iter:  41 12:28:12  -313.600393c -2.59  -3.09
iter:  42 12:28:19  -313.600794c -2.85  -3.15
iter:  43 12:28:27  -313.601113c -2.94  -3.17
iter:  44 12:28:34  -313.601583c -2.77  -3.16
Writing to output.gpw (mode='')

iter:  45 12:28:42  -313.601830c -3.02  -3.07
iter:  46 12:28:50  -313.602085c -2.92  -3.10
iter:  47 12:28:57  -313.602292c -3.12  -3.18
iter:  48 12:29:04  -313.602474c -3.17  -3.17
iter:  49 12:29:12  -313.602669c -3.21  -3.09
Writing to output.gpw (mode='')

iter:  50 12:29:20  -313.602827c -3.36  -3.09
iter:  51 12:29:27  -313.602977c -3.33  -3.04
iter:  52 12:29:40  -313.603048c -3.12  -3.06
iter:  53 12:29:48  -313.603114c -3.36  -3.09
iter:  54 12:29:56  -313.603203c -3.52  -3.08
Writing to output.gpw (mode='')

iter:  55 12:30:03  -313.603268c -3.34  -3.15
iter:  56 12:30:11  -313.603350c -3.33  -3.18
iter:  57 12:30:18  -313.603415c -3.50  -3.20
iter:  58 12:30:25  -313.603495c -3.49  -3.21
iter:  59 12:30:33  -313.603567c -3.45  -3.24
Writing to output.gpw (mode='')

iter:  60 12:30:40  -313.603579c -3.84  -3.32
iter:  61 12:30:48  -313.603598c -3.93  -3.46
iter:  62 12:30:55  -313.603624c -3.87  -3.59
iter:  63 12:31:02  -313.603645c -3.89  -3.63
iter:  64 12:31:10  -313.603669c -4.07  -3.66
Writing to output.gpw (mode='')

iter:  65 12:31:17  -313.603686c -4.23  -3.82
iter:  66 12:31:25  -313.603700c -4.14  -3.88
iter:  67 12:31:32  -313.603715c -4.03  -4.00
iter:  68 12:31:40  -313.603727c -4.25  -4.03c
iter:  69 12:31:47  -313.603737c -4.45  -4.10c
Writing to output.gpw (mode='')

iter:  70 12:31:54  -313.603744c -4.43  -4.16c
iter:  71 12:32:02  -313.603752c -4.40  -4.27c
iter:  72 12:32:09  -313.603761c -4.36  -4.36c
iter:  73 12:32:17  -313.603766c -4.66  -4.41c
iter:  74 12:32:24  -313.603770c -4.68  -4.49c
Writing to output.gpw (mode='')

iter:  75 12:32:32  -313.603776c -4.58  -4.54c
iter:  76 12:32:39  -313.603780c -4.67  -4.64c
iter:  77 12:32:46  -313.603785c -4.66  -4.70c
iter:  78 12:32:54  -313.603789c -4.72  -4.80c
iter:  79 12:33:01  -313.603792c -4.84  -4.82c
Writing to output.gpw (mode='')

iter:  80 12:33:08  -313.603795c -4.91  -4.79c
iter:  81 12:33:16  -313.603797c -5.04  -4.70c
iter:  82 12:33:23  -313.603799c -5.09  -4.68c
iter:  83 12:33:31  -313.603801c -5.08  -4.68c
iter:  84 12:33:38  -313.603803c -5.13  -4.65c
Writing to output.gpw (mode='')

iter:  85 12:33:45  -313.603805c -5.17  -4.53c
iter:  86 12:33:53  -313.603805c -5.03  -4.54c
iter:  87 12:34:00  -313.603806c -5.20  -4.57c
iter:  88 12:34:08  -313.603807c -5.16  -4.55c
iter:  89 12:34:15  -313.603807c -5.15  -4.56c
Writing to output.gpw (mode='')

iter:  90 12:34:22  -313.603808c -5.33  -4.59c
iter:  91 12:34:30  -313.603809c -5.38  -4.50c
iter:  92 12:34:43  -313.603809c -5.57  -4.63c
iter:  93 12:34:50  -313.603809c -5.54  -4.63c
iter:  94 12:34:58  -313.603809c -5.37  -4.63c
Writing to output.gpw (mode='')

iter:  95 12:35:05  -313.603809c -5.45  -4.72c
iter:  96 12:35:13  -313.603811c -5.61  -4.77c
iter:  97 12:35:20  -313.603811c -5.83  -4.80c
iter:  98 12:35:27  -313.603811c -5.65  -4.82c
iter:  99 12:35:35  -313.603812c -5.72  -4.89c
Writing to output.gpw (mode='')

iter: 100 12:35:42  -313.603812c -5.79  -4.82c
iter: 101 12:35:50  -313.603813c -5.74  -4.89c
iter: 102 12:35:57  -313.603813c -5.78  -4.79c
iter: 103 12:36:04  -313.603813c -5.85  -5.01c
iter: 104 12:36:12  -313.603813c -6.04  -5.07c
Writing to output.gpw (mode='')

iter: 105 12:36:19  -313.603813c -5.97  -5.04c
iter: 106 12:36:27  -313.603813c -6.13  -5.00c
iter: 107 12:36:34  -313.603813c -6.10  -5.16c
iter: 108 12:36:42  -313.603813c -5.92  -5.21c
iter: 109 12:36:49  -313.603813c -6.15  -5.21c
Writing to output.gpw (mode='')

iter: 110 12:36:57  -313.603813c -5.99  -5.24c
iter: 111 12:37:04  -313.603813c -6.40  -5.27c
iter: 112 12:37:12  -313.603813c -6.37  -5.28c
iter: 113 12:37:19  -313.603813c -6.28  -5.29c
iter: 114 12:37:26  -313.603813c -6.49  -5.42c
Writing to output.gpw (mode='')

iter: 115 12:37:34  -313.603813c -6.58  -5.62c
iter: 116 12:37:41  -313.603813c -6.51  -5.72c
iter: 117 12:37:49  -313.603813c -6.51  -5.75c
iter: 118 12:37:56  -313.603813c -6.52  -5.81c
iter: 119 12:38:04  -313.603813c -6.73  -5.92c
Writing to output.gpw (mode='')

iter: 120 12:38:11  -313.603813c -6.80  -6.02c
iter: 121 12:38:18  -313.603813c -6.37  -6.02c
iter: 122 12:38:26  -313.603813c -6.59  -5.93c
iter: 123 12:38:33  -313.603813c -6.60  -6.01c
iter: 124 12:38:41  -313.603813c -6.73  -6.08c
Writing to output.gpw (mode='')

iter: 125 12:38:48  -313.603813c -6.74  -6.14c
iter: 126 12:38:56  -313.603813c -6.88  -6.16c
iter: 127 12:39:03  -313.603813c -7.13  -6.16c
iter: 128 12:39:11  -313.603813c -6.89  -6.22c
iter: 129 12:39:18  -313.603813c -7.14  -6.30c
Writing to output.gpw (mode='')

iter: 130 12:39:25  -313.603813c -7.15  -6.37c
iter: 131 12:39:38  -313.603813c -7.23  -6.51c
iter: 132 12:39:47  -313.603813c -7.14  -6.54c
iter: 133 12:39:54  -313.603813c -7.14  -6.53c
iter: 134 12:40:01  -313.603813c -7.14  -6.46c
Writing to output.gpw (mode='')

iter: 135 12:40:09  -313.603813c -7.42c -6.44c

Converged after 135 iterations.

Dipole moment: (15.076778, -3.553393, 0.007952) |e|*Ang

Energy contributions relative to reference atoms: (reference = -16475.706344)

Kinetic:       +214.113146
Potential:     -189.140019
External:        +0.000000
XC:            -339.540535
Entropy (-ST):   -0.152096
Local:           +1.039643
--------------------------
Free energy:   -313.679861
Extrapolated:  -313.603813

Dipole-layer corrected work functions: 3.382885, 3.367599 eV

Showing only first 2 kpts
 Kpt  Band  Eigenvalues  Occupancy
  0    34     -3.61195    1.98257
  0    35     -3.50215    1.85356
  0    36     -3.23276    0.10940
  0    37     -3.13495    0.01623

  1    34     -3.47169    1.74628
  1    35     -3.36694    0.91712
  1    36     -3.35436    0.79418
  1    37     -3.25592    0.16843


Fermi level: -3.37524

No gap

Forces in eV/Ang:
  0 Li    0.02220   -0.00019   -0.27415
  1 Li   -0.02448   -0.00128   -0.26963
  2 Li    0.00240    0.00096   -0.28040
  3 Li   -0.00258   -0.00414   -0.27822
  4 Li    0.00632    0.00181   -0.27521
  5 Li   -0.00222    0.02483   -0.27452
  6 Li    0.00045    0.00455   -0.27359
  7 Li    0.00519    0.00024   -0.27580
  8 Li   -0.00322   -0.02518   -0.27235
  9 Li   -0.00128    0.00275    0.28998
 10 Li   -0.00276    0.00386    0.25254
 11 Li    0.00431    0.00146    0.28855
 12 Li    0.00358    0.00340    0.28264
 13 Li   -0.00475   -0.00890    0.26003
 14 Li    0.00297   -0.00061    0.28574
 15 Li   -0.00817   -0.00601    0.25737
 16 Li    0.00286    0.00348    0.26658
 17 Li    0.00236   -0.00202    0.24598
 18 Li   -0.00326   -0.00301    0.04774
 19 Li    0.00356   -0.00199    0.03693
 20 Li    0.00030    0.00159   -0.14981
 21 Li   -0.00561   -0.00102    0.03102
 22 Li    0.00640   -0.01527    0.04839
 23 Li   -0.00342   -0.00348    0.03388
 24 Li   -0.01658    0.00359    0.04424
 25 Li    0.01530    0.01637    0.05109
 26 Li   -0.00130   -0.00275    0.03543
 27 Li    0.02557    0.00336    0.00621
 28 Li   -0.01110    0.02696   -0.00949
 29 Li    0.00432    0.00568    0.03936
 30 Li    0.04671    0.02138   -0.04528
 31 Li   -0.02461   -0.02950    0.00708
 32 Li   -0.03950    0.03948   -0.01656
 33 Li   -0.02347   -0.01042    0.00907
 34 Li    0.00579    0.00319   -0.01554
 35 Li    0.01966   -0.00659    0.00052
 36 O    -0.25146   -0.39554   14.72517
 37 O    -0.10479   -0.03165   -0.23317
 38 C     5.56175    3.50461    3.22472
 39 C    -0.06721    0.19724    0.87864
 40 H    -0.21284   -0.31245    0.28588
 41 H     3.68947    2.30730    1.66250
 42 H     0.02301   -0.14444   -0.08389
 43 H    -0.01493    0.16837   -0.22569
 44 H     0.60079   -1.15737    7.09853
 45 H    -0.14962    0.20065    0.11425
 46 N    -2.16922   -3.10113   -9.57255
 47 N    -6.91639   -1.25053  -17.99496

System changes: positions 

Initializing position-dependent things.

Density initialized from wave functions
       .-----------------------.  
      /|                       |  
     / |                       |  
    /  |                       |  
   /   |                       |  
  /    |                       |  
 *     |                       |  
 |     |                       |  
 |     |                       |  
 |     |                       |  
 |     |                       |  
 |     |                  H    |  
 |   H |              H O C    |  
 |     |              H        |  
 | H   |              O  C     |  
 |     |              N  H     |  
 |     |     Li      Li      Li|  
 |     |  Li      Li  N   Li   |  
 | Li  |   Li      Li          |  
 |     |Li      Li      Li     |  
 Li    | Li      Li            |  
 |   LLi     LLi     LLi       |  
 |     |  Li      Li      Li   |  
 | Li  |   Li      Li          |  
 |     |Li      Li      Li     |  
 Li    | Li      Li            |  
 |    Li      Li      Li       |  
 |     |                       |  
 |     |                       |  
 |     |                       |  
 |     |                       |  
 |     |                       |  
 |     |                       |  
 |     .-----------------------.  
 |    /                       /   
 |   /                       /    
 |  /                       /     
 | /                       /      
 |/                       /       
 *-----------------------*        

Positions:
   0 Li     1.617037    1.617037   10.000000    ( 0.0000,  0.0000,  0.0000)
   1 Li     4.851111    1.617037   10.000000    ( 0.0000,  0.0000,  0.0000)
   2 Li     8.085185    1.617037   10.000000    ( 0.0000,  0.0000,  0.0000)
   3 Li     1.617037    4.851111   10.000000    ( 0.0000,  0.0000,  0.0000)
   4 Li     4.851111    4.851111   10.000000    ( 0.0000,  0.0000,  0.0000)
   5 Li     8.085185    4.851111   10.000000    ( 0.0000,  0.0000,  0.0000)
   6 Li     1.617037    8.085185   10.000000    ( 0.0000,  0.0000,  0.0000)
   7 Li     4.851111    8.085185   10.000000    ( 0.0000,  0.0000,  0.0000)
   8 Li     8.085185    8.085185   10.000000    ( 0.0000,  0.0000,  0.0000)
   9 Li     0.000000    0.000000   11.617037    ( 0.0000,  0.0000,  0.0000)
  10 Li     3.234074    0.000000   11.617037    ( 0.0000,  0.0000,  0.0000)
  11 Li     6.468148    0.000000   11.617037    ( 0.0000,  0.0000,  0.0000)
  12 Li     0.000000    3.234074   11.617037    ( 0.0000,  0.0000,  0.0000)
  13 Li     3.234074    3.234074   11.617037    ( 0.0000,  0.0000,  0.0000)
  14 Li     6.468148    3.234074   11.617037    ( 0.0000,  0.0000,  0.0000)
  15 Li     0.000000    6.468148   11.617037    ( 0.0000,  0.0000,  0.0000)
  16 Li     3.234074    6.468148   11.617037    ( 0.0000,  0.0000,  0.0000)
  17 Li     6.468148    6.468148   11.617037    ( 0.0000,  0.0000,  0.0000)
  18 Li     1.617031    1.617032   13.469827    ( 0.0000,  0.0000,  0.0000)
  19 Li     4.851118    1.617034   13.469806    ( 0.0000,  0.0000,  0.0000)
  20 Li     8.085185    1.617041   13.469418    ( 0.0000,  0.0000,  0.0000)
  21 Li     1.617027    4.851109   13.469794    ( 0.0000,  0.0000,  0.0000)
  22 Li     4.851124    4.851079   13.469830    ( 0.0000,  0.0000,  0.0000)
  23 Li     8.085176    4.851104   13.469800    ( 0.0000,  0.0000,  0.0000)
  24 Li     1.617004    8.085191   13.469819    ( 0.0000,  0.0000,  0.0000)
  25 Li     4.851143    8.085217   13.469835    ( 0.0000,  0.0000,  0.0000)
  26 Li     8.085181    8.085178   13.469801    ( 0.0000,  0.0000,  0.0000)
  27 Li     0.000053    0.000007   15.445952    ( 0.0000,  0.0000,  0.0000)
  28 Li     3.234051    0.000056   15.445919    ( 0.0000,  0.0000,  0.0000)
  29 Li     6.468157    0.000012   15.446020    ( 0.0000,  0.0000,  0.0000)
  30 Li     0.000097    3.234118   15.445845    ( 0.0000,  0.0000,  0.0000)
  31 Li     3.234025    3.234015   15.445953    ( 0.0000,  0.0000,  0.0000)
  32 Li     6.468064    3.234158   15.445904    ( 0.0000,  0.0000,  0.0000)
  33 Li    -0.000049    6.468127   15.445958    ( 0.0000,  0.0000,  0.0000)
  34 Li     3.234088    6.468152   15.445906    ( 0.0000,  0.0000,  0.0000)
  35 Li     6.468186    6.468132   15.445939    ( 0.0000,  0.0000,  0.0000)
  36 O      8.084664    1.616218   19.676428    ( 0.0000,  0.0000,  0.0000)
  37 O      8.128962    4.515169   19.412767    ( 0.0000,  0.0000,  0.0000)
  38 C      9.267913    2.352854   19.240239    ( 0.0000,  0.0000,  0.0000)
  39 C      9.269948    3.755192   19.804533    ( 0.0000,  0.0000,  0.0000)
  40 H     10.170347    1.816825   19.526987    ( 0.0000,  0.0000,  0.0000)
  41 H      9.216738    2.383124   18.147438    ( 0.0000,  0.0000,  0.0000)
  42 H     10.144400    4.291203   19.426059    ( 0.0000,  0.0000,  0.0000)
  43 H      9.345558    3.705402   20.901307    ( 0.0000,  0.0000,  0.0000)
  44 H      8.160944    1.445216   20.607958    ( 0.0000,  0.0000,  0.0000)
  45 H      7.361749    3.936185   19.509926    ( 0.0000,  0.0000,  0.0000)
  46 N      8.080509    1.610579   17.176119    ( 0.0000,  0.0000,  0.0000)
  47 N      8.070680    1.614411   18.255302    ( 0.0000,  0.0000,  0.0000)

Unit cell:
           periodic     x           y           z      points  spacing
  1. axis:    yes    9.702222    0.000000    0.000000    60     0.1617
  2. axis:    yes    0.000000    9.702222    0.000000    60     0.1617
  3. axis:    no     0.000000    0.000000   26.601111   168     0.1583

  Lengths:   9.702222   9.702222  26.601111
  Angles:   90.000000  90.000000  90.000000

Effective grid spacing dv^(1/3) = 0.1606

     iter     time        total  log10-change:
                         energy  eigst   dens
iter:   1 12:40:18  -315.474302  -0.55
iter:   2 12:40:26  -315.366280  -0.72  -1.49
iter:   3 12:40:33  -315.322419  -1.26  -1.63
iter:   4 12:40:41  -315.293016  -1.13  -1.92
Writing to output.gpw (mode='')

iter:   5 12:40:48  -315.278009  -1.45  -2.09
iter:   6 12:40:55  -315.272178c -1.84  -2.22
iter:   7 12:41:03  -315.266347c -1.77  -2.26
iter:   8 12:41:13  -315.267477c -1.97  -2.53
iter:   9 12:41:21  -315.267410c -2.46  -2.58
Writing to output.gpw (mode='')

iter:  10 12:41:28  -315.267008c -2.61  -2.61
iter:  11 12:41:36  -315.266551c -2.95  -2.69
iter:  12 12:41:43  -315.266524c -3.08  -2.95
iter:  13 12:41:51  -315.266369c -3.31  -3.02
iter:  14 12:41:58  -315.266406c -3.79  -3.17
Writing to output.gpw (mode='')

iter:  15 12:42:06  -315.266444c -3.71  -3.23
iter:  16 12:42:13  -315.266433c -4.06  -3.25
iter:  17 12:42:21  -315.266431c -4.07  -3.41
iter:  18 12:42:28  -315.266442c -4.53  -3.52
iter:  19 12:42:36  -315.266455c -4.19  -3.57
Writing to output.gpw (mode='')

iter:  20 12:42:43  -315.266449c -4.59  -3.64
iter:  21 12:42:51  -315.266449c -4.94  -3.75
iter:  22 12:42:58  -315.266452c -5.00  -3.90
iter:  23 12:43:05  -315.266452c -5.21  -4.13c
iter:  24 12:43:13  -315.266453c -5.32  -4.15c
Writing to output.gpw (mode='')

iter:  25 12:43:20  -315.266453c -5.47  -4.25c
iter:  26 12:43:28  -315.266453c -5.67  -4.29c
iter:  27 12:43:35  -315.266452c -5.79  -4.32c
iter:  28 12:43:43  -315.266453c -6.04  -4.60c
iter:  29 12:43:50  -315.266453c -6.12  -4.67c
Writing to output.gpw (mode='')

iter:  30 12:43:58  -315.266453c -6.15  -4.68c
iter:  31 12:44:05  -315.266453c -6.05  -4.68c
iter:  32 12:44:13  -315.266454c -5.76  -4.70c
iter:  33 12:44:20  -315.266454c -6.40  -4.62c
iter:  34 12:44:28  -315.266454c -6.41  -4.61c
Writing to output.gpw (mode='')

iter:  35 12:44:43  -315.266454c -6.66  -4.61c
iter:  36 12:44:50  -315.266454c -6.64  -4.61c
iter:  37 12:44:58  -315.266454c -6.67  -4.75c
iter:  38 12:45:05  -315.266455c -6.68  -4.79c
iter:  39 12:45:12  -315.266455c -7.15  -4.99c
Writing to output.gpw (mode='')

iter:  40 12:45:20  -315.266455c -6.94  -4.98c
iter:  41 12:45:28  -315.266455c -7.08  -5.07c
iter:  42 12:45:35  -315.266456c -7.14  -5.13c
iter:  43 12:45:42  -315.266455c -7.27  -5.24c
iter:  44 12:45:50  -315.266455c -7.14  -5.27c
Writing to output.gpw (mode='')

iter:  45 12:45:57  -315.266455c -7.30  -5.31c
iter:  46 12:46:05  -315.266455c -7.55c -5.36c

Converged after 46 iterations.

Dipole moment: (15.356187, -3.579526, 0.121991) |e|*Ang

Energy contributions relative to reference atoms: (reference = -16475.706344)

Kinetic:       +215.099713
Potential:     -191.212571
External:        +0.000000
XC:            -340.121250
Entropy (-ST):   -0.147903
Local:           +1.041603
--------------------------
Free energy:   -315.340407
Extrapolated:  -315.266455

Dipole-layer corrected work functions: 3.383220, 3.148711 eV

Showing only first 2 kpts
 Kpt  Band  Eigenvalues  Occupancy
  0    34     -3.51215    1.98556
  0    35     -3.40265    1.87798
  0    36     -3.11462    0.09245
  0    37     -3.02145    0.01493

  1    34     -3.35106    1.69158
  1    35     -3.25971    0.93757
  1    36     -3.24595    0.80247
  1    37     -3.15226    0.18658


Fermi level: -3.26597

No gap
Writing to output.gpw (mode='')


Forces in eV/Ang:
  0 Li    0.02368    0.00042   -0.27357
  1 Li   -0.02609   -0.00097   -0.26955
  2 Li    0.00230    0.00052   -0.27957
  3 Li   -0.00305   -0.00488   -0.27756
  4 Li    0.00641    0.00064   -0.27476
  5 Li   -0.00166    0.02660   -0.27452
  6 Li   -0.00111    0.00477   -0.27308
  7 Li    0.00625    0.00071   -0.27561
  8 Li   -0.00291   -0.02687   -0.27178
  9 Li   -0.00098    0.00265    0.29041
 10 Li   -0.00136    0.00505    0.25178
 11 Li    0.00317    0.00010    0.28774
 12 Li    0.00278    0.00192    0.28339
 13 Li   -0.00379   -0.00849    0.25624
 14 Li    0.00270   -0.00050    0.28707
 15 Li   -0.00800   -0.00471    0.25356
 16 Li    0.00121    0.00237    0.27088
 17 Li    0.00387   -0.00019    0.24467
 18 Li   -0.00424   -0.00241    0.05190
 19 Li    0.00593   -0.00083    0.04011
 20 Li   -0.00067    0.00181   -0.16695
 21 Li   -0.00793   -0.00322    0.03504
 22 Li    0.00854   -0.01529    0.04958
 23 Li   -0.00316   -0.00401    0.03556
 24 Li   -0.01712    0.00561    0.04582
 25 Li    0.01477    0.01561    0.04992
 26 Li   -0.00048   -0.00004    0.04113
 27 Li    0.04359   -0.01540   -0.01787
 28 Li   -0.01231    0.03022   -0.00972
 29 Li   -0.02056   -0.01650    0.01541
 30 Li    0.06394    0.04378   -0.08730
 31 Li   -0.02331   -0.03080    0.00385
 32 Li   -0.05386    0.05310   -0.03472
 33 Li   -0.02546   -0.00806    0.00664
 34 Li    0.00448    0.00107   -0.01505
 35 Li    0.02296   -0.00498   -0.00053
 36 O     0.44456   -0.13744   14.16522
 37 O    -0.08808   -0.04628   -0.21113
 38 C     4.20303    2.72423    3.18392
 39 C     0.10419    0.29208    0.75592
 40 H     0.05734   -0.29278    0.30661
 41 H     3.31904    2.06198    1.95591
 42 H     0.01457   -0.07794   -0.03790
 43 H    -0.00841    0.19574   -0.12459
 44 H     0.76563   -0.67880    6.32713
 45 H    -0.13285    0.15216    0.09809
 46 N    -1.73255   -2.56914  -10.79159
 47 N    -6.99966   -1.65580  -15.60268

System changes: positions 

Initializing position-dependent things.

Density initialized from wave functions
       .-----------------------.  
      /|                       |  
     / |                       |  
    /  |                       |  
   /   |                       |  
  /    |                       |  
 *     |                       |  
 |     |                       |  
 |     |                       |  
 |     |                       |  
 |     |                       |  
 |     |                  H    |  
 |   H |              H O C    |  
 |     |              H        |  
 | H   Li             OLiC     |  
 |     |              N  H     |  
 |     |     Li      Li      Li|  
 |     |  Li      Li  N   Li   |  
 | Li  |   Li      Li          |  
 |     |Li      Li      Li     |  
 |     | Li                    |  
 |   LLi     LLi     LLi       |  
 |     |  Li      Li      Li   |  
 | Li  |   Li      Li          |  
 |     |Li      Li      Li     |  
 Li    | Li      Li            |  
 |    Li      Li      Li       |  
 |     |                       |  
 |     |                       |  
 |     |                       |  
 |     |                       |  
 |     |                       |  
 |     |                       |  
 |     .-----------------------.  
 |    /                       /   
 |   /                       /    
 |  /                       /     
 | /                       /      
 |/                       /       
 *-----------------------*        

Positions:
   0 Li     1.617037    1.617037   10.000000    ( 0.0000,  0.0000,  0.0000)
   1 Li     4.851111    1.617037   10.000000    ( 0.0000,  0.0000,  0.0000)
   2 Li     8.085185    1.617037   10.000000    ( 0.0000,  0.0000,  0.0000)
   3 Li     1.617037    4.851111   10.000000    ( 0.0000,  0.0000,  0.0000)
   4 Li     4.851111    4.851111   10.000000    ( 0.0000,  0.0000,  0.0000)
   5 Li     8.085185    4.851111   10.000000    ( 0.0000,  0.0000,  0.0000)
   6 Li     1.617037    8.085185   10.000000    ( 0.0000,  0.0000,  0.0000)
   7 Li     4.851111    8.085185   10.000000    ( 0.0000,  0.0000,  0.0000)
   8 Li     8.085185    8.085185   10.000000    ( 0.0000,  0.0000,  0.0000)
   9 Li     0.000000    0.000000   11.617037    ( 0.0000,  0.0000,  0.0000)
  10 Li     3.234074    0.000000   11.617037    ( 0.0000,  0.0000,  0.0000)
  11 Li     6.468148    0.000000   11.617037    ( 0.0000,  0.0000,  0.0000)
  12 Li     0.000000    3.234074   11.617037    ( 0.0000,  0.0000,  0.0000)
  13 Li     3.234074    3.234074   11.617037    ( 0.0000,  0.0000,  0.0000)
  14 Li     6.468148    3.234074   11.617037    ( 0.0000,  0.0000,  0.0000)
  15 Li     0.000000    6.468148   11.617037    ( 0.0000,  0.0000,  0.0000)
  16 Li     3.234074    6.468148   11.617037    ( 0.0000,  0.0000,  0.0000)
  17 Li     6.468148    6.468148   11.617037    ( 0.0000,  0.0000,  0.0000)
  18 Li     1.617013    1.617028   13.470006    ( 0.0000,  0.0000,  0.0000)
  19 Li     4.851150    1.617038   13.469944    ( 0.0000,  0.0000,  0.0000)
  20 Li     8.085177    1.617048   13.468821    ( 0.0000,  0.0000,  0.0000)
  21 Li     1.616990    4.851087   13.469921    ( 0.0000,  0.0000,  0.0000)
  22 Li     4.851162    4.851034   13.469985    ( 0.0000,  0.0000,  0.0000)
  23 Li     8.085169    4.851089   13.469915    ( 0.0000,  0.0000,  0.0000)
  24 Li     1.616950    8.085220   13.469965    ( 0.0000,  0.0000,  0.0000)
  25 Li     4.851184    8.085260   13.469978    ( 0.0000,  0.0000,  0.0000)
  26 Li     8.085184    8.085193   13.469957    ( 0.0000,  0.0000,  0.0000)
  27 Li     0.000286   -0.000146   15.445762    ( 0.0000,  0.0000,  0.0000)
  28 Li     3.234007    0.000165   15.445889    ( 0.0000,  0.0000,  0.0000)
  29 Li     6.467954   -0.000164   15.445930    ( 0.0000,  0.0000,  0.0000)
  30 Li     0.000386    3.234376   15.445345    ( 0.0000,  0.0000,  0.0000)
  31 Li     3.233963    3.233916   15.445946    ( 0.0000,  0.0000,  0.0000)
  32 Li     6.467821    3.234394   15.445697    ( 0.0000,  0.0000,  0.0000)
  33 Li    -0.000136    6.468116   15.445964    ( 0.0000,  0.0000,  0.0000)
  34 Li     3.234094    6.468143   15.445864    ( 0.0000,  0.0000,  0.0000)
  35 Li     6.468274    6.468126   15.445932    ( 0.0000,  0.0000,  0.0000)
  36 O      8.089954    1.617276   19.715573    ( 0.0000,  0.0000,  0.0000)
  37 O      8.128794    4.514948   19.412262    ( 0.0000,  0.0000,  0.0000)
  38 C      9.272740    2.356554   19.249521    ( 0.0000,  0.0000,  0.0000)
  39 C      9.271235    3.756604   19.806093    ( 0.0000,  0.0000,  0.0000)
  40 H     10.172056    1.816062   19.528022    ( 0.0000,  0.0000,  0.0000)
  41 H      9.224548    2.387890   18.154953    ( 0.0000,  0.0000,  0.0000)
  42 H     10.144396    4.291348   19.426207    ( 0.0000,  0.0000,  0.0000)
  43 H      9.345570    3.706143   20.901510    ( 0.0000,  0.0000,  0.0000)
  44 H      8.164170    1.445911   20.622476    ( 0.0000,  0.0000,  0.0000)
  45 H      7.361447    3.936363   19.510127    ( 0.0000,  0.0000,  0.0000)
  46 N      8.077816    1.605929   17.136931    ( 0.0000,  0.0000,  0.0000)
  47 N      8.049288    1.607156   18.222291    ( 0.0000,  0.0000,  0.0000)

Unit cell:
           periodic     x           y           z      points  spacing
  1. axis:    yes    9.702222    0.000000    0.000000    60     0.1617
  2. axis:    yes    0.000000    9.702222    0.000000    60     0.1617
  3. axis:    no     0.000000    0.000000   26.601111   168     0.1583

  Lengths:   9.702222   9.702222  26.601111
  Angles:   90.000000  90.000000  90.000000

Effective grid spacing dv^(1/3) = 0.1606

     iter     time        total  log10-change:
                         energy  eigst   dens
iter:   1 12:46:14  -317.142929  -0.51
iter:   2 12:46:22  -317.099418  -0.87  -1.63
iter:   3 12:46:29  -317.079674  -1.44  -1.78
iter:   4 12:46:36  -317.080289c -1.67  -2.06
Writing to output.gpw (mode='')

iter:   5 12:46:44  -317.085582c -1.73  -2.08
iter:   6 12:46:52  -317.093380c -1.86  -1.97
iter:   7 12:46:59  -317.052467  -1.00  -2.01
iter:   8 12:47:06  -317.048583  -1.88  -2.32
iter:   9 12:47:14  -317.052536c -1.96  -2.31
Writing to output.gpw (mode='')

iter:  10 12:47:22  -317.043372c -2.04  -2.18
iter:  11 12:47:29  -317.045403c -2.10  -2.43
iter:  12 12:47:36  -317.045400c -2.62  -2.58
iter:  13 12:47:44  -317.043568c -2.32  -2.55
iter:  14 12:47:51  -317.043171c -2.68  -2.54
Writing to output.gpw (mode='')

iter:  15 12:47:59  -317.042842c -2.92  -2.61
iter:  16 12:48:06  -317.042717c -2.92  -2.85
iter:  17 12:48:14  -317.042777c -3.17  -2.98
iter:  18 12:48:21  -317.042770c -3.75  -3.14
iter:  19 12:48:28  -317.042731c -3.96  -3.20
Writing to output.gpw (mode='')

iter:  20 12:48:36  -317.042729c -4.57  -3.31
iter:  21 12:48:43  -317.042733c -4.31  -3.34
iter:  22 12:48:51  -317.042717c -4.24  -3.65
iter:  23 12:48:58  -317.042714c -4.65  -3.74
iter:  24 12:49:06  -317.042707c -5.10  -3.79
Writing to output.gpw (mode='')

iter:  25 12:49:13  -317.042708c -5.11  -3.90
iter:  26 12:49:20  -317.042707c -5.67  -4.00c
iter:  27 12:49:28  -317.042707c -5.35  -4.07c
iter:  28 12:49:41  -317.042709c -5.45  -4.17c
iter:  29 12:49:49  -317.042709c -6.07  -4.19c
Writing to output.gpw (mode='')

iter:  30 12:49:56  -317.042708c -5.76  -4.37c
iter:  31 12:50:04  -317.042708c -6.27  -4.56c
iter:  32 12:50:11  -317.042708c -6.15  -4.65c
iter:  33 12:50:18  -317.042708c -6.19  -4.79c
iter:  34 12:50:26  -317.042708c -6.68  -4.70c
Writing to output.gpw (mode='')

iter:  35 12:50:33  -317.042708c -6.72  -4.81c
iter:  36 12:50:41  -317.042708c -6.78  -4.91c
iter:  37 12:50:50  -317.042708c -7.09  -4.98c
iter:  38 12:51:04  -317.042708c -7.21  -5.10c
iter:  39 12:51:13  -317.042708c -7.31  -5.26c
Writing to output.gpw (mode='')

iter:  40 12:51:21  -317.042709c -7.37  -5.34c
iter:  41 12:51:28  -317.042709c -7.30  -5.45c
iter:  42 12:51:35  -317.042709c -7.68c -5.59c

Converged after 42 iterations.

Dipole moment: (15.527063, -3.590614, 0.231640) |e|*Ang

Energy contributions relative to reference atoms: (reference = -16475.706344)

Kinetic:       +210.531942
Potential:     -188.685040
External:        +0.000000
XC:            -339.867438
Entropy (-ST):   -0.147430
Local:           +1.051542
--------------------------
Free energy:   -317.116424
Extrapolated:  -317.042709

Dipole-layer corrected work functions: 3.382526, 2.937234 eV

Showing only first 2 kpts
 Kpt  Band  Eigenvalues  Occupancy
  0    34     -3.40696    1.98582
  0    35     -3.29660    1.87806
  0    36     -3.00592    0.08794
  0    37     -2.91614    0.01516

  1    34     -3.24201    1.67578
  1    35     -3.15510    0.95227
  1    36     -3.14063    0.80981
  1    37     -3.04574    0.18511


Fermi level: -3.15988

No gap
Writing to output.gpw (mode='')


Forces in eV/Ang:
  0 Li    0.02444    0.00047   -0.27367
  1 Li   -0.02681   -0.00084   -0.26953
  2 Li    0.00209    0.00018   -0.27961
  3 Li   -0.00273   -0.00492   -0.27733
  4 Li    0.00631    0.00054   -0.27485
  5 Li   -0.00169    0.02734   -0.27450
  6 Li   -0.00118    0.00478   -0.27302
  7 Li    0.00649    0.00070   -0.27598
  8 Li   -0.00282   -0.02740   -0.27154
  9 Li   -0.00111    0.00308    0.29201
 10 Li   -0.00057    0.00549    0.25139
 11 Li    0.00277   -0.00040    0.28795
 12 Li    0.00217    0.00085    0.28580
 13 Li   -0.00300   -0.00822    0.25468
 14 Li    0.00283   -0.00062    0.28857
 15 Li   -0.00801   -0.00398    0.25220
 16 Li   -0.00002    0.00169    0.27176
 17 Li    0.00477    0.00057    0.24436
 18 Li   -0.00318   -0.00211    0.05113
 19 Li    0.00656   -0.00042    0.03998
 20 Li   -0.00220    0.00136   -0.17447
 21 Li   -0.00935   -0.00433    0.03681
 22 Li    0.00941   -0.01562    0.05010
 23 Li   -0.00286   -0.00365    0.03471
 24 Li   -0.01772    0.00652    0.04650
 25 Li    0.01450    0.01551    0.04958
 26 Li   -0.00004    0.00102    0.04245
 27 Li    0.04585   -0.01690   -0.01875
 28 Li   -0.01310    0.03068   -0.01082
 29 Li   -0.02572   -0.02073    0.01311
 30 Li    0.06234    0.04446   -0.09192
 31 Li   -0.02318   -0.03056    0.00178
 32 Li   -0.05522    0.05484   -0.03446
 33 Li   -0.02560   -0.00710    0.00513
 34 Li    0.00418    0.00036   -0.01526
 35 Li    0.02359   -0.00440   -0.00161
 36 O     0.83076    0.32002   11.56185
 37 O    -0.05536   -0.04581   -0.17862
 38 C     3.33723    2.11268    3.04964
 39 C     0.13595    0.31496    0.65332
 40 H     0.18798   -0.23255    0.29710
 41 H     2.84424    1.75766    2.00388
 42 H     0.03993   -0.01399   -0.02160
 43 H     0.00242    0.21881   -0.03511
 44 H     0.95872   -0.53052    6.16002
 45 H    -0.11440    0.10967    0.08219
 46 N    -1.19125   -1.95636   -8.99467
 47 N    -6.93299   -2.01437  -14.55175

System changes: positions 

Initializing position-dependent things.

Density initialized from wave functions
       .-----------------------.  
      /|                       |  
     / |                       |  
    /  |                       |  
   /   |                       |  
  /    |                       |  
 *     |                       |  
 |     |                       |  
 |     |                       |  
 |     |                       |  
 |     |                       |  
 |     |                  H    |  
 |   H |              H O C    |  
 |     |              H        |  
 | H   Li             OLiC     |  
 |     |              N  H     |  
 |     |     Li      Li      Li|  
 |     |  Li      Li  N   Li   |  
 | Li  |   Li      Li          |  
 |     |Li      Li      Li     |  
 |     | Li                    |  
 |   LLi     LLi     LLi       |  
 |     |  Li      Li      Li   |  
 | Li  |   Li      Li          |  
 |     |Li      Li      Li     |  
 Li    | Li      Li            |  
 |    Li      Li      Li       |  
 |     |                       |  
 |     |                       |  
 |     |                       |  
 |     |                       |  
 |     |                       |  
 |     |                       |  
 |     .-----------------------.  
 |    /                       /   
 |   /                       /    
 |  /                       /     
 | /                       /      
 |/                       /       
 *-----------------------*        

Positions:
   0 Li     1.617037    1.617037   10.000000    ( 0.0000,  0.0000,  0.0000)
   1 Li     4.851111    1.617037   10.000000    ( 0.0000,  0.0000,  0.0000)
   2 Li     8.085185    1.617037   10.000000    ( 0.0000,  0.0000,  0.0000)
   3 Li     1.617037    4.851111   10.000000    ( 0.0000,  0.0000,  0.0000)
   4 Li     4.851111    4.851111   10.000000    ( 0.0000,  0.0000,  0.0000)
   5 Li     8.085185    4.851111   10.000000    ( 0.0000,  0.0000,  0.0000)
   6 Li     1.617037    8.085185   10.000000    ( 0.0000,  0.0000,  0.0000)
   7 Li     4.851111    8.085185   10.000000    ( 0.0000,  0.0000,  0.0000)
   8 Li     8.085185    8.085185   10.000000    ( 0.0000,  0.0000,  0.0000)
   9 Li     0.000000    0.000000   11.617037    ( 0.0000,  0.0000,  0.0000)
  10 Li     3.234074    0.000000   11.617037    ( 0.0000,  0.0000,  0.0000)
  11 Li     6.468148    0.000000   11.617037    ( 0.0000,  0.0000,  0.0000)
  12 Li     0.000000    3.234074   11.617037    ( 0.0000,  0.0000,  0.0000)
  13 Li     3.234074    3.234074   11.617037    ( 0.0000,  0.0000,  0.0000)
  14 Li     6.468148    3.234074   11.617037    ( 0.0000,  0.0000,  0.0000)
  15 Li     0.000000    6.468148   11.617037    ( 0.0000,  0.0000,  0.0000)
  16 Li     3.234074    6.468148   11.617037    ( 0.0000,  0.0000,  0.0000)
  17 Li     6.468148    6.468148   11.617037    ( 0.0000,  0.0000,  0.0000)
  18 Li     1.617005    1.617026   13.470187    ( 0.0000,  0.0000,  0.0000)
  19 Li     4.851185    1.617045   13.470089    ( 0.0000,  0.0000,  0.0000)
  20 Li     8.085156    1.617051   13.468128    ( 0.0000,  0.0000,  0.0000)
  21 Li     1.616941    4.851056   13.470071    ( 0.0000,  0.0000,  0.0000)
  22 Li     4.851207    4.850980   13.470158    ( 0.0000,  0.0000,  0.0000)
  23 Li     8.085162    4.851077   13.470032    ( 0.0000,  0.0000,  0.0000)
  24 Li     1.616885    8.085255   13.470129    ( 0.0000,  0.0000,  0.0000)
  25 Li     4.851228    8.085307   13.470134    ( 0.0000,  0.0000,  0.0000)
  26 Li     8.085190    8.085215   13.470129    ( 0.0000,  0.0000,  0.0000)
  27 Li     0.000529   -0.000293   15.445589    ( 0.0000,  0.0000,  0.0000)
  28 Li     3.233954    0.000283   15.445846    ( 0.0000,  0.0000,  0.0000)
  29 Li     6.467730   -0.000354   15.445854    ( 0.0000,  0.0000,  0.0000)
  30 Li     0.000657    3.234625   15.444831    ( 0.0000,  0.0000,  0.0000)
  31 Li     3.233893    3.233811   15.445925    ( 0.0000,  0.0000,  0.0000)
  32 Li     6.467568    3.234645   15.445505    ( 0.0000,  0.0000,  0.0000)
  33 Li    -0.000230    6.468109   15.445961    ( 0.0000,  0.0000,  0.0000)
  34 Li     3.234101    6.468131   15.445814    ( 0.0000,  0.0000,  0.0000)
  35 Li     6.468369    6.468122   15.445915    ( 0.0000,  0.0000,  0.0000)
  36 O      8.098024    1.622166   19.735753    ( 0.0000,  0.0000,  0.0000)
  37 O      8.128878    4.514736   19.411963    ( 0.0000,  0.0000,  0.0000)
  38 C      9.272636    2.356463   19.258579    ( 0.0000,  0.0000,  0.0000)
  39 C      9.272622    3.758192   19.807097    ( 0.0000,  0.0000,  0.0000)
  40 H     10.174632    1.815740   19.529034    ( 0.0000,  0.0000,  0.0000)
  41 H      9.229471    2.390796   18.163115    ( 0.0000,  0.0000,  0.0000)
  42 H     10.144640    4.291972   19.426434    ( 0.0000,  0.0000,  0.0000)
  43 H      9.345670    3.707119   20.902367    ( 0.0000,  0.0000,  0.0000)
  44 H      8.169189    1.447143   20.638365    ( 0.0000,  0.0000,  0.0000)
  45 H      7.361253    3.936260   19.510232    ( 0.0000,  0.0000,  0.0000)
  46 N      8.079014    1.605452   17.112621    ( 0.0000,  0.0000,  0.0000)
  47 N      8.026512    1.596632   18.191137    ( 0.0000,  0.0000,  0.0000)

Unit cell:
           periodic     x           y           z      points  spacing
  1. axis:    yes    9.702222    0.000000    0.000000    60     0.1617
  2. axis:    yes    0.000000    9.702222    0.000000    60     0.1617
  3. axis:    no     0.000000    0.000000   26.601111   168     0.1583

  Lengths:   9.702222   9.702222  26.601111
  Angles:   90.000000  90.000000  90.000000

Effective grid spacing dv^(1/3) = 0.1606

     iter     time        total  log10-change:
                         energy  eigst   dens
iter:   1 12:51:45  -318.388333  -0.86
iter:   2 12:51:52  -318.290295  -0.95  -1.58
iter:   3 12:52:00  -318.257198  -1.67  -1.74
iter:   4 12:52:07  -318.246710  -1.05  -2.16
Writing to output.gpw (mode='')

iter:   5 12:52:15  -318.244003c -1.94  -2.16
iter:   6 12:52:22  -318.245685c -1.87  -2.35
iter:   7 12:52:30  -318.242863c -1.89  -2.32
iter:   8 12:52:37  -318.241373c -2.52  -2.58
iter:   9 12:52:45  -318.241552c -2.53  -2.75
Writing to output.gpw (mode='')

iter:  10 12:52:52  -318.241491c -3.15  -2.82
iter:  11 12:53:00  -318.241557c -3.20  -2.96
iter:  12 12:53:07  -318.241505c -3.56  -3.00
iter:  13 12:53:15  -318.241473c -3.65  -3.07
iter:  14 12:53:22  -318.241514c -3.64  -3.25
Writing to output.gpw (mode='')

iter:  15 12:53:30  -318.241500c -4.37  -3.40
iter:  16 12:53:37  -318.241501c -4.31  -3.46
iter:  17 12:53:45  -318.241505c -4.53  -3.59
iter:  18 12:53:52  -318.241526c -4.30  -3.80
iter:  19 12:54:00  -318.241522c -4.95  -3.81
Writing to output.gpw (mode='')

iter:  20 12:54:07  -318.241531c -4.54  -3.84
iter:  21 12:54:15  -318.241522c -5.04  -3.77
iter:  22 12:54:22  -318.241523c -5.33  -3.87
iter:  23 12:54:30  -318.241528c -5.10  -3.88
iter:  24 12:54:43  -318.241528c -5.49  -3.93
Writing to output.gpw (mode='')

iter:  25 12:54:51  -318.241526c -5.50  -4.08c
iter:  26 12:54:58  -318.241523c -5.39  -4.17c
iter:  27 12:55:05  -318.241525c -5.76  -4.22c
iter:  28 12:55:13  -318.241525c -5.97  -4.50c
iter:  29 12:55:21  -318.241527c -6.01  -4.55c
Writing to output.gpw (mode='')

iter:  30 12:55:28  -318.241527c -6.21  -4.71c
iter:  31 12:55:36  -318.241527c -5.93  -4.74c
iter:  32 12:55:43  -318.241528c -6.31  -4.79c
iter:  33 12:55:51  -318.241528c -6.17  -4.90c
iter:  34 12:55:58  -318.241528c -6.53  -4.95c
Writing to output.gpw (mode='')

iter:  35 12:56:06  -318.241528c -6.61  -5.02c
iter:  36 12:56:13  -318.241528c -6.76  -5.04c
iter:  37 12:56:21  -318.241529c -6.93  -5.10c
iter:  38 12:56:28  -318.241528c -6.81  -5.37c
iter:  39 12:56:36  -318.241528c -6.76  -5.46c
Writing to output.gpw (mode='')

iter:  40 12:56:43  -318.241529c -7.17  -5.45c
iter:  41 12:56:51  -318.241528c -6.97  -5.62c
iter:  42 12:56:58  -318.241528c -7.35  -5.67c
iter:  43 12:57:07  -318.241529c -7.29  -5.72c
iter:  44 12:57:15  -318.241529c -7.42c -5.79c

Converged after 44 iterations.

Dipole moment: (15.595766, -3.613377, 0.278982) |e|*Ang

Energy contributions relative to reference atoms: (reference = -16475.706344)

Kinetic:       +207.989742
Potential:     -187.417987
External:        +0.000000
XC:            -339.796661
Entropy (-ST):   -0.147104
Local:           +1.056930
--------------------------
Free energy:   -318.315081
Extrapolated:  -318.241529

Dipole-layer corrected work functions: 3.382546, 2.846247 eV

Showing only first 2 kpts
 Kpt  Band  Eigenvalues  Occupancy
  0    34     -3.36189    1.98593
  0    35     -3.25129    1.87844
  0    36     -2.95868    0.08504
  0    37     -2.87074    0.01518

  1    34     -3.19498    1.66729
  1    35     -3.11079    0.96399
  1    36     -3.09583    0.81648
  1    37     -3.00014    0.18471


Fermi level: -3.11440

No gap
Writing to output.gpw (mode='')


Forces in eV/Ang:
  0 Li    0.02502    0.00048   -0.27369
  1 Li   -0.02734   -0.00078   -0.26938
  2 Li    0.00184   -0.00011   -0.27938
  3 Li   -0.00243   -0.00484   -0.27714
  4 Li    0.00628    0.00049   -0.27492
  5 Li   -0.00168    0.02785   -0.27440
  6 Li   -0.00115    0.00486   -0.27304
  7 Li    0.00657    0.00078   -0.27639
  8 Li   -0.00274   -0.02777   -0.27127
  9 Li   -0.00095    0.00325    0.29245
 10 Li    0.00025    0.00589    0.25117
 11 Li    0.00220   -0.00097    0.28714
 12 Li    0.00166    0.00005    0.28746
 13 Li   -0.00219   -0.00800    0.25353
 14 Li    0.00275   -0.00037    0.28891
 15 Li   -0.00795   -0.00323    0.25123
 16 Li   -0.00117    0.00094    0.27219
 17 Li    0.00552    0.00126    0.24445
 18 Li   -0.00266   -0.00193    0.05092
 19 Li    0.00784   -0.00002    0.04128
 20 Li   -0.00388    0.00041   -0.17794
 21 Li   -0.01018   -0.00501    0.03791
 22 Li    0.00969   -0.01556    0.05022
 23 Li   -0.00258   -0.00358    0.03477
 24 Li   -0.01782    0.00694    0.04677
 25 Li    0.01373    0.01482    0.04875
 26 Li    0.00042    0.00257    0.04424
 27 Li    0.05219   -0.02360   -0.02756
 28 Li   -0.01353    0.03134   -0.01086
 29 Li   -0.03737   -0.03230   -0.00141
 30 Li    0.06532    0.04880   -0.09901
 31 Li   -0.02259   -0.03077    0.00078
 32 Li   -0.06146    0.06110   -0.04327
 33 Li   -0.02605   -0.00656    0.00483
 34 Li    0.00404    0.00000   -0.01518
 35 Li    0.02435   -0.00434   -0.00148
 36 O     0.92457    0.47850    9.85637
 37 O    -0.04600   -0.04516   -0.16740
 38 C     3.00285    1.84373    2.83002
 39 C     0.13889    0.28813    0.62596
 40 H     0.22056   -0.17218    0.28997
 41 H     2.51318    1.54769    2.07441
 42 H     0.06294    0.02468   -0.02237
 43 H     0.01202    0.23843   -0.00006
 44 H     1.03718   -0.36391    5.50176
 45 H    -0.09427    0.09142    0.07929
 46 N    -0.82943   -1.60997   -9.17183
 47 N    -6.92285   -2.32712  -11.82828

System changes: positions 

Initializing position-dependent things.

Density initialized from wave functions
       .-----------------------.  
      /|                       |  
     / |                       |  
    /  |                       |  
   /   |                       |  
  /    |                       |  
 *     |                       |  
 |     |                       |  
 |     |                       |  
 |     |                       |  
 |     |                       |  
 |     |                  H    |  
 |   H |              H O C    |  
 |     |              O        |  
 | H   Li              LiC     |  
 |     |              N  H     |  
 |     |     Li      Li      Li|  
 |     |  Li      Li  N   Li   |  
 | Li  |   Li      Li          |  
 |     |Li      Li      Li     |  
 |     | Li                    |  
 |   LLi     LLi     LLi       |  
 |     |  Li      Li      Li   |  
 | Li  |   Li      Li          |  
 |     |Li      Li      Li     |  
 Li    | Li      Li            |  
 |    Li      Li      Li       |  
 |     |                       |  
 |     |                       |  
 |     |                       |  
 |     |                       |  
 |     |                       |  
 |     |                       |  
 |     .-----------------------.  
 |    /                       /   
 |   /                       /    
 |  /                       /     
 | /                       /      
 |/                       /       
 *-----------------------*        

Positions:
   0 Li     1.617037    1.617037   10.000000    ( 0.0000,  0.0000,  0.0000)
   1 Li     4.851111    1.617037   10.000000    ( 0.0000,  0.0000,  0.0000)
   2 Li     8.085185    1.617037   10.000000    ( 0.0000,  0.0000,  0.0000)
   3 Li     1.617037    4.851111   10.000000    ( 0.0000,  0.0000,  0.0000)
   4 Li     4.851111    4.851111   10.000000    ( 0.0000,  0.0000,  0.0000)
   5 Li     8.085185    4.851111   10.000000    ( 0.0000,  0.0000,  0.0000)
   6 Li     1.617037    8.085185   10.000000    ( 0.0000,  0.0000,  0.0000)
   7 Li     4.851111    8.085185   10.000000    ( 0.0000,  0.0000,  0.0000)
   8 Li     8.085185    8.085185   10.000000    ( 0.0000,  0.0000,  0.0000)
   9 Li     0.000000    0.000000   11.617037    ( 0.0000,  0.0000,  0.0000)
  10 Li     3.234074    0.000000   11.617037    ( 0.0000,  0.0000,  0.0000)
  11 Li     6.468148    0.000000   11.617037    ( 0.0000,  0.0000,  0.0000)
  12 Li     0.000000    3.234074   11.617037    ( 0.0000,  0.0000,  0.0000)
  13 Li     3.234074    3.234074   11.617037    ( 0.0000,  0.0000,  0.0000)
  14 Li     6.468148    3.234074   11.617037    ( 0.0000,  0.0000,  0.0000)
  15 Li     0.000000    6.468148   11.617037    ( 0.0000,  0.0000,  0.0000)
  16 Li     3.234074    6.468148   11.617037    ( 0.0000,  0.0000,  0.0000)
  17 Li     6.468148    6.468148   11.617037    ( 0.0000,  0.0000,  0.0000)
  18 Li     1.617002    1.617021   13.470406    ( 0.0000,  0.0000,  0.0000)
  19 Li     4.851235    1.617051   13.470279    ( 0.0000,  0.0000,  0.0000)
  20 Li     8.085118    1.617043   13.467272    ( 0.0000,  0.0000,  0.0000)
  21 Li     1.616880    4.851021   13.470257    ( 0.0000,  0.0000,  0.0000)
  22 Li     4.851259    4.850911   13.470380    ( 0.0000,  0.0000,  0.0000)
  23 Li     8.085155    4.851063   13.470180    ( 0.0000,  0.0000,  0.0000)
  24 Li     1.616804    8.085296   13.470339    ( 0.0000,  0.0000,  0.0000)
  25 Li     4.851279    8.085364   13.470335    ( 0.0000,  0.0000,  0.0000)
  26 Li     8.085199    8.085247   13.470347    ( 0.0000,  0.0000,  0.0000)
  27 Li     0.000834   -0.000474   15.445373    ( 0.0000,  0.0000,  0.0000)
  28 Li     3.233887    0.000429   15.445792    ( 0.0000,  0.0000,  0.0000)
  29 Li     6.467426   -0.000628   15.445702    ( 0.0000,  0.0000,  0.0000)
  30 Li     0.000972    3.234897   15.444277    ( 0.0000,  0.0000,  0.0000)
  31 Li     3.233802    3.233677   15.445906    ( 0.0000,  0.0000,  0.0000)
  32 Li     6.467233    3.234980   15.445234    ( 0.0000,  0.0000,  0.0000)
  33 Li    -0.000349    6.468092   15.445968    ( 0.0000,  0.0000,  0.0000)
  34 Li     3.234114    6.468122   15.445749    ( 0.0000,  0.0000,  0.0000)
  35 Li     6.468488    6.468109   15.445903    ( 0.0000,  0.0000,  0.0000)
  36 O      8.105679    1.628255   19.750617    ( 0.0000,  0.0000,  0.0000)
  37 O      8.128951    4.514531   19.411531    ( 0.0000,  0.0000,  0.0000)
  38 C      9.276719    2.358120   19.268396    ( 0.0000,  0.0000,  0.0000)
  39 C      9.273621    3.759479   19.808881    ( 0.0000,  0.0000,  0.0000)
  40 H     10.176870    1.815797   19.530204    ( 0.0000,  0.0000,  0.0000)
  41 H      9.234812    2.393953   18.173195    ( 0.0000,  0.0000,  0.0000)
  42 H     10.145212    4.292797   19.426477    ( 0.0000,  0.0000,  0.0000)
  43 H      9.345860    3.708453   20.903242    ( 0.0000,  0.0000,  0.0000)
  44 H      8.175514    1.448176   20.655486    ( 0.0000,  0.0000,  0.0000)
  45 H      7.361116    3.936227   19.510445    ( 0.0000,  0.0000,  0.0000)
  46 N      8.081616    1.605084   17.080405    ( 0.0000,  0.0000,  0.0000)
  47 N      7.996977    1.581823   18.168590    ( 0.0000,  0.0000,  0.0000)

Unit cell:
           periodic     x           y           z      points  spacing
  1. axis:    yes    9.702222    0.000000    0.000000    60     0.1617
  2. axis:    yes    0.000000    9.702222    0.000000    60     0.1617
  3. axis:    no     0.000000    0.000000   26.601111   168     0.1583

  Lengths:   9.702222   9.702222  26.601111
  Angles:   90.000000  90.000000  90.000000

Effective grid spacing dv^(1/3) = 0.1606

     iter     time        total  log10-change:
                         energy  eigst   dens
iter:   1 12:57:24  -319.346943  -0.86
iter:   2 12:57:32  -319.341864  -1.45  -1.98
iter:   3 12:57:39  -319.338083c -1.96  -2.13
iter:   4 12:57:47  -319.330229c -1.31  -2.37
Writing to output.gpw (mode='')

iter:   5 12:57:54  -319.329556c -2.15  -2.37
iter:   6 12:58:02  -319.327423c -2.40  -2.45
iter:   7 12:58:09  -319.327631c -2.36  -2.72
iter:   8 12:58:17  -319.327416c -2.96  -2.84
iter:   9 12:58:24  -319.327435c -3.15  -2.88
Writing to output.gpw (mode='')

iter:  10 12:58:32  -319.327142c -3.09  -2.86
iter:  11 12:58:39  -319.327118c -3.91  -3.04
iter:  12 12:58:46  -319.327129c -3.64  -3.10
iter:  13 12:58:54  -319.327278c -3.37  -3.26
iter:  14 12:59:01  -319.327071c -3.80  -3.22
Writing to output.gpw (mode='')

iter:  15 12:59:09  -319.327096c -4.59  -3.40
iter:  16 12:59:16  -319.327059c -3.79  -3.42
iter:  17 12:59:24  -319.327154c -3.76  -3.63
iter:  18 12:59:34  -319.327087c -4.23  -3.41
iter:  19 12:59:44  -319.327098c -3.79  -3.56
Writing to output.gpw (mode='')

iter:  20 12:59:52  -319.327071c -4.49  -3.64
iter:  21 13:00:00  -319.327072c -5.05  -4.10c
iter:  22 13:00:07  -319.327072c -5.39  -4.10c
iter:  23 13:00:14  -319.327071c -5.56  -4.22c
iter:  24 13:00:22  -319.327069c -5.80  -4.25c
Writing to output.gpw (mode='')

iter:  25 13:00:30  -319.327065c -5.68  -4.36c
iter:  26 13:00:37  -319.327065c -6.05  -4.51c
iter:  27 13:00:45  -319.327066c -5.84  -4.54c
iter:  28 13:00:52  -319.327065c -5.99  -4.68c
iter:  29 13:01:00  -319.327066c -6.29  -4.73c
Writing to output.gpw (mode='')

iter:  30 13:01:07  -319.327068c -6.34  -4.79c
iter:  31 13:01:15  -319.327068c -6.63  -4.97c
iter:  32 13:01:22  -319.327067c -6.59  -5.04c
iter:  33 13:01:30  -319.327067c -6.91  -5.15c
iter:  34 13:01:37  -319.327067c -6.76  -5.16c
Writing to output.gpw (mode='')

iter:  35 13:01:45  -319.327068c -7.00  -5.19c
iter:  36 13:01:52  -319.327068c -7.01  -5.20c
iter:  37 13:02:00  -319.327067c -6.99  -5.29c
iter:  38 13:02:07  -319.327068c -7.24  -5.33c
iter:  39 13:02:15  -319.327068c -7.32  -5.45c
Writing to output.gpw (mode='')

iter:  40 13:02:22  -319.327068c -7.60c -5.53c

Converged after 40 iterations.

Dipole moment: (15.697310, -3.598873, 0.297328) |e|*Ang

Energy contributions relative to reference atoms: (reference = -16475.706344)

Kinetic:       +202.525942
Potential:     -183.753525
External:        +0.000000
XC:            -339.087796
Entropy (-ST):   -0.147151
Local:           +1.061886
--------------------------
Free energy:   -319.400643
Extrapolated:  -319.327068

Dipole-layer corrected work functions: 3.383303, 2.811736 eV

Showing only first 2 kpts
 Kpt  Band  Eigenvalues  Occupancy
  0    34     -3.34491    1.98590
  0    35     -3.23241    1.87378
  0    36     -2.94148    0.08451
  0    37     -2.85572    0.01575

  1    34     -3.18037    1.67969
  1    35     -3.09479    0.97268
  1    36     -3.07884    0.81531
  1    37     -2.98100    0.17728


Fermi level: -3.09752

No gap

Forces in eV/Ang:
  0 Li    0.02580    0.00035   -0.27410
  1 Li   -0.02813   -0.00079   -0.26912
  2 Li    0.00155   -0.00033   -0.27943
  3 Li   -0.00180   -0.00456   -0.27716
  4 Li    0.00630    0.00084   -0.27520
  5 Li   -0.00180    0.02849   -0.27450
  6 Li   -0.00060    0.00491   -0.27315
  7 Li    0.00651    0.00065   -0.27714
  8 Li   -0.00273   -0.02832   -0.27098
  9 Li   -0.00088    0.00374    0.29388
 10 Li    0.00134    0.00607    0.25072
 11 Li    0.00165   -0.00159    0.28666
 12 Li    0.00117   -0.00089    0.29021
 13 Li   -0.00116   -0.00788    0.25256
 14 Li    0.00270   -0.00002    0.28958
 15 Li   -0.00794   -0.00259    0.25038
 16 Li   -0.00269    0.00032    0.27157
 17 Li    0.00627    0.00186    0.24459
 18 Li   -0.00038   -0.00183    0.04818
 19 Li    0.00842    0.00028    0.04101
 20 Li   -0.00630   -0.00080   -0.17712
 21 Li   -0.01102   -0.00566    0.03846
 22 Li    0.00952   -0.01575    0.05021
 23 Li   -0.00218   -0.00264    0.03322
 24 Li   -0.01853    0.00731    0.04714
 25 Li    0.01312    0.01434    0.04813
 26 Li    0.00095    0.00314    0.04412
 27 Li    0.04748   -0.01916   -0.02112
 28 Li   -0.01410    0.03069   -0.01200
 29 Li   -0.03873   -0.03413   -0.00196
 30 Li    0.05681    0.04105   -0.08725
 31 Li   -0.02240   -0.03001   -0.00101
 32 Li   -0.05934    0.05935   -0.03917
 33 Li   -0.02559   -0.00635    0.00407
 34 Li    0.00432    0.00004   -0.01537
 35 Li    0.02401   -0.00465   -0.00190
 36 O     1.04639    0.56834    8.71343
 37 O    -0.02844   -0.05920   -0.15524
 38 C     2.50748    1.58089    2.43890
 39 C     0.18855    0.33098    0.59373
 40 H     0.32434   -0.16523    0.32559
 41 H     2.13515    1.30847    2.00356
 42 H     0.06090    0.04941   -0.00725
 43 H     0.01724    0.25860    0.04882
 44 H     1.06158   -0.22919    4.72425
 45 H    -0.07997    0.07493    0.07551
 46 N    -0.50828   -1.28042   -7.03264
 47 N    -6.69294   -2.39977  -11.72801

System changes: positions 

Initializing position-dependent things.

Density initialized from wave functions
       .-----------------------.  
      /|                       |  
     / |                       |  
    /  |                       |  
   /   |                       |  
  /    |                       |  
 *     |                       |  
 |     |                       |  
 |     |                       |  
 |     |                       |  
 |     |                       |  
 |     |                  H    |  
 |   H |              H O C    |  
 |     |              O        |  
 | H   Li              LiC     |  
 |     |                 H     |  
 |     |     Li      LN      Li|  
 |     |  Li      Li  N   Li   |  
 | Li  |   Li      Li          |  
 |     |Li      Li      Li     |  
 |     | Li                    |  
 |   LLi     LLi     LLi       |  
 |     |  Li      Li      Li   |  
 | Li  |   Li      Li          |  
 |     |Li      Li      Li     |  
 Li    | Li      Li            |  
 |    Li      Li      Li       |  
 |     |                       |  
 |     |                       |  
 |     |                       |  
 |     |                       |  
 |     |                       |  
 |     |                       |  
 |     .-----------------------.  
 |    /                       /   
 |   /                       /    
 |  /                       /     
 | /                       /      
 |/                       /       
 *-----------------------*        

Positions:
   0 Li     1.617037    1.617037   10.000000    ( 0.0000,  0.0000,  0.0000)
   1 Li     4.851111    1.617037   10.000000    ( 0.0000,  0.0000,  0.0000)
   2 Li     8.085185    1.617037   10.000000    ( 0.0000,  0.0000,  0.0000)
   3 Li     1.617037    4.851111   10.000000    ( 0.0000,  0.0000,  0.0000)
   4 Li     4.851111    4.851111   10.000000    ( 0.0000,  0.0000,  0.0000)
   5 Li     8.085185    4.851111   10.000000    ( 0.0000,  0.0000,  0.0000)
   6 Li     1.617037    8.085185   10.000000    ( 0.0000,  0.0000,  0.0000)
   7 Li     4.851111    8.085185   10.000000    ( 0.0000,  0.0000,  0.0000)
   8 Li     8.085185    8.085185   10.000000    ( 0.0000,  0.0000,  0.0000)
   9 Li     0.000000    0.000000   11.617037    ( 0.0000,  0.0000,  0.0000)
  10 Li     3.234074    0.000000   11.617037    ( 0.0000,  0.0000,  0.0000)
  11 Li     6.468148    0.000000   11.617037    ( 0.0000,  0.0000,  0.0000)
  12 Li     0.000000    3.234074   11.617037    ( 0.0000,  0.0000,  0.0000)
  13 Li     3.234074    3.234074   11.617037    ( 0.0000,  0.0000,  0.0000)
  14 Li     6.468148    3.234074   11.617037    ( 0.0000,  0.0000,  0.0000)
  15 Li     0.000000    6.468148   11.617037    ( 0.0000,  0.0000,  0.0000)
  16 Li     3.234074    6.468148   11.617037    ( 0.0000,  0.0000,  0.0000)
  17 Li     6.468148    6.468148   11.617037    ( 0.0000,  0.0000,  0.0000)
  18 Li     1.617017    1.617017   13.470608    ( 0.0000,  0.0000,  0.0000)
  19 Li     4.851290    1.617060   13.470473    ( 0.0000,  0.0000,  0.0000)
  20 Li     8.085060    1.617026   13.466416    ( 0.0000,  0.0000,  0.0000)
  21 Li     1.616812    4.850980   13.470450    ( 0.0000,  0.0000,  0.0000)
  22 Li     4.851309    4.850841   13.470606    ( 0.0000,  0.0000,  0.0000)
  23 Li     8.085151    4.851057   13.470319    ( 0.0000,  0.0000,  0.0000)
  24 Li     1.616715    8.085339   13.470555    ( 0.0000,  0.0000,  0.0000)
  25 Li     4.851326    8.085418   13.470534    ( 0.0000,  0.0000,  0.0000)
  26 Li     8.085212    8.085283   13.470568    ( 0.0000,  0.0000,  0.0000)
  27 Li     0.001105   -0.000623   15.445202    ( 0.0000,  0.0000,  0.0000)
  28 Li     3.233814    0.000573   15.445729    ( 0.0000,  0.0000,  0.0000)
  29 Li     6.467103   -0.000923   15.445536    ( 0.0000,  0.0000,  0.0000)
  30 Li     0.001228    3.235114   15.443807    ( 0.0000,  0.0000,  0.0000)
  31 Li     3.233712    3.233545   15.445873    ( 0.0000,  0.0000,  0.0000)
  32 Li     6.466908    3.235307   15.444988    ( 0.0000,  0.0000,  0.0000)
  33 Li    -0.000466    6.468077   15.445971    ( 0.0000,  0.0000,  0.0000)
  34 Li     3.234130    6.468113   15.445681    ( 0.0000,  0.0000,  0.0000)
  35 Li     6.468605    6.468092   15.445887    ( 0.0000,  0.0000,  0.0000)
  36 O      8.114144    1.634286   19.761832    ( 0.0000,  0.0000,  0.0000)
  37 O      8.129118    4.514178   19.411136    ( 0.0000,  0.0000,  0.0000)
  38 C      9.277484    2.358384   19.275117    ( 0.0000,  0.0000,  0.0000)
  39 C      9.275155    3.761222   19.810566    ( 0.0000,  0.0000,  0.0000)
  40 H     10.179991    1.815757   19.531773    ( 0.0000,  0.0000,  0.0000)
  41 H      9.237746    2.395586   18.182855    ( 0.0000,  0.0000,  0.0000)
  42 H     10.145694    4.293742   19.426658    ( 0.0000,  0.0000,  0.0000)
  43 H      9.346077    3.709953   20.904431    ( 0.0000,  0.0000,  0.0000)
  44 H      8.181790    1.450407   20.665754    ( 0.0000,  0.0000,  0.0000)
  45 H      7.361068    3.936115   19.510655    ( 0.0000,  0.0000,  0.0000)
  46 N      8.086101    1.606531   17.062498    ( 0.0000,  0.0000,  0.0000)
  47 N      7.968853    1.566804   18.144435    ( 0.0000,  0.0000,  0.0000)

Unit cell:
           periodic     x           y           z      points  spacing
  1. axis:    yes    9.702222    0.000000    0.000000    60     0.1617
  2. axis:    yes    0.000000    9.702222    0.000000    60     0.1617
  3. axis:    no     0.000000    0.000000   26.601111   168     0.1583

  Lengths:   9.702222   9.702222  26.601111
  Angles:   90.000000  90.000000  90.000000

Effective grid spacing dv^(1/3) = 0.1606

     iter     time        total  log10-change:
                         energy  eigst   dens
iter:   1 13:02:31  -320.227290  -1.00
iter:   2 13:02:39  -320.169663  -1.15  -1.69
iter:   3 13:02:46  -320.149510  -1.89  -1.86
iter:   4 13:02:54  -320.145658c -1.17  -2.29
Writing to output.gpw (mode='')

iter:   5 13:03:02  -320.140949c -2.21  -2.20
iter:   6 13:03:09  -320.140961c -2.12  -2.47
iter:   7 13:03:17  -320.140852c -2.14  -2.59
iter:   8 13:03:24  -320.139979c -2.78  -2.67
iter:   9 13:03:32  -320.140000c -2.91  -2.81
Writing to output.gpw (mode='')

iter:  10 13:03:39  -320.139927c -3.15  -2.94
iter:  11 13:03:47  -320.139957c -3.55  -3.10
iter:  12 13:03:54  -320.139960c -3.73  -3.11
iter:  13 13:04:02  -320.139939c -3.68  -3.24
iter:  14 13:04:10  -320.139948c -3.95  -3.39
Writing to output.gpw (mode='')

iter:  15 13:04:17  -320.139950c -4.43  -3.61
iter:  16 13:04:25  -320.139949c -4.62  -3.65
iter:  17 13:04:41  -320.139950c -4.66  -3.74
iter:  18 13:04:48  -320.139955c -4.85  -3.89
iter:  19 13:04:56  -320.139955c -5.09  -3.96
Writing to output.gpw (mode='')

iter:  20 13:05:03  -320.139953c -5.08  -3.98
iter:  21 13:05:11  -320.139953c -5.30  -4.05c
iter:  22 13:05:18  -320.139954c -5.29  -4.04c
iter:  23 13:05:26  -320.139954c -5.42  -4.32c
iter:  24 13:05:33  -320.139954c -5.59  -4.44c
Writing to output.gpw (mode='')

iter:  25 13:05:41  -320.139955c -5.66  -4.48c
iter:  26 13:05:48  -320.139956c -6.09  -4.50c
iter:  27 13:05:56  -320.139956c -6.26  -4.74c
iter:  28 13:06:03  -320.139957c -6.07  -4.83c
iter:  29 13:06:11  -320.139957c -6.08  -4.88c
Writing to output.gpw (mode='')

iter:  30 13:06:18  -320.139957c -6.26  -4.95c
iter:  31 13:06:26  -320.139957c -6.55  -5.02c
iter:  32 13:06:33  -320.139958c -6.57  -5.11c
iter:  33 13:06:41  -320.139958c -6.70  -5.21c
iter:  34 13:06:48  -320.139958c -6.75  -5.24c
Writing to output.gpw (mode='')

iter:  35 13:06:56  -320.139958c -6.94  -5.33c
iter:  36 13:07:03  -320.139958c -6.59  -5.56c
iter:  37 13:07:11  -320.139958c -6.94  -5.59c
iter:  38 13:07:18  -320.139958c -6.78  -5.57c
iter:  39 13:07:26  -320.139958c -7.14  -5.55c
Writing to output.gpw (mode='')

iter:  40 13:07:33  -320.139958c -7.12  -5.52c
iter:  41 13:07:41  -320.139958c -7.32  -5.51c
iter:  42 13:07:48  -320.139958c -7.35  -5.49c
iter:  43 13:07:56  -320.139958c -7.40c -5.40c

Converged after 43 iterations.

Dipole moment: (15.764580, -3.608098, 0.313188) |e|*Ang

Energy contributions relative to reference atoms: (reference = -16475.706344)

Kinetic:       +200.253502
Potential:     -182.444564
External:        +0.000000
XC:            -338.943342
Entropy (-ST):   -0.147004
Local:           +1.067947
--------------------------
Free energy:   -320.213460
Extrapolated:  -320.139958

Dipole-layer corrected work functions: 3.384037, 2.781982 eV

Showing only first 2 kpts
 Kpt  Band  Eigenvalues  Occupancy
  0    34     -3.33059    1.98596
  0    35     -3.21763    1.87315
  0    36     -2.92599    0.08295
  0    37     -2.84158    0.01587

  1    34     -3.16560    1.67825
  1    35     -3.08129    0.98281
  1    36     -3.06449    0.81688
  1    37     -2.96616    0.17620


Fermi level: -3.08301

No gap
Writing to output.gpw (mode='')


Forces in eV/Ang:
  0 Li    0.02628    0.00029   -0.27426
  1 Li   -0.02862   -0.00074   -0.26881
  2 Li    0.00122   -0.00061   -0.27908
  3 Li   -0.00135   -0.00433   -0.27699
  4 Li    0.00637    0.00098   -0.27540
  5 Li   -0.00183    0.02887   -0.27444
  6 Li   -0.00032    0.00505   -0.27325
  7 Li    0.00653    0.00068   -0.27772
  8 Li   -0.00264   -0.02863   -0.27064
  9 Li   -0.00050    0.00394    0.29418
 10 Li    0.00244    0.00637    0.25051
 11 Li    0.00084   -0.00237    0.28532
 12 Li    0.00067   -0.00175    0.29219
 13 Li    0.00000   -0.00762    0.25148
 14 Li    0.00245    0.00057    0.28941
 15 Li   -0.00783   -0.00169    0.24940
 16 Li   -0.00422   -0.00058    0.27169
 17 Li    0.00705    0.00257    0.24489
 18 Li    0.00099   -0.00162    0.04678
 19 Li    0.00982    0.00065    0.04220
 20 Li   -0.00863   -0.00221   -0.17645
 21 Li   -0.01185   -0.00639    0.03932
 22 Li    0.00935   -0.01556    0.04997
 23 Li   -0.00173   -0.00221    0.03288
 24 Li   -0.01872    0.00755    0.04723
 25 Li    0.01209    0.01334    0.04714
 26 Li    0.00148    0.00463    0.04539
 27 Li    0.04982   -0.02258   -0.02614
 28 Li   -0.01454    0.03068   -0.01220
 29 Li   -0.04831   -0.04416   -0.01466
 30 Li    0.05519    0.04001   -0.08519
 31 Li   -0.02184   -0.02974   -0.00215
 32 Li   -0.06378    0.06358   -0.04592
 33 Li   -0.02558   -0.00615    0.00375
 34 Li    0.00447   -0.00000   -0.01522
 35 Li    0.02421   -0.00502   -0.00171
 36 O     1.01814    0.63178    7.51572
 37 O    -0.01583   -0.05562   -0.14657
 38 C     2.32169    1.42481    2.25971
 39 C     0.19180    0.31069    0.55837
 40 H     0.33416   -0.11558    0.32502
 41 H     1.88085    1.15477    1.90298
 42 H     0.07528    0.07704   -0.00347
 43 H     0.02447    0.27255    0.07969
 44 H     1.07327   -0.17056    4.26480
 45 H    -0.06618    0.06151    0.07677
 46 N    -0.17893   -0.94501   -6.88670
 47 N    -6.59881   -2.59735   -9.91047

System changes: positions 

Initializing position-dependent things.

Density initialized from wave functions
       .-----------------------.  
      /|                       |  
     / |                       |  
    /  |                       |  
   /   |                       |  
  /    |                       |  
 *     |                       |  
 |     |                       |  
 |     |                       |  
 |     |                       |  
 |     |                       |  
 |     |                  H    |  
 |   H |              H O C    |  
 |     |              O        |  
 | H   Li              LiC     |  
 |     |                 H     |  
 |     |     Li      LN      Li|  
 |     |  Li      Li  N   Li   |  
 | Li  |   Li      Li          |  
 |     |Li      Li      Li     |  
 |     | Li                    |  
 |   LLi     LLi     LLi       |  
 |     |  Li      Li      Li   |  
 | Li  |   Li      Li          |  
 |     |Li      Li      Li     |  
 Li    | Li      Li            |  
 |    Li      Li      Li       |  
 |     |                       |  
 |     |                       |  
 |     |                       |  
 |     |                       |  
 |     |                       |  
 |     |                       |  
 |     .-----------------------.  
 |    /                       /   
 |   /                       /    
 |  /                       /     
 | /                       /      
 |/                       /       
 *-----------------------*        

Positions:
   0 Li     1.617037    1.617037   10.000000    ( 0.0000,  0.0000,  0.0000)
   1 Li     4.851111    1.617037   10.000000    ( 0.0000,  0.0000,  0.0000)
   2 Li     8.085185    1.617037   10.000000    ( 0.0000,  0.0000,  0.0000)
   3 Li     1.617037    4.851111   10.000000    ( 0.0000,  0.0000,  0.0000)
   4 Li     4.851111    4.851111   10.000000    ( 0.0000,  0.0000,  0.0000)
   5 Li     8.085185    4.851111   10.000000    ( 0.0000,  0.0000,  0.0000)
   6 Li     1.617037    8.085185   10.000000    ( 0.0000,  0.0000,  0.0000)
   7 Li     4.851111    8.085185   10.000000    ( 0.0000,  0.0000,  0.0000)
   8 Li     8.085185    8.085185   10.000000    ( 0.0000,  0.0000,  0.0000)
   9 Li     0.000000    0.000000   11.617037    ( 0.0000,  0.0000,  0.0000)
  10 Li     3.234074    0.000000   11.617037    ( 0.0000,  0.0000,  0.0000)
  11 Li     6.468148    0.000000   11.617037    ( 0.0000,  0.0000,  0.0000)
  12 Li     0.000000    3.234074   11.617037    ( 0.0000,  0.0000,  0.0000)
  13 Li     3.234074    3.234074   11.617037    ( 0.0000,  0.0000,  0.0000)
  14 Li     6.468148    3.234074   11.617037    ( 0.0000,  0.0000,  0.0000)
  15 Li     0.000000    6.468148   11.617037    ( 0.0000,  0.0000,  0.0000)
  16 Li     3.234074    6.468148   11.617037    ( 0.0000,  0.0000,  0.0000)
  17 Li     6.468148    6.468148   11.617037    ( 0.0000,  0.0000,  0.0000)
  18 Li     1.617048    1.617013   13.470815    ( 0.0000,  0.0000,  0.0000)
  19 Li     4.851361    1.617071   13.470696    ( 0.0000,  0.0000,  0.0000)
  20 Li     8.084975    1.616994   13.465505    ( 0.0000,  0.0000,  0.0000)
  21 Li     1.616735    4.850933   13.470666    ( 0.0000,  0.0000,  0.0000)
  22 Li     4.851358    4.850763   13.470854    ( 0.0000,  0.0000,  0.0000)
  23 Li     8.085150    4.851055   13.470470    ( 0.0000,  0.0000,  0.0000)
[...]

Kinetic:       +159.680889
Potential:     -155.069666
External:        +0.000000
XC:            -332.749324
Entropy (-ST):   -0.152520
Local:           +1.117449
--------------------------
Free energy:   -327.173171
Extrapolated:  -327.096911

Dipole-layer corrected work functions: 3.404977, 2.752894 eV

Showing only first 2 kpts
 Kpt  Band  Eigenvalues  Occupancy
  0    34     -3.31093    1.98087
  0    35     -3.26493    1.95267
  0    36     -2.93231    0.10114
  0    37     -2.87706    0.03467

  1    34     -3.11812    1.37299
  1    35     -3.07312    0.94191
  1    36     -3.03909    0.62133
  1    37     -3.00608    0.37785


Fermi level: -3.07894

No gap
Writing to output.gpw (mode='')


Forces in eV/Ang:
  0 Li   -0.00460    0.00532   -0.27246
  1 Li   -0.01473    0.00518   -0.26190
  2 Li    0.01657    0.00169   -0.26316
  3 Li    0.00042    0.00204   -0.28322
  4 Li    0.00120    0.01497   -0.27082
  5 Li   -0.00254    0.01286   -0.27166
  6 Li   -0.00235    0.00157   -0.28214
  7 Li    0.00278   -0.01547   -0.27408
  8 Li   -0.00162   -0.01038   -0.27181
  9 Li    0.01241   -0.02019    0.29202
 10 Li   -0.00260   -0.02923    0.30434
 11 Li    0.00929   -0.02315    0.30225
 12 Li    0.01167    0.00440    0.28782
 13 Li    0.00170    0.01688    0.28596
 14 Li    0.00659    0.00295    0.28097
 15 Li   -0.04899   -0.00392    0.28632
 16 Li    0.05982   -0.00993    0.29778
 17 Li   -0.00009   -0.01273    0.24038
 18 Li   -0.00509   -0.01373   -0.00196
 19 Li    0.00381    0.00807    0.01296
 20 Li   -0.01692    0.00530    0.00019
 21 Li   -0.00176    0.00309   -0.00237
 22 Li   -0.00224   -0.01200    0.00767
 23 Li   -0.00654   -0.00536    0.01055
 24 Li   -0.00097    0.00616    0.00463
 25 Li   -0.00062    0.00890   -0.00040
 26 Li   -0.00446    0.00472    0.00505
 27 Li   -0.00071   -0.00484   -0.00877
 28 Li   -0.00231    0.00314   -0.00842
 29 Li   -0.00277   -0.00822   -0.03008
 30 Li    0.00535   -0.00037    0.00060
 31 Li   -0.01087   -0.00363   -0.01235
 32 Li    0.00978    0.02160   -0.00536
 33 Li   -0.00208    0.00288   -0.00875
 34 Li    0.00811    0.00214   -0.00765
 35 Li   -0.00423    0.02079   -0.01189
 36 O    -0.01445   -0.04766   -0.00039
 37 O     0.00858   -0.00440   -0.01303
 38 C    -0.00439    0.02062   -0.01067
 39 C    -0.00148    0.02391    0.00684
 40 H    -0.01539    0.01237   -0.03105
 41 H     0.01046   -0.02018    0.01578
 42 H    -0.01588    0.00707   -0.01141
 43 H    -0.00426    0.01954   -0.00907
 44 H    -0.00655   -0.00749   -0.01924
 45 H     0.03103    0.01153   -0.01531
 46 N    -0.04417   -0.00011    0.03419
 47 N     0.00598    0.00176   -0.00863

System changes: positions 

Initializing position-dependent things.

Density initialized from wave functions
       .-----------------------.  
      /|                       |  
     / |                       |  
    /  |                       |  
   /   |                       |  
  /    |                       |  
 *     |                       |  
 |     |                       |  
 |     |                       |  
 |     |                       |  
 |     |                   H   |  
 |     |                       |  
 |   H |                H  C   |  
 | C H |              HO       |  
 |     |       Li      Li      |  
 | H   |                       |  
 |   Li|     Li  N   Li        |  
 |     |  Li      Ni      Li   |  
 | Li  |   Li      Li          |  
 |     |Li      Li      Li     |  
 Li    |                       |  
 |   LLi     LLi     LLi       |  
 |     |  Li      Li      Li   |  
 | Li  |   Li      Li          |  
 |     |Li      Li      Li     |  
 Li    | Li      Li            |  
 |    Li      Li      Li       |  
 |     |                       |  
 |     |                       |  
 |     |                       |  
 |     |                       |  
 |     |                       |  
 |     |                       |  
 |     .-----------------------.  
 |    /                       /   
 |   /                       /    
 |  /                       /     
 | /                       /      
 |/                       /       
 *-----------------------*        

Positions:
   0 Li     1.617037    1.617037   10.000000    ( 0.0000,  0.0000,  0.0000)
   1 Li     4.851111    1.617037   10.000000    ( 0.0000,  0.0000,  0.0000)
   2 Li     8.085185    1.617037   10.000000    ( 0.0000,  0.0000,  0.0000)
   3 Li     1.617037    4.851111   10.000000    ( 0.0000,  0.0000,  0.0000)
   4 Li     4.851111    4.851111   10.000000    ( 0.0000,  0.0000,  0.0000)
   5 Li     8.085185    4.851111   10.000000    ( 0.0000,  0.0000,  0.0000)
   6 Li     1.617037    8.085185   10.000000    ( 0.0000,  0.0000,  0.0000)
   7 Li     4.851111    8.085185   10.000000    ( 0.0000,  0.0000,  0.0000)
   8 Li     8.085185    8.085185   10.000000    ( 0.0000,  0.0000,  0.0000)
   9 Li     0.000000    0.000000   11.617037    ( 0.0000,  0.0000,  0.0000)
  10 Li     3.234074    0.000000   11.617037    ( 0.0000,  0.0000,  0.0000)
  11 Li     6.468148    0.000000   11.617037    ( 0.0000,  0.0000,  0.0000)
  12 Li     0.000000    3.234074   11.617037    ( 0.0000,  0.0000,  0.0000)
  13 Li     3.234074    3.234074   11.617037    ( 0.0000,  0.0000,  0.0000)
  14 Li     6.468148    3.234074   11.617037    ( 0.0000,  0.0000,  0.0000)
  15 Li     0.000000    6.468148   11.617037    ( 0.0000,  0.0000,  0.0000)
  16 Li     3.234074    6.468148   11.617037    ( 0.0000,  0.0000,  0.0000)
  17 Li     6.468148    6.468148   11.617037    ( 0.0000,  0.0000,  0.0000)
  18 Li     1.633268    1.635147   13.478455    ( 0.0000,  0.0000,  0.0000)
  19 Li     4.876610    1.594483   13.470190    ( 0.0000,  0.0000,  0.0000)
  20 Li     8.080651    1.596013   13.494932    ( 0.0000,  0.0000,  0.0000)
  21 Li     1.619742    4.879427   13.482865    ( 0.0000,  0.0000,  0.0000)
  22 Li     4.897454    4.822422   13.542822    ( 0.0000,  0.0000,  0.0000)
  23 Li     8.056807    4.830621   13.520592    ( 0.0000,  0.0000,  0.0000)
  24 Li     1.616938    8.052688   13.481047    ( 0.0000,  0.0000,  0.0000)
  25 Li     4.897216    8.059985   13.539603    ( 0.0000,  0.0000,  0.0000)
  26 Li     8.057169    8.065615   13.539472    ( 0.0000,  0.0000,  0.0000)
  27 Li     0.065430    0.012230   15.402862    ( 0.0000,  0.0000,  0.0000)
  28 Li     3.187235   -0.021926   15.393662    ( 0.0000,  0.0000,  0.0000)
  29 Li     6.500998   -0.058799   15.610145    ( 0.0000,  0.0000,  0.0000)
  30 Li     0.043180    3.262115   15.390546    ( 0.0000,  0.0000,  0.0000)
  31 Li     3.214050    3.261054   15.426780    ( 0.0000,  0.0000,  0.0000)
  32 Li     6.493824    3.069072   15.634831    ( 0.0000,  0.0000,  0.0000)
  33 Li     0.008651    6.478103   15.502529    ( 0.0000,  0.0000,  0.0000)
  34 Li     3.232990    6.463701   15.475672    ( 0.0000,  0.0000,  0.0000)
  35 Li     6.473730    6.368782   15.571973    ( 0.0000,  0.0000,  0.0000)
  36 O      8.643868    1.735807   20.007074    ( 0.0000,  0.0000,  0.0000)
  37 O      8.335190    4.488227   19.162335    ( 0.0000,  0.0000,  0.0000)
  38 C      9.756949    2.531889   19.562693    ( 0.0000,  0.0000,  0.0000)
  39 C      9.514689    4.013364   19.814968    ( 0.0000,  0.0000,  0.0000)
  40 H     10.690029    2.213022   20.043160    ( 0.0000,  0.0000,  0.0000)
  41 H      9.845594    2.339921   18.489926    ( 0.0000,  0.0000,  0.0000)
  42 H     10.349101    4.597348   19.416654    ( 0.0000,  0.0000,  0.0000)
  43 H      9.459071    4.199369   20.899370    ( 0.0000,  0.0000,  0.0000)
  44 H      8.697493    1.654374   20.966813    ( 0.0000,  0.0000,  0.0000)
  45 H      7.627803    3.863063   19.376191    ( 0.0000,  0.0000,  0.0000)
  46 N      6.440407    1.702231   17.120247    ( 0.0000,  0.0000,  0.0000)
  47 N      6.356516    0.819459   17.822117    ( 0.0000,  0.0000,  0.0000)

Unit cell:
           periodic     x           y           z      points  spacing
  1. axis:    yes    9.702222    0.000000    0.000000    60     0.1617
  2. axis:    yes    0.000000    9.702222    0.000000    60     0.1617
  3. axis:    no     0.000000    0.000000   26.601111   168     0.1583

  Lengths:   9.702222   9.702222  26.601111
  Angles:   90.000000  90.000000  90.000000

Effective grid spacing dv^(1/3) = 0.1606

     iter     time        total  log10-change:
                         energy  eigst   dens
iter:   1 21:57:00  -327.118163  -1.72
iter:   2 21:57:08  -327.112969  -2.03  -1.94
iter:   3 21:57:15  -327.099168c -3.06  -2.05
iter:   4 21:57:23  -327.098976c -3.45  -2.60
Writing to output.gpw (mode='')

iter:   5 21:57:30  -327.098424c -2.70  -2.64
iter:   6 21:57:38  -327.098248c -3.80  -2.91
iter:   7 21:57:45  -327.098143c -3.64  -3.11
iter:   8 21:57:53  -327.098192c -3.52  -3.18
iter:   9 21:58:00  -327.098111c -4.34  -3.26
Writing to output.gpw (mode='')

iter:  10 21:58:08  -327.098100c -4.61  -3.46
iter:  11 21:58:15  -327.098099c -4.91  -3.55
iter:  12 21:58:23  -327.098090c -4.64  -3.68
iter:  13 21:58:30  -327.098097c -5.40  -3.80
iter:  14 21:58:38  -327.098112c -5.26  -3.90
Writing to output.gpw (mode='')

iter:  15 21:58:45  -327.098104c -5.74  -4.06c
iter:  16 21:58:53  -327.098094c -5.73  -4.10c
iter:  17 21:59:00  -327.098098c -5.98  -4.24c
iter:  18 21:59:08  -327.098096c -6.05  -4.36c
iter:  19 21:59:15  -327.098093c -6.21  -4.54c
Writing to output.gpw (mode='')

iter:  20 21:59:22  -327.098094c -6.55  -4.63c
iter:  21 21:59:30  -327.098094c -6.65  -4.65c
iter:  22 21:59:43  -327.098098c -6.62  -4.70c
iter:  23 21:59:51  -327.098095c -6.83  -4.87c
iter:  24 21:59:58  -327.098094c -7.07  -5.00c
Writing to output.gpw (mode='')

iter:  25 22:00:06  -327.098095c -7.00  -5.05c
iter:  26 22:00:13  -327.098096c -7.30  -5.15c
iter:  27 22:00:21  -327.098095c -7.50c -5.18c

Converged after 27 iterations.

Dipole moment: (-1.789017, -3.900912, 0.339701) |e|*Ang

Energy contributions relative to reference atoms: (reference = -16475.706344)

Kinetic:       +159.776658
Potential:     -155.158947
External:        +0.000000
XC:            -332.757376
Entropy (-ST):   -0.152073
Local:           +1.117605
--------------------------
Free energy:   -327.174131
Extrapolated:  -327.098095

Dipole-layer corrected work functions: 3.404740, 2.751717 eV

Showing only first 2 kpts
 Kpt  Band  Eigenvalues  Occupancy
  0    34     -3.31111    1.98120
  0    35     -3.26443    1.95287
  0    36     -2.93030    0.09866
  0    37     -2.87585    0.03433

  1    34     -3.11685    1.36813
  1    35     -3.07281    0.94592
  1    36     -3.03820    0.61980
  1    37     -3.00511    0.37623


Fermi level: -3.07823

No gap
Writing to output.gpw (mode='')


Forces in eV/Ang:
  0 Li   -0.00465    0.00529   -0.27231
  1 Li   -0.01468    0.00502   -0.26209
  2 Li    0.01671    0.00154   -0.26345
  3 Li    0.00042    0.00203   -0.28317
  4 Li    0.00127    0.01497   -0.27038
  5 Li   -0.00235    0.01286   -0.27161
  6 Li   -0.00233    0.00163   -0.28177
  7 Li    0.00272   -0.01555   -0.27381
  8 Li   -0.00153   -0.01042   -0.27186
  9 Li    0.01179   -0.01979    0.29219
 10 Li   -0.00440   -0.02983    0.30167
 11 Li    0.01045   -0.02225    0.30353
 12 Li    0.01067    0.00333    0.28810
 13 Li    0.00007    0.01805    0.28436
 14 Li    0.00703    0.00299    0.28252
 15 Li   -0.04792   -0.00395    0.28405
 16 Li    0.05836   -0.01096    0.29435
 17 Li   -0.00103   -0.01222    0.23856
 18 Li   -0.00522   -0.01281    0.00010
 19 Li    0.00379    0.00883    0.01727
 20 Li   -0.01537    0.00596   -0.01117
 21 Li   -0.00061    0.00416   -0.00097
 22 Li   -0.00082   -0.01374    0.00814
 23 Li   -0.00618   -0.00618    0.01330
 24 Li   -0.00330    0.00821    0.00602
 25 Li    0.00097    0.00916    0.00265
 26 Li   -0.00340    0.00538    0.00712
 27 Li    0.00067   -0.00713   -0.00945
 28 Li   -0.00168    0.00307   -0.01055
 29 Li   -0.00363   -0.00513   -0.02243
 30 Li    0.00634    0.00008    0.00209
 31 Li   -0.01016   -0.00349   -0.01371
 32 Li    0.00818    0.00801    0.00674
 33 Li   -0.00271    0.00302   -0.01053
 34 Li    0.00765    0.00117   -0.00826
 35 Li   -0.00433    0.02077   -0.01317
 36 O    -0.00608   -0.01946   -0.00712
 37 O     0.00131    0.00223   -0.01728
 38 C    -0.00306    0.01040   -0.00527
 39 C     0.00034    0.00798   -0.00462
 40 H     0.00601   -0.00093    0.00310
 41 H    -0.01072    0.01007    0.00377
 42 H    -0.00582    0.01300   -0.01552
 43 H    -0.00423    0.00582   -0.01909
 44 H    -0.00950   -0.00905   -0.01348
 45 H     0.01590    0.00358   -0.01505
 46 N    -0.01650    0.02612   -0.00843
 47 N    -0.01292   -0.01835    0.03485

Timing:                                      incl.     excl.
-------------------------------------------------------------------
Density initialized from wave functions:     9.037     9.034   0.0% |
 Symmetrize density:                         0.003     0.003   0.0% |
Forces:                                     57.137    57.137   0.2% |
Hamiltonian:                               779.675     0.017   0.0% |
 Atomic:                                     0.029     0.029   0.0% |
  XC Correction:                             0.000     0.000   0.0% |
 Calculate atomic Hamiltonians:              0.050     0.050   0.0% |
 Communicate:                               10.056    10.056   0.0% |
 Hartree integrate/restrict:                 3.346     3.346   0.0% |
 Initialize Hamiltonian:                     0.000     0.000   0.0% |
 Poisson:                                   36.035    13.244   0.0% |
  Communicate from 1D:                       3.547     3.547   0.0% |
  Communicate from 2D:                       3.738     3.738   0.0% |
  Communicate to 1D:                         2.005     2.005   0.0% |
  Communicate to 2D:                         4.405     4.405   0.0% |
  FFT 1D:                                    4.611     4.611   0.0% |
  FFT 2D:                                    4.484     4.484   0.0% |
 XC 3D grid:                               729.568   111.834   0.3% |
  VdW-DF integral:                         617.734     5.119   0.0% |
   Convolution:                             54.677    54.677   0.2% |
   FFT:                                     23.784    23.784   0.1% |
   gather:                                 221.209   221.209   0.6% |
   hmm1:                                    20.088    20.088   0.1% |
   hmm2:                                    26.407    26.407   0.1% |
   iFFT:                                    24.603    24.603   0.1% |
   potential:                              238.237     6.438   0.0% |
    collect:                                37.356    37.356   0.1% |
    p1:                                    107.961   107.961   0.3% |
    p2:                                     40.071    40.071   0.1% |
    sum:                                    46.411    46.411   0.1% |
   splines:                                  3.610     3.610   0.0% |
 vbar:                                       0.574     0.574   0.0% |
LCAO initialization:                         1.130     0.183   0.0% |
 LCAO eigensolver:                           0.207     0.000   0.0% |
  Calculate projections:                     0.000     0.000   0.0% |
  DenseAtomicCorrection:                     0.000     0.000   0.0% |
  Distribute overlap matrix:                 0.191     0.191   0.0% |
  Orbital Layouts:                           0.015     0.015   0.0% |
  Potential matrix:                          0.001     0.001   0.0% |
  Sum over cells:                            0.001     0.001   0.0% |
 LCAO to grid:                               0.633     0.633   0.0% |
 Set positions (LCAO WFS):                   0.107     0.065   0.0% |
  Basic WFS set positions:                   0.001     0.001   0.0% |
  Basis functions set positions:             0.000     0.000   0.0% |
  P tci:                                     0.000     0.000   0.0% |
  ST tci:                                    0.011     0.011   0.0% |
  mktci:                                     0.030     0.030   0.0% |
Redistribute:                                0.082     0.082   0.0% |
SCF-cycle:                               33648.904   550.241   1.6% ||
 Davidson:                                9172.332  2759.369   8.0% |--|
  Apply hamiltonian:                       577.161   577.161   1.7% ||
  Subspace diag:                          1691.676     0.517   0.0% |
   calc_h_matrix:                          845.342   259.116   0.7% |
    Apply hamiltonian:                     586.226   586.226   1.7% ||
   diagonalize:                             88.013    88.013   0.3% |
   rotate_psi:                             757.804   757.804   2.2% ||
  calc. matrices:                         2870.488  1473.160   4.3% |-|
   Apply hamiltonian:                     1397.328  1397.328   4.0% |-|
  diagonalize:                              26.568    26.568   0.1% |
  rotate_psi:                             1247.069  1247.069   3.6% ||
 Density:                                  164.159     0.107   0.0% |
  Atomic density matrices:                  18.360    18.360   0.1% |
  Mix:                                      68.806    68.806   0.2% |
  Multipole moments:                         9.069     9.069   0.0% |
  Pseudo density:                           67.816    67.724   0.2% |
   Symmetrize density:                       0.093     0.093   0.0% |
 Hamiltonian:                            23735.872     0.511   0.0% |
  Atomic:                                    1.035     1.026   0.0% |
   XC Correction:                            0.010     0.010   0.0% |
  Calculate atomic Hamiltonians:             1.670     1.670   0.0% |
  Communicate:                             328.913   328.913   0.9% |
  Hartree integrate/restrict:              103.859   103.859   0.3% |
  Poisson:                                1122.512   414.091   1.2% |
   Communicate from 1D:                    109.869   109.869   0.3% |
   Communicate from 2D:                    116.013   116.013   0.3% |
   Communicate to 1D:                       62.991    62.991   0.2% |
   Communicate to 2D:                      137.266   137.266   0.4% |
   FFT 1D:                                 142.325   142.325   0.4% |
   FFT 2D:                                 139.958   139.958   0.4% |
  XC 3D grid:                            22159.670  3453.803  10.0% |---|
   VdW-DF integral:                      18705.867   157.146   0.5% |
    Convolution:                          1695.405  1695.405   4.9% |-|
    FFT:                                   737.062   737.062   2.1% ||
    gather:                               6499.852  6499.852  18.8% |-------|
    hmm1:                                  614.395   614.395   1.8% ||
    hmm2:                                  814.577   814.577   2.4% ||
    iFFT:                                  759.263   759.263   2.2% ||
    potential:                            7428.125   200.558   0.6% |
     collect:                             1131.162  1131.162   3.3% ||
     p1:                                  3332.687  3332.687   9.6% |---|
     p2:                                  1251.852  1251.852   3.6% ||
     sum:                                 1511.866  1511.866   4.4% |-|
    splines:                                 0.043     0.043   0.0% |
  vbar:                                     17.700    17.700   0.1% |
 Orthonormalize:                            26.301     0.018   0.0% |
  calc_s_matrix:                             3.815     3.815   0.0% |
  inverse-cholesky:                          7.945     7.945   0.0% |
  projections:                               0.003     0.003   0.0% |
  rotate_psi_s:                             14.520    14.520   0.0% |
Set symmetry:                                0.011     0.011   0.0% |
Other:                                     153.886   153.886   0.4% |
-------------------------------------------------------------------
Total:                                             34649.862 100.0%

Memory usage: 1.14 GiB
Date: Fri Mar 10 22:00:21 2023
