
  ___ ___ ___ _ _ _  
 |   |   |_  | | | | 
 | | | | | . | | | | 
 |__ |  _|___|_____|  22.8.0
 |___|_|             

User:   vazumah@r088.ib.bridges2.psc.edu
Date:   Fri Mar 10 21:52:35 2023
Arch:   x86_64
Pid:    25162
CWD:    /jet/home/vazumah/Calcs/LiMEAS/proton_donors/propanediol13_y/ontop/9.702_9.702/N2_x
Python: 3.11.0
gpaw:   /jet/home/vazumah/.conda/envs/GPAW_mpich/lib/python3.11/site-packages/gpaw
_gpaw:  /jet/home/vazumah/.conda/envs/GPAW_mpich/lib/python3.11/site-packages/
        _gpaw.cpython-311-x86_64-linux-gnu.so
ase:    /jet/home/vazumah/.conda/envs/GPAW_mpich/lib/python3.11/site-packages/ase (version 3.22.1)
numpy:  /jet/home/vazumah/.conda/envs/GPAW_mpich/lib/python3.11/site-packages/numpy (version 1.24.2)
scipy:  /jet/home/vazumah/.conda/envs/GPAW_mpich/lib/python3.11/site-packages/scipy (version 1.10.1)
libxc:  5.2.3
units:  Angstrom and eV
cores: 128
OpenMP: True
OMP_NUM_THREADS: 1

Input parameters:
  h: 0.16
  kpts: {size: [4, 4, 1]}
  occupations: {name: fermi-dirac,
                width: 0.05}
  poissonsolver: {dipolelayer: xy}
  xc: BEEF-vdW

System changes: positions, numbers, cell, pbc, initial_charges, initial_magmoms 

Initialize ...

species:
  Li:
    name: Lithium
    id: 830b4218f175192f93f959cfc0aad614
    Z: 3.0
    valence: 1
    core: 2
    charge: 0.0
    file: /jet/home/vazumah/datasets/gpaw-setups-0.9.20000/Li.PBE.gz
    compensation charges: {type: gauss,
                           rc: 0.33,
                           lmax: 2}
    cutoffs: {filter: 1.91,
              core: 2.55}
    valence states:
      #              energy  rcut
      - 2s(1.00)    -2.874   1.058
      - 2p(0.00)    -1.090   1.058
      -  s          24.337   1.058
  
    # Using partial waves for Li as LCAO basis

  O:
    name: Oxygen
    id: 32ecd46bf208036f09c70b0ec9a88b78
    Z: 8.0
    valence: 6
    core: 2
    charge: 0.0
    file: /jet/home/vazumah/datasets/gpaw-setups-0.9.20000/O.PBE.gz
    compensation charges: {type: gauss,
                           rc: 0.21,
                           lmax: 2}
    cutoffs: {filter: 1.17,
              core: 0.83}
    valence states:
      #              energy  rcut
      - 2s(2.00)   -23.961   0.688
      - 2p(4.00)    -9.029   0.598
      -  s           3.251   0.688
      -  p          18.182   0.598
      -  d           0.000   0.619
  
    # Using partial waves for O as LCAO basis

  C:
    name: Carbon
    id: 4aa54d4b901d75f77cc0ea3eec22967b
    Z: 6.0
    valence: 4
    core: 2
    charge: 0.0
    file: /jet/home/vazumah/datasets/gpaw-setups-0.9.20000/C.PBE.gz
    compensation charges: {type: gauss,
                           rc: 0.20,
                           lmax: 2}
    cutoffs: {filter: 1.14,
              core: 1.14}
    valence states:
      #              energy  rcut
      - 2s(2.00)   -13.751   0.635
      - 2p(2.00)    -5.284   0.635
      -  s          13.461   0.635
      -  p          21.927   0.635
      -  d           0.000   0.635
  
    # Using partial waves for C as LCAO basis

  H:
    name: Hydrogen
    id: d65de229564ff8ea4db303e23b6d1ecf
    Z: 1.0
    valence: 1
    core: 0
    charge: 0.0
    file: /jet/home/vazumah/datasets/gpaw-setups-0.9.20000/H.PBE.gz
    compensation charges: {type: gauss,
                           rc: 0.15,
                           lmax: 2}
    cutoffs: {filter: 0.85,
              core: 0.53}
    valence states:
      #              energy  rcut
      - 1s(1.00)    -6.494   0.476
      -  s          20.717   0.476
      -  p           0.000   0.476
  
    # Using partial waves for H as LCAO basis

  N:
    name: Nitrogen
    id: f7500608b86eaa90eef8b1d9a670dc53
    Z: 7.0
    valence: 5
    core: 2
    charge: 0.0
    file: /jet/home/vazumah/datasets/gpaw-setups-0.9.20000/N.PBE.gz
    compensation charges: {type: gauss,
                           rc: 0.18,
                           lmax: 2}
    cutoffs: {filter: 1.11,
              core: 0.96}
    valence states:
      #              energy  rcut
      - 2s(2.00)   -18.583   0.603
      - 2p(3.00)    -7.089   0.529
      -  s           8.629   0.603
      -  p          20.123   0.529
      -  d           0.000   0.577
  
    # Using partial waves for N as LCAO basis

Reference energy: -17528.314784  # eV

Spin-paired calculation

Convergence criteria:
 Maximum [total energy] change in last 3 cyles: 0.0005 eV / electron
 Maximum integral of absolute [dens]ity change: 0.0001 electrons / valence electron
 Maximum integral of absolute [eigenst]ate change: 4e-08 eV^2 / valence electron
 Maximum number of scf [iter]ations: 333
 (Square brackets indicate name in SCF output, whereas a 'c' in
 the SCF output indicates the quantity has converged.)

Symmetries present (total): 1

  ( 1  0  0)
  ( 0  1  0)
  ( 0  0  1)

16 k-points: 4 x 4 x 1 Monkhorst-Pack grid
8 k-points in the irreducible part of the Brillouin zone
       k-points in crystal coordinates                weights
   0:     0.12500000   -0.37500000    0.00000000          2/16
   1:     0.12500000   -0.12500000    0.00000000          2/16
   2:     0.12500000    0.12500000    0.00000000          2/16
   3:     0.12500000    0.37500000    0.00000000          2/16
   4:     0.37500000   -0.37500000    0.00000000          2/16
   5:     0.37500000   -0.12500000    0.00000000          2/16
   6:     0.37500000    0.12500000    0.00000000          2/16
   7:     0.37500000    0.37500000    0.00000000          2/16

Wave functions: Uniform real-space grid
  Kinetic energy operator: 6*3+1=19 point O(h^6) finite-difference Laplacian
  ScaLapack parameters: grid=1x1, blocksize=None
  Wavefunction extrapolation:
    Improved wavefunction reuse through dual PAW basis 

Occupation numbers: Fermi-Dirac:
  width: 0.0500  # eV
 

Eigensolver
   Davidson(niter=2) 

Densities:
  Coarse grid: 60*60*176 grid
  Fine grid: 120*120*352 grid
  Total Charge: 0.000000 

Density mixing:
  Method: separate
  Backend: pulay
  Linear mixing parameter: 0.05
  old densities: 5
  Damping of long wavelength oscillations: 50 

Hamiltonian:
  XC and Coulomb potentials evaluated on a 120*120*352 grid
  Using the BEEF-vdW Exchange-Correlation functional
  Interpolation: tri-quintic (5. degree polynomial)
  Poisson solver: FastPoissonSolver using
    Stencil: 6*3+1=19 point O(h^6) finite-difference Laplacian
    FFT axes: [0, 1]
    FST axes: [2]

Dipole correction along z-axis 

XC parameters: BEEF-vdW with 2 nearest neighbor stencil

Memory estimate:
  Process memory now: 129.81 MiB
  Calculator: 93.74 MiB
    Density: 23.40 MiB
      Arrays: 7.76 MiB
      Localized functions: 12.69 MiB
      Mixer: 2.95 MiB
    Hamiltonian: 6.08 MiB
      Arrays: 5.07 MiB
      XC: 0.00 MiB
      Poisson: 0.00 MiB
      vbar: 1.00 MiB
    Wavefunctions: 64.26 MiB
      Arrays psit_nG: 30.12 MiB
      Eigensolver: 33.47 MiB
      Projections: 0.02 MiB
      Projectors: 0.67 MiB

Total number of cores used: 128
Parallelization over k-points: 8
Domain decomposition: 2 x 2 x 4

Number of atoms: 51
Number of atomic orbitals: 180
Number of bands in calculation: 51
Number of valence electrons: 78
Bands to converge: occupied

... initialized

Initializing position-dependent things.

Density initialized from atomic densities
Creating initial wave functions:
  51 bands from LCAO basis set

       .-----------------------.  
      /|                       |  
     / |                       |  
    /  |                       |  
   /   |                       |  
  /    |                       |  
 *     |                       |  
 |     |                       |  
 |     |                       |  
 |     |                       |  
 |     |                       |  
 |     |                       |  
 |     |                   H   |  
 |     H                 H  C  |  
 |     |                   HN CN  
 |     H                   CO  |  
 |   H |                 H     |  
 |     |                       |  
 O   Li|     Li      Li H      |  
 |     |  Li      Li      Li   |  
 | Li  |   Li      Li          |  
 |     |Li      Li      Li     |  
 Li    | Li      Li            |  
 |   LLi     LLi     LLi       |  
 |     |  Li      Li      Li   |  
 | Li  |   Li      Li          |  
 |     |Li      Li      Li     |  
 Li    | Li      Li            |  
 |    Li      Li      Li       |  
 |     |                       |  
 |     |                       |  
 |     |                       |  
 |     |                       |  
 |     |                       |  
 |     |                       |  
 |     .-----------------------.  
 |    /                       /   
 |   /                       /    
 |  /                       /     
 | /                       /      
 |/                       /       
 *-----------------------*        

Positions:
   0 Li     1.617037    1.617037   10.000000    ( 0.0000,  0.0000,  0.0000)
   1 Li     4.851111    1.617037   10.000000    ( 0.0000,  0.0000,  0.0000)
   2 Li     8.085185    1.617037   10.000000    ( 0.0000,  0.0000,  0.0000)
   3 Li     1.617037    4.851111   10.000000    ( 0.0000,  0.0000,  0.0000)
   4 Li     4.851111    4.851111   10.000000    ( 0.0000,  0.0000,  0.0000)
   5 Li     8.085185    4.851111   10.000000    ( 0.0000,  0.0000,  0.0000)
   6 Li     1.617037    8.085185   10.000000    ( 0.0000,  0.0000,  0.0000)
   7 Li     4.851111    8.085185   10.000000    ( 0.0000,  0.0000,  0.0000)
   8 Li     8.085185    8.085185   10.000000    ( 0.0000,  0.0000,  0.0000)
   9 Li     0.000000    0.000000   11.617037    ( 0.0000,  0.0000,  0.0000)
  10 Li     3.234074    0.000000   11.617037    ( 0.0000,  0.0000,  0.0000)
  11 Li     6.468148    0.000000   11.617037    ( 0.0000,  0.0000,  0.0000)
  12 Li     0.000000    3.234074   11.617037    ( 0.0000,  0.0000,  0.0000)
  13 Li     3.234074    3.234074   11.617037    ( 0.0000,  0.0000,  0.0000)
  14 Li     6.468148    3.234074   11.617037    ( 0.0000,  0.0000,  0.0000)
  15 Li     0.000000    6.468148   11.617037    ( 0.0000,  0.0000,  0.0000)
  16 Li     3.234074    6.468148   11.617037    ( 0.0000,  0.0000,  0.0000)
  17 Li     6.468148    6.468148   11.617037    ( 0.0000,  0.0000,  0.0000)
  18 Li     1.617038    1.617038   13.469728    ( 0.0000,  0.0000,  0.0000)
  19 Li     4.851111    1.617038   13.469729    ( 0.0000,  0.0000,  0.0000)
  20 Li     8.085184    1.617038   13.469728    ( 0.0000,  0.0000,  0.0000)
  21 Li     1.617038    4.851111   13.469729    ( 0.0000,  0.0000,  0.0000)
  22 Li     4.851111    4.851111   13.469730    ( 0.0000,  0.0000,  0.0000)
  23 Li     8.085184    4.851111   13.469729    ( 0.0000,  0.0000,  0.0000)
  24 Li     1.617038    8.085184   13.469728    ( 0.0000,  0.0000,  0.0000)
  25 Li     4.851111    8.085184   13.469729    ( 0.0000,  0.0000,  0.0000)
  26 Li     8.085184    8.085184   13.469728    ( 0.0000,  0.0000,  0.0000)
  27 Li    -0.000000   -0.000000   15.445939    ( 0.0000,  0.0000,  0.0000)
  28 Li     3.234074    0.000000   15.445939    ( 0.0000,  0.0000,  0.0000)
  29 Li     6.468148    0.000000   15.445939    ( 0.0000,  0.0000,  0.0000)
  30 Li     0.000000    3.234074   15.445939    ( 0.0000,  0.0000,  0.0000)
  31 Li     3.234076    3.234076   15.445938    ( 0.0000,  0.0000,  0.0000)
  32 Li     6.468146    3.234076   15.445938    ( 0.0000,  0.0000,  0.0000)
  33 Li     0.000000    6.468148   15.445939    ( 0.0000,  0.0000,  0.0000)
  34 Li     3.234076    6.468146   15.445938    ( 0.0000,  0.0000,  0.0000)
  35 Li     6.468146    6.468146   15.445938    ( 0.0000,  0.0000,  0.0000)
  36 O      9.702222    9.702222   18.445939    ( 0.0000,  0.0000,  0.0000)
  37 O      9.681893    4.839880   18.439829    ( 0.0000,  0.0000,  0.0000)
  38 C      9.700677    7.306307   18.460386    ( 0.0000,  0.0000,  0.0000)
  39 C      8.834403    8.557352   18.448818    ( 0.0000,  0.0000,  0.0000)
  40 C      8.870410    6.023691   18.436457    ( 0.0000,  0.0000,  0.0000)
  41 H     10.361184    7.328390   17.585726    ( 0.0000,  0.0000,  0.0000)
  42 H     10.337788    7.306449   19.348391    ( 0.0000,  0.0000,  0.0000)
  43 H      8.194144    8.562282   17.555271    ( 0.0000,  0.0000,  0.0000)
  44 H      8.185725    8.570894   19.335503    ( 0.0000,  0.0000,  0.0000)
  45 H      8.194844    6.022990   17.569134    ( 0.0000,  0.0000,  0.0000)
  46 H      8.254319    5.946842   19.336560    ( 0.0000,  0.0000,  0.0000)
  47 H      9.157865   10.497747   18.441073    ( 0.0000,  0.0000,  0.0000)
  48 H     10.256933    4.872463   17.665312    ( 0.0000,  0.0000,  0.0000)
  49 N      9.702000    9.702000   16.945939    ( 0.0000,  0.0000,  0.0000)
  50 N      8.605378    9.702000   16.945939    ( 0.0000,  0.0000,  0.0000)

Unit cell:
           periodic     x           y           z      points  spacing
  1. axis:    yes    9.702222    0.000000    0.000000    60     0.1617
  2. axis:    yes    0.000000    9.702222    0.000000    60     0.1617
  3. axis:    no     0.000000    0.000000   28.351111   176     0.1611

  Lengths:   9.702222   9.702222  28.351111
  Angles:   90.000000  90.000000  90.000000

Effective grid spacing dv^(1/3) = 0.1615

     iter     time        total  log10-change:
                         energy  eigst   dens
iter:   1 21:52:51  -666.484559
iter:   2 21:53:03   -65.804046  +2.72  +0.02
iter:   3 21:53:21  -115.713530  +3.15  -0.21
iter:   4 21:53:32  -262.637544  +3.05  -0.34
Writing to output.gpw (mode='')

iter:   5 21:53:42  -303.530410  +2.59  -0.42
iter:   6 21:53:50  -349.382492  +2.32  -0.66
iter:   7 21:53:57  -365.195073  +2.00  -0.63
iter:   8 21:54:05  -365.861892  +1.61  -0.58
iter:   9 21:54:13  -363.109085  +1.37  -0.59
Writing to output.gpw (mode='')

iter:  10 21:54:21  -353.208835  +1.01  -0.68
iter:  11 21:54:29  -375.370333  +1.39  -0.71
iter:  12 21:54:37  -441.330559  +2.26  -0.66
iter:  13 21:54:45  -349.878808  +1.19  -0.44
iter:  14 21:54:53  -346.448362  +1.12  -0.81
Writing to output.gpw (mode='')

iter:  15 21:55:01  -346.382133  +0.93  -0.78
iter:  16 21:55:09  -344.232530  +0.72  -0.80
iter:  17 21:55:16  -343.956535  +0.77  -0.94
iter:  18 21:55:24  -343.141430  +0.21  -1.04
iter:  19 21:55:32  -342.683437  +0.44  -1.12
Writing to output.gpw (mode='')

iter:  20 21:55:40  -342.640773  -0.25  -1.24
iter:  21 21:55:48  -342.576718  -0.41  -1.32
iter:  22 21:55:56  -342.492264  -0.39  -1.38
iter:  23 21:56:04  -342.463042  -0.55  -1.55
iter:  24 21:56:12  -342.464467c -0.91  -1.67
Writing to output.gpw (mode='')

iter:  25 21:56:20  -342.470825c -1.06  -1.70
iter:  26 21:56:28  -342.473691c -1.45  -1.71
iter:  27 21:56:36  -342.453763c -1.24  -1.75
iter:  28 21:56:44  -342.451224c -1.41  -2.02
iter:  29 21:56:52  -342.453807c -1.50  -2.24
Writing to output.gpw (mode='')

iter:  30 21:57:00  -342.455922c -1.81  -2.35
iter:  31 21:57:07  -342.457470c -1.76  -2.40
iter:  32 21:57:15  -342.459020c -1.96  -2.49
iter:  33 21:57:23  -342.459589c -2.16  -2.57
iter:  34 21:57:31  -342.461064c -2.22  -2.68
Writing to output.gpw (mode='')

iter:  35 21:57:39  -342.461370c -2.39  -2.86
iter:  36 21:57:47  -342.461794c -2.55  -2.96
iter:  37 21:57:55  -342.462215c -2.65  -3.02
iter:  38 21:58:03  -342.462520c -2.67  -3.23
iter:  39 21:58:17  -342.462842c -2.84  -3.27
Writing to output.gpw (mode='')

iter:  40 21:58:26  -342.463127c -2.83  -3.32
iter:  41 21:58:33  -342.463358c -3.09  -3.36
iter:  42 21:58:41  -342.463450c -3.36  -3.40
iter:  43 21:58:49  -342.463589c -3.31  -3.48
iter:  44 21:58:57  -342.463758c -3.32  -3.61
Writing to output.gpw (mode='')

iter:  45 21:59:05  -342.463854c -3.49  -3.72
iter:  46 21:59:13  -342.463916c -3.51  -3.84
iter:  47 21:59:21  -342.463961c -3.76  -4.05c
iter:  48 21:59:29  -342.464012c -3.68  -4.06c
iter:  49 21:59:37  -342.464044c -3.64  -4.17c
Writing to output.gpw (mode='')

iter:  50 21:59:45  -342.464069c -3.88  -4.21c
iter:  51 21:59:53  -342.464097c -3.91  -4.17c
iter:  52 22:00:01  -342.464125c -4.15  -4.12c
iter:  53 22:00:09  -342.464136c -4.21  -4.15c
iter:  54 22:00:17  -342.464150c -4.30  -4.18c
Writing to output.gpw (mode='')

iter:  55 22:00:25  -342.464165c -4.26  -4.11c
iter:  56 22:00:33  -342.464171c -4.38  -4.09c
iter:  57 22:00:40  -342.464177c -4.61  -4.13c
iter:  58 22:00:48  -342.464181c -4.62  -4.08c
iter:  59 22:00:56  -342.464185c -4.59  -4.12c
Writing to output.gpw (mode='')

iter:  60 22:01:04  -342.464186c -4.71  -4.21c
iter:  61 22:01:12  -342.464186c -4.66  -4.25c
iter:  62 22:01:20  -342.464186c -5.00  -4.39c
iter:  63 22:01:28  -342.464191c -5.13  -4.57c
iter:  64 22:01:36  -342.464192c -5.15  -4.69c
Writing to output.gpw (mode='')

iter:  65 22:01:44  -342.464193c -5.00  -4.74c
iter:  66 22:01:52  -342.464192c -4.99  -4.94c
iter:  67 22:02:00  -342.464193c -5.13  -5.02c
iter:  68 22:02:08  -342.464194c -5.18  -5.02c
iter:  69 22:02:16  -342.464195c -5.47  -4.94c
Writing to output.gpw (mode='')

iter:  70 22:02:24  -342.464196c -5.43  -5.11c
iter:  71 22:02:32  -342.464196c -5.56  -5.19c
iter:  72 22:02:40  -342.464196c -5.73  -5.19c
iter:  73 22:02:48  -342.464197c -5.60  -5.14c
iter:  74 22:02:55  -342.464197c -5.58  -5.17c
Writing to output.gpw (mode='')

iter:  75 22:03:03  -342.464197c -5.71  -5.16c
iter:  76 22:03:18  -342.464197c -5.74  -5.16c
iter:  77 22:03:26  -342.464197c -5.93  -5.12c
iter:  78 22:03:34  -342.464197c -6.07  -5.05c
iter:  79 22:03:42  -342.464197c -6.00  -5.09c
Writing to output.gpw (mode='')

iter:  80 22:03:50  -342.464196c -6.13  -5.13c
iter:  81 22:03:58  -342.464197c -6.15  -5.24c
iter:  82 22:04:06  -342.464197c -6.12  -5.25c
iter:  83 22:04:14  -342.464196c -6.36  -5.34c
iter:  84 22:04:22  -342.464196c -6.41  -5.48c
Writing to output.gpw (mode='')

iter:  85 22:04:30  -342.464196c -6.52  -5.64c
iter:  86 22:04:38  -342.464196c -6.46  -5.70c
iter:  87 22:04:45  -342.464197c -6.45  -5.83c
iter:  88 22:04:53  -342.464196c -6.56  -5.93c
iter:  89 22:05:01  -342.464196c -6.63  -5.98c
Writing to output.gpw (mode='')

iter:  90 22:05:09  -342.464196c -6.61  -6.01c
iter:  91 22:05:17  -342.464196c -6.79  -6.06c
iter:  92 22:05:25  -342.464196c -6.84  -6.30c
iter:  93 22:05:33  -342.464196c -6.85  -6.28c
iter:  94 22:05:41  -342.464196c -6.83  -6.34c
Writing to output.gpw (mode='')

iter:  95 22:05:49  -342.464196c -6.91  -6.32c
iter:  96 22:05:57  -342.464196c -6.93  -6.26c
iter:  97 22:06:05  -342.464196c -7.03  -6.12c
iter:  98 22:06:13  -342.464196c -7.05  -6.11c
iter:  99 22:06:21  -342.464196c -7.09  -6.04c
Writing to output.gpw (mode='')

iter: 100 22:06:29  -342.464196c -7.12  -6.00c
iter: 101 22:06:37  -342.464196c -7.21  -5.97c
iter: 102 22:06:45  -342.464196c -7.28  -5.99c
iter: 103 22:06:53  -342.464196c -7.31  -5.92c
iter: 104 22:07:01  -342.464196c -7.38  -5.93c
Writing to output.gpw (mode='')

iter: 105 22:07:08  -342.464196c -7.47c -6.04c

Converged after 105 iterations.

Dipole moment: (-9.538749, -13.587409, 0.294099) |e|*Ang

Energy contributions relative to reference atoms: (reference = -17528.314784)

Kinetic:       +231.518921
Potential:     -207.345537
External:        +0.000000
XC:            -367.754828
Entropy (-ST):   -0.153842
Local:           +1.194168
--------------------------
Free energy:   -342.541117
Extrapolated:  -342.464196

Dipole-layer corrected work functions: 3.387626, 2.822268 eV

Showing only first 2 kpts
 Kpt  Band  Eigenvalues  Occupancy
  0    37     -3.34817    1.98469
  0    38     -3.26298    1.91865
  0    39     -2.98338    0.16162
  0    40     -2.89459    0.02934

  1    37     -3.15928    1.49550
  1    38     -3.13583    1.29934
  1    39     -3.04324    0.45091
  1    40     -2.99469    0.19857


Fermi level: -3.10495

Gap: 0.028 eV
Transition (v -> c):
  (s=0, k=2, n=38, [0.12, 0.12, 0.00]) -> (s=0, k=4, n=39, [0.38, -0.38, 0.00])

Forces in eV/Ang:
  0 Li    0.01130    0.01150   -0.27745
  1 Li   -0.00210   -0.00437   -0.26917
  2 Li   -0.00832    0.01036   -0.28137
  3 Li   -0.00515   -0.00155   -0.26229
  4 Li   -0.00375    0.00116   -0.28242
  5 Li    0.00513   -0.00011   -0.26288
  6 Li    0.01246   -0.01017   -0.27683
  7 Li    0.00048    0.00448   -0.26526
  8 Li   -0.00987   -0.01050   -0.27613
  9 Li   -0.00693    0.00381    0.34522
 10 Li    0.00547   -0.00273    0.24963
 11 Li   -0.00412   -0.00234    0.27168
 12 Li    0.00310    0.01676    0.24948
 13 Li    0.00417   -0.00451    0.26221
 14 Li   -0.00287    0.00589    0.26275
 15 Li    0.00086   -0.01820    0.25236
 16 Li    0.00368    0.00624    0.25882
 17 Li   -0.00255   -0.00506    0.25772
 18 Li    0.00771    0.01138   -0.03801
 19 Li    0.00751   -0.02164    0.06614
 20 Li   -0.01112    0.04243   -0.08783
 21 Li   -0.01093   -0.00026    0.11400
 22 Li   -0.00091   -0.00023   -0.00391
 23 Li    0.00942    0.00264    0.07266
 24 Li   -0.00327   -0.01118   -0.02767
 25 Li    0.01473    0.02185    0.08739
 26 Li   -0.01273   -0.04581   -0.05635
 27 Li    0.74390   -0.01655   -7.04559
 28 Li    0.06048   -0.00174   -0.03517
 29 Li    0.22850    0.03526    0.12539
 30 Li    0.01393    0.08913   -0.09562
 31 Li   -0.00670    0.03803   -0.00859
 32 Li   -0.04721    0.03567   -0.03536
 33 Li    0.03947   -0.12302   -0.33785
 34 Li    0.02250   -0.03693   -0.03063
 35 Li   -0.09681   -0.03700   -0.12457
 36 O     4.32097   -0.56919   10.63778
 37 O    -0.40256    0.20985    0.42950
 38 C     0.21363    0.09413    0.24988
 39 C    -0.69795   -4.50365    5.50153
 40 C     0.01033   -0.22575    0.31841
 41 H     0.18770   -0.00716   -0.00869
 42 H     0.16008   -0.04811   -0.07761
 43 H    -0.73225   -1.58756    1.51448
 44 H     0.17004    0.23857   -0.02902
 45 H    -0.08117   -0.02043   -0.07946
 46 H    -0.05125    0.03435   -0.05043
 47 H    -0.43842    0.64869    1.28869
 48 H     0.35788   -0.06182   -0.43586
 49 N     8.75783    1.14857   -0.73190
 50 N   -12.83764    4.65429  -10.99854

System changes: positions 

Initializing position-dependent things.

Density initialized from wave functions
       .-----------------------.  
      /|                       |  
     / |                       |  
    /  |                       |  
   /   |                       |  
  /    |                       |  
 *     |                       |  
 |     |                       |  
 |     |                       |  
 |     |                       |  
 |     |                       |  
 |     |                       |  
 |     O                   H   |  
 |     H                 H  C  |  
 |     |                   H  C|  
 |     H                   CO  |  
 |   H Li      Li        H     |  
 |     |                       |  
 |   Li|     Li      Li H      |  
 |     |  Li      Li      Li   |  
 N Li  |   Li      Li N        |  
 |     |Li      Li      Li     |  
 |     |         Li            |  
 |   LLi     LLi     LLi       |  
 |     |  Li      Li      Li   |  
 | Li  |   Li      Li          |  
 |     |Li      Li      Li     |  
 Li    | Li      Li            |  
 |    Li      Li      Li       |  
 |     |                       |  
 |     |                       |  
 |     |                       |  
 |     |                       |  
 |     |                       |  
 |     |                       |  
 |     .-----------------------.  
 |    /                       /   
 |   /                       /    
 |  /                       /     
 | /                       /      
 |/                       /       
 *-----------------------*        

Positions:
   0 Li     1.617037    1.617037   10.000000    ( 0.0000,  0.0000,  0.0000)
   1 Li     4.851111    1.617037   10.000000    ( 0.0000,  0.0000,  0.0000)
   2 Li     8.085185    1.617037   10.000000    ( 0.0000,  0.0000,  0.0000)
   3 Li     1.617037    4.851111   10.000000    ( 0.0000,  0.0000,  0.0000)
   4 Li     4.851111    4.851111   10.000000    ( 0.0000,  0.0000,  0.0000)
   5 Li     8.085185    4.851111   10.000000    ( 0.0000,  0.0000,  0.0000)
   6 Li     1.617037    8.085185   10.000000    ( 0.0000,  0.0000,  0.0000)
   7 Li     4.851111    8.085185   10.000000    ( 0.0000,  0.0000,  0.0000)
   8 Li     8.085185    8.085185   10.000000    ( 0.0000,  0.0000,  0.0000)
   9 Li     0.000000    0.000000   11.617037    ( 0.0000,  0.0000,  0.0000)
  10 Li     3.234074    0.000000   11.617037    ( 0.0000,  0.0000,  0.0000)
  11 Li     6.468148    0.000000   11.617037    ( 0.0000,  0.0000,  0.0000)
  12 Li     0.000000    3.234074   11.617037    ( 0.0000,  0.0000,  0.0000)
  13 Li     3.234074    3.234074   11.617037    ( 0.0000,  0.0000,  0.0000)
  14 Li     6.468148    3.234074   11.617037    ( 0.0000,  0.0000,  0.0000)
  15 Li     0.000000    6.468148   11.617037    ( 0.0000,  0.0000,  0.0000)
  16 Li     3.234074    6.468148   11.617037    ( 0.0000,  0.0000,  0.0000)
  17 Li     6.468148    6.468148   11.617037    ( 0.0000,  0.0000,  0.0000)
  18 Li     1.617056    1.617064   13.469641    ( 0.0000,  0.0000,  0.0000)
  19 Li     4.851128    1.616989   13.469880    ( 0.0000,  0.0000,  0.0000)
  20 Li     8.085159    1.617135   13.469527    ( 0.0000,  0.0000,  0.0000)
  21 Li     1.617014    4.851110   13.469990    ( 0.0000,  0.0000,  0.0000)
  22 Li     4.851109    4.851110   13.469721    ( 0.0000,  0.0000,  0.0000)
  23 Li     8.085205    4.851117   13.469895    ( 0.0000,  0.0000,  0.0000)
  24 Li     1.617031    8.085158   13.469665    ( 0.0000,  0.0000,  0.0000)
  25 Li     4.851145    8.085233   13.469929    ( 0.0000,  0.0000,  0.0000)
  26 Li     8.085155    8.085079   13.469599    ( 0.0000,  0.0000,  0.0000)
  27 Li     0.001697   -0.000038   15.429866    ( 0.0000,  0.0000,  0.0000)
  28 Li     3.234212   -0.000004   15.445859    ( 0.0000,  0.0000,  0.0000)
  29 Li     6.468670    0.000080   15.446225    ( 0.0000,  0.0000,  0.0000)
  30 Li     0.000032    3.234277   15.445721    ( 0.0000,  0.0000,  0.0000)
  31 Li     3.234061    3.234163   15.445918    ( 0.0000,  0.0000,  0.0000)
  32 Li     6.468038    3.234158   15.445857    ( 0.0000,  0.0000,  0.0000)
  33 Li     0.000090    6.467868   15.445168    ( 0.0000,  0.0000,  0.0000)
  34 Li     3.234128    6.468061   15.445868    ( 0.0000,  0.0000,  0.0000)
  35 Li     6.467925    6.468061   15.445654    ( 0.0000,  0.0000,  0.0000)
  36 O      9.712079    9.700924   18.470207    ( 0.0000,  0.0000,  0.0000)
  37 O      9.680975    4.840359   18.440809    ( 0.0000,  0.0000,  0.0000)
  38 C      9.701165    7.306522   18.460956    ( 0.0000,  0.0000,  0.0000)
  39 C      8.832810    8.547078   18.461369    ( 0.0000,  0.0000,  0.0000)
  40 C      8.870434    6.023176   18.437184    ( 0.0000,  0.0000,  0.0000)
  41 H     10.361612    7.328374   17.585706    ( 0.0000,  0.0000,  0.0000)
  42 H     10.338154    7.306339   19.348214    ( 0.0000,  0.0000,  0.0000)
  43 H      8.192473    8.558660   17.558726    ( 0.0000,  0.0000,  0.0000)
  44 H      8.186113    8.571438   19.335437    ( 0.0000,  0.0000,  0.0000)
  45 H      8.194659    6.022943   17.568953    ( 0.0000,  0.0000,  0.0000)
  46 H      8.254202    5.946920   19.336445    ( 0.0000,  0.0000,  0.0000)
  47 H      9.156865   10.499227   18.444013    ( 0.0000,  0.0000,  0.0000)
  48 H     10.257749    4.872322   17.664318    ( 0.0000,  0.0000,  0.0000)
  49 N      9.721979    9.704620   16.944270    ( 0.0000,  0.0000,  0.0000)
  50 N      8.576092    9.712618   16.920848    ( 0.0000,  0.0000,  0.0000)

Unit cell:
           periodic     x           y           z      points  spacing
  1. axis:    yes    9.702222    0.000000    0.000000    60     0.1617
  2. axis:    yes    0.000000    9.702222    0.000000    60     0.1617
  3. axis:    no     0.000000    0.000000   28.351111   176     0.1611

  Lengths:   9.702222   9.702222  28.351111
  Angles:   90.000000  90.000000  90.000000

Effective grid spacing dv^(1/3) = 0.1615

     iter     time        total  log10-change:
                         energy  eigst   dens
iter:   1 22:07:18  -345.121871  -0.31
iter:   2 22:07:26  -344.110735  -0.42  -1.33
iter:   3 22:07:34  -343.940949  -0.93  -1.35
iter:   4 22:07:42  -343.883016  -0.66  -1.52
Writing to output.gpw (mode='')

iter:   5 22:07:50  -343.692654  -1.15  -1.74
iter:   6 22:07:58  -343.925964  -0.81  -2.10
iter:   7 22:08:06  -343.695730  -1.55  -1.55
iter:   8 22:08:21  -343.709206  -1.43  -2.12
iter:   9 22:08:28  -343.681555c -1.83  -2.11
Writing to output.gpw (mode='')

iter:  10 22:08:36  -343.673778c -2.20  -2.23
iter:  11 22:08:44  -343.673669c -2.45  -2.38
iter:  12 22:08:52  -343.672835c -2.67  -2.62
iter:  13 22:09:00  -343.672750c -3.21  -2.70
iter:  14 22:09:08  -343.672570c -3.53  -2.79
Writing to output.gpw (mode='')

iter:  15 22:09:16  -343.672283c -3.62  -2.84
iter:  16 22:09:24  -343.672026c -3.24  -2.92
iter:  17 22:09:32  -343.672157c -3.70  -3.20
iter:  18 22:09:40  -343.672158c -4.25  -3.15
iter:  19 22:09:48  -343.672233c -3.71  -3.27
Writing to output.gpw (mode='')

iter:  20 22:09:56  -343.672172c -4.37  -3.46
iter:  21 22:10:04  -343.672195c -4.37  -3.59
iter:  22 22:10:12  -343.672185c -4.87  -3.77
iter:  23 22:10:20  -343.672164c -4.75  -3.80
iter:  24 22:10:28  -343.672178c -4.61  -3.98
Writing to output.gpw (mode='')

iter:  25 22:10:36  -343.672188c -5.20  -3.97
iter:  26 22:10:44  -343.672179c -5.12  -4.04c
iter:  27 22:10:52  -343.672195c -5.28  -4.13c
iter:  28 22:11:00  -343.672177c -5.58  -4.17c
iter:  29 22:11:08  -343.672183c -5.54  -4.40c
Writing to output.gpw (mode='')

iter:  30 22:11:16  -343.672184c -5.82  -4.55c
iter:  31 22:11:24  -343.672184c -5.92  -4.59c
iter:  32 22:11:32  -343.672180c -5.84  -4.61c
iter:  33 22:11:40  -343.672180c -6.01  -4.72c
iter:  34 22:11:48  -343.672184c -6.06  -4.78c
Writing to output.gpw (mode='')

iter:  35 22:11:56  -343.672183c -6.31  -4.82c
iter:  36 22:12:04  -343.672184c -6.27  -4.84c
iter:  37 22:12:12  -343.672184c -6.45  -4.89c
iter:  38 22:12:20  -343.672184c -6.65  -4.89c
iter:  39 22:12:28  -343.672184c -6.59  -4.88c
Writing to output.gpw (mode='')

iter:  40 22:12:36  -343.672182c -6.60  -4.88c
iter:  41 22:12:44  -343.672183c -6.76  -4.89c
iter:  42 22:12:52  -343.672181c -6.90  -4.84c
iter:  43 22:13:00  -343.672183c -6.94  -4.96c
iter:  44 22:13:09  -343.672182c -7.11  -5.16c
Writing to output.gpw (mode='')

iter:  45 22:13:21  -343.672183c -7.04  -5.23c
iter:  46 22:13:29  -343.672183c -7.16  -5.31c
iter:  47 22:13:37  -343.672182c -7.37  -5.36c
iter:  48 22:13:45  -343.672183c -7.08  -5.44c
iter:  49 22:13:53  -343.672183c -7.66c -5.57c

Converged after 49 iterations.

Dipole moment: (-12.378051, -14.837169, 0.257273) |e|*Ang

Energy contributions relative to reference atoms: (reference = -17528.314784)

Kinetic:       +220.234394
Potential:     -199.113330
External:        +0.000000
XC:            -365.908545
Entropy (-ST):   -0.156393
Local:           +1.193494
--------------------------
Free energy:   -343.750379
Extrapolated:  -343.672183

Dipole-layer corrected work functions: 3.390405, 2.895838 eV

Showing only first 2 kpts
 Kpt  Band  Eigenvalues  Occupancy
  0    37     -3.38060    1.98284
  0    38     -3.29273    1.90444
  0    39     -3.04879    0.26327
  0    40     -2.92732    0.02636

  1    37     -3.20912    1.57835
  1    38     -3.16982    1.26080
  1    39     -3.06987    0.37541
  1    40     -3.02409    0.16932


Fermi level: -3.14312

Gap: 0.029 eV
Transition (v -> c):
  (s=0, k=2, n=38, [0.12, 0.12, 0.00]) -> (s=0, k=4, n=39, [0.38, -0.38, 0.00])
Writing to output.gpw (mode='')


Forces in eV/Ang:
  0 Li    0.01241    0.01138   -0.27966
  1 Li   -0.00241   -0.00457   -0.26871
  2 Li   -0.00902    0.01067   -0.28308
  3 Li   -0.00466   -0.00101   -0.26193
  4 Li   -0.00394    0.00134   -0.28342
  5 Li    0.00488   -0.00055   -0.26210
  6 Li    0.01413   -0.01063   -0.27969
  7 Li   -0.00077    0.00442   -0.26447
  8 Li   -0.01021   -0.01055   -0.27840
  9 Li   -0.00667    0.00389    0.35235
 10 Li    0.00557   -0.00240    0.24890
 11 Li   -0.00466   -0.00181    0.27399
 12 Li    0.00224    0.01503    0.25312
 13 Li    0.00505   -0.00360    0.26111
 14 Li   -0.00284    0.00662    0.26382
 15 Li    0.00040   -0.01640    0.25543
 16 Li    0.00401    0.00509    0.25794
 17 Li   -0.00216   -0.00633    0.25843
 18 Li    0.01483    0.01523   -0.05360
 19 Li    0.00611   -0.02265    0.06554
 20 Li   -0.01530    0.04423   -0.09763
 21 Li   -0.01435   -0.00082    0.11584
 22 Li    0.00031   -0.00034   -0.00231
 23 Li    0.01076    0.00284    0.07395
 24 Li    0.00319   -0.01459   -0.04143
 25 Li    0.01386    0.02344    0.08766
 26 Li   -0.01734   -0.04770   -0.07092
 27 Li    0.66287   -0.03205   -6.49853
 28 Li    0.05309   -0.00285   -0.02827
 29 Li    0.29593    0.03947    0.18130
 30 Li    0.00995    0.07184   -0.07610
 31 Li   -0.00259    0.04166   -0.01121
 32 Li   -0.04844    0.03545   -0.03221
 33 Li    0.04025   -0.11018   -0.31542
 34 Li    0.02534   -0.03931   -0.03173
 35 Li   -0.10003   -0.04074   -0.12256
 36 O     3.06337   -0.56053    8.49715
 37 O    -0.31334    0.16221    0.31288
 38 C     0.21176   -0.04856    0.32570
 39 C    -0.44027   -3.80228    4.67998
 40 C     0.03437   -0.19002    0.29062
 41 H     0.14688    0.02363    0.00830
 42 H     0.19473   -0.08968   -0.05744
 43 H    -0.49637   -1.27383    1.50167
 44 H     0.00019    0.16972    0.27406
 45 H    -0.07325   -0.02074   -0.06507
 46 H    -0.06202    0.03109   -0.03553
 47 H    -0.28648    0.29447    1.19498
 48 H     0.28067   -0.05944   -0.32639
 49 N     3.56006    1.17724   -0.41219
 50 N    -6.69628    4.23330   -9.29688

System changes: positions 

Initializing position-dependent things.

Density initialized from wave functions
       .-----------------------.  
      /|                       |  
     / |                       |  
    /  |                       |  
   /   |                       |  
  /    |                       |  
 *     |                       |  
 |     |                       |  
 |     |                       |  
 |     |                       |  
 |     |                       |  
 |     |                       |  
 |     O                   H   |  
 |     H                 H  C  |  
 |     |                   H  C|  
 |     H                   CO  |  
 |   H Li      Li        H     |  
 |     |                       |  
 |   Li|     Li      Li H      |  
 |     |  Li      Li      Li   |  
 N Li  |   Li      Li N        |  
 |     |Li      Li      Li     |  
 |     |         Li            |  
 |   LLi     LLi     LLi       |  
 |     |  Li      Li      Li   |  
 | Li  |   Li      Li          |  
 |     |Li      Li      Li     |  
 Li    | Li      Li            |  
 |    Li      Li      Li       |  
 |     |                       |  
 |     |                       |  
 |     |                       |  
 |     |                       |  
 |     |                       |  
 |     |                       |  
 |     .-----------------------.  
 |    /                       /   
 |   /                       /    
 |  /                       /     
 | /                       /      
 |/                       /       
 *-----------------------*        

Positions:
   0 Li     1.617037    1.617037   10.000000    ( 0.0000,  0.0000,  0.0000)
   1 Li     4.851111    1.617037   10.000000    ( 0.0000,  0.0000,  0.0000)
   2 Li     8.085185    1.617037   10.000000    ( 0.0000,  0.0000,  0.0000)
   3 Li     1.617037    4.851111   10.000000    ( 0.0000,  0.0000,  0.0000)
   4 Li     4.851111    4.851111   10.000000    ( 0.0000,  0.0000,  0.0000)
   5 Li     8.085185    4.851111   10.000000    ( 0.0000,  0.0000,  0.0000)
   6 Li     1.617037    8.085185   10.000000    ( 0.0000,  0.0000,  0.0000)
   7 Li     4.851111    8.085185   10.000000    ( 0.0000,  0.0000,  0.0000)
   8 Li     8.085185    8.085185   10.000000    ( 0.0000,  0.0000,  0.0000)
   9 Li     0.000000    0.000000   11.617037    ( 0.0000,  0.0000,  0.0000)
  10 Li     3.234074    0.000000   11.617037    ( 0.0000,  0.0000,  0.0000)
  11 Li     6.468148    0.000000   11.617037    ( 0.0000,  0.0000,  0.0000)
  12 Li     0.000000    3.234074   11.617037    ( 0.0000,  0.0000,  0.0000)
  13 Li     3.234074    3.234074   11.617037    ( 0.0000,  0.0000,  0.0000)
  14 Li     6.468148    3.234074   11.617037    ( 0.0000,  0.0000,  0.0000)
  15 Li     0.000000    6.468148   11.617037    ( 0.0000,  0.0000,  0.0000)
  16 Li     3.234074    6.468148   11.617037    ( 0.0000,  0.0000,  0.0000)
  17 Li     6.468148    6.468148   11.617037    ( 0.0000,  0.0000,  0.0000)
  18 Li     1.617154    1.617150   13.469328    ( 0.0000,  0.0000,  0.0000)
  19 Li     4.851150    1.616881   13.470179    ( 0.0000,  0.0000,  0.0000)
  20 Li     8.085070    1.617346   13.469037    ( 0.0000,  0.0000,  0.0000)
  21 Li     1.616933    4.851104   13.470530    ( 0.0000,  0.0000,  0.0000)
  22 Li     4.851116    4.851108   13.469718    ( 0.0000,  0.0000,  0.0000)
  23 Li     8.085260    4.851131   13.470241    ( 0.0000,  0.0000,  0.0000)
  24 Li     1.617073    8.085077   13.469416    ( 0.0000,  0.0000,  0.0000)
  25 Li     4.851205    8.085348   13.470333    ( 0.0000,  0.0000,  0.0000)
  26 Li     8.085056    8.084852   13.469211    ( 0.0000,  0.0000,  0.0000)
  27 Li     0.004403   -0.000251   15.402288    ( 0.0000,  0.0000,  0.0000)
  28 Li     3.234425   -0.000022   15.445758    ( 0.0000,  0.0000,  0.0000)
  29 Li     6.470317    0.000280   15.447296    ( 0.0000,  0.0000,  0.0000)
  30 Li     0.000061    3.234534   15.445453    ( 0.0000,  0.0000,  0.0000)
  31 Li     3.234067    3.234370   15.445856    ( 0.0000,  0.0000,  0.0000)
  32 Li     6.467810    3.234320   15.445723    ( 0.0000,  0.0000,  0.0000)
  33 Li     0.000279    6.467415   15.443812    ( 0.0000,  0.0000,  0.0000)
  34 Li     3.234256    6.467870   15.445718    ( 0.0000,  0.0000,  0.0000)
  35 Li     6.467451    6.467858   15.445099    ( 0.0000,  0.0000,  0.0000)
  36 O      9.720841    9.698381   18.500224    ( 0.0000,  0.0000,  0.0000)
  37 O      9.679912    4.840903   18.441754    ( 0.0000,  0.0000,  0.0000)
  38 C      9.702131    7.305694   18.462776    ( 0.0000,  0.0000,  0.0000)
  39 C      8.831877    8.532559   18.479416    ( 0.0000,  0.0000,  0.0000)
  40 C      8.870694    6.022453   18.438403    ( 0.0000,  0.0000,  0.0000)
  41 H     10.362115    7.328613   17.585816    ( 0.0000,  0.0000,  0.0000)
  42 H     10.339196    7.305750   19.348036    ( 0.0000,  0.0000,  0.0000)
  43 H      8.191190    8.554130   17.565580    ( 0.0000,  0.0000,  0.0000)
  44 H      8.185394    8.571927   19.337983    ( 0.0000,  0.0000,  0.0000)
  45 H      8.194356    6.022846   17.568715    ( 0.0000,  0.0000,  0.0000)
  46 H      8.253871    5.947050   19.336345    ( 0.0000,  0.0000,  0.0000)
  47 H      9.156191   10.499080   18.449113    ( 0.0000,  0.0000,  0.0000)
  48 H     10.258713    4.872058   17.663280    ( 0.0000,  0.0000,  0.0000)
  49 N      9.716320    9.710158   16.943729    ( 0.0000,  0.0000,  0.0000)
  50 N      8.571323    9.730309   16.885291    ( 0.0000,  0.0000,  0.0000)

Unit cell:
           periodic     x           y           z      points  spacing
  1. axis:    yes    9.702222    0.000000    0.000000    60     0.1617
  2. axis:    yes    0.000000    9.702222    0.000000    60     0.1617
  3. axis:    no     0.000000    0.000000   28.351111   176     0.1611

  Lengths:   9.702222   9.702222  28.351111
  Angles:   90.000000  90.000000  90.000000

Effective grid spacing dv^(1/3) = 0.1615

     iter     time        total  log10-change:
                         energy  eigst   dens
iter:   1 22:14:03  -344.659621  -0.81
iter:   2 22:14:11  -344.664939  -1.40  -2.22
iter:   3 22:14:18  -344.664447c -1.76  -2.19
iter:   4 22:14:26  -344.663577c -1.96  -2.28
Writing to output.gpw (mode='')

iter:   5 22:14:34  -344.652907c -1.97  -2.30
iter:   6 22:14:42  -344.651612c -1.49  -2.32
iter:   7 22:14:50  -344.648696c -2.30  -2.59
iter:   8 22:14:58  -344.650170c -2.61  -2.70
iter:   9 22:15:06  -344.648094c -2.62  -2.61
Writing to output.gpw (mode='')

iter:  10 22:15:13  -344.648069c -3.16  -2.91
iter:  11 22:15:21  -344.647761c -2.95  -3.02
iter:  12 22:15:29  -344.647911c -3.27  -3.23
iter:  13 22:15:37  -344.647839c -3.81  -3.25
iter:  14 22:15:45  -344.648040c -3.44  -3.28
Writing to output.gpw (mode='')

iter:  15 22:15:53  -344.647895c -3.42  -3.21
iter:  16 22:16:01  -344.647898c -4.28  -3.39
iter:  17 22:16:08  -344.647879c -4.03  -3.50
iter:  18 22:16:16  -344.647891c -4.59  -3.69
iter:  19 22:16:24  -344.647894c -4.12  -3.72
Writing to output.gpw (mode='')

iter:  20 22:16:32  -344.647898c -4.83  -3.80
iter:  21 22:16:40  -344.647889c -4.51  -3.86
iter:  22 22:16:48  -344.647892c -4.87  -3.97
iter:  23 22:16:56  -344.647897c -4.57  -4.13c
iter:  24 22:17:03  -344.647897c -5.29  -4.10c
Writing to output.gpw (mode='')

iter:  25 22:17:11  -344.647894c -5.13  -4.26c
iter:  26 22:17:19  -344.647900c -5.73  -4.32c
iter:  27 22:17:27  -344.647899c -5.37  -4.45c
iter:  28 22:17:35  -344.647901c -5.64  -4.43c
iter:  29 22:17:43  -344.647900c -5.56  -4.57c
Writing to output.gpw (mode='')

iter:  30 22:17:51  -344.647899c -6.07  -4.60c
iter:  31 22:17:58  -344.647897c -6.40  -4.73c
iter:  32 22:18:06  -344.647898c -6.13  -4.86c
iter:  33 22:18:19  -344.647897c -6.66  -4.95c
iter:  34 22:18:27  -344.647898c -6.46  -5.04c
Writing to output.gpw (mode='')

iter:  35 22:18:35  -344.647897c -6.91  -5.13c
iter:  36 22:18:42  -344.647898c -6.73  -5.19c
iter:  37 22:18:50  -344.647898c -7.32  -5.28c
iter:  38 22:18:58  -344.647898c -7.23  -5.28c
iter:  39 22:19:06  -344.647898c -7.09  -5.31c
Writing to output.gpw (mode='')

iter:  40 22:19:16  -344.647898c -7.06  -5.33c
iter:  41 22:19:24  -344.647898c -7.59c -5.41c

Converged after 41 iterations.

Dipole moment: (-12.610577, -16.809662, 0.240900) |e|*Ang

Energy contributions relative to reference atoms: (reference = -17528.314784)

Kinetic:       +216.137852
Potential:     -196.705105
External:        +0.000000
XC:            -365.191602
Entropy (-ST):   -0.154996
Local:           +1.188455
--------------------------
Free energy:   -344.725396
Extrapolated:  -344.647898

Dipole-layer corrected work functions: 3.391439, 2.928346 eV

Showing only first 2 kpts
 Kpt  Band  Eigenvalues  Occupancy
  0    37     -3.39601    1.98237
  0    38     -3.30986    1.90508
  0    39     -3.06414    0.25681
  0    40     -2.94168    0.02513

  1    37     -3.22848    1.59535
  1    38     -3.18511    1.24699
  1    39     -3.08521    0.36676
  1    40     -3.03807    0.16088


Fermi level: -3.15989

Gap: 0.028 eV
Transition (v -> c):
  (s=0, k=2, n=38, [0.12, 0.12, 0.00]) -> (s=0, k=4, n=39, [0.38, -0.38, 0.00])
Writing to output.gpw (mode='')


Forces in eV/Ang:
  0 Li    0.01349    0.01101   -0.28088
  1 Li   -0.00274   -0.00450   -0.26828
  2 Li   -0.00925    0.01049   -0.28371
  3 Li   -0.00492   -0.00082   -0.26151
  4 Li   -0.00392    0.00099   -0.28456
  5 Li    0.00497    0.00036   -0.26163
  6 Li    0.01363   -0.01106   -0.28108
  7 Li   -0.00074    0.00473   -0.26307
  8 Li   -0.01009   -0.01112   -0.27916
  9 Li   -0.00708    0.00373    0.35748
 10 Li    0.00610   -0.00214    0.24834
 11 Li   -0.00511   -0.00143    0.27426
 12 Li    0.00233    0.01492    0.25374
 13 Li    0.00486   -0.00350    0.26067
 14 Li   -0.00323    0.00717    0.26379
 15 Li    0.00037   -0.01597    0.25617
 16 Li    0.00563    0.00497    0.25747
 17 Li   -0.00296   -0.00824    0.25692
 18 Li    0.01939    0.01965   -0.06184
 19 Li    0.00602   -0.02299    0.06666
 20 Li   -0.01921    0.04829   -0.10574
 21 Li   -0.01494   -0.00151    0.11590
 22 Li    0.00053    0.00023   -0.00290
 23 Li    0.01097    0.00119    0.07259
 24 Li    0.00925   -0.01813   -0.04848
 25 Li    0.01487    0.02384    0.08767
 26 Li   -0.02298   -0.05157   -0.07461
 27 Li    0.71250   -0.05754   -5.79750
 28 Li    0.05288   -0.00294   -0.02633
 29 Li    0.29901    0.03845    0.18585
 30 Li    0.00985    0.07381   -0.07490
 31 Li   -0.00069    0.04211   -0.01137
 32 Li   -0.05078    0.03748   -0.03322
 33 Li    0.03565   -0.10546   -0.30723
 34 Li    0.02325   -0.03927   -0.03177
 35 Li   -0.09464   -0.03491   -0.11869
 36 O     1.71609   -0.55223    7.30126
 37 O    -0.21570    0.11024    0.20897
 38 C     0.21237   -0.21807    0.38906
 39 C    -0.35189   -2.92210    3.60120
 40 C     0.04186   -0.18578    0.23222
 41 H     0.10047    0.05635    0.02466
 42 H     0.23990   -0.13147   -0.02249
 43 H    -0.26084   -1.06459    1.72064
 44 H    -0.19503    0.06196    0.62218
 45 H    -0.04852   -0.01423   -0.03407
 46 H    -0.07281    0.02859   -0.01201
 47 H    -0.02960   -0.04873    1.25358
 48 H     0.20043   -0.05955   -0.22163
 49 N     3.06517    1.29541   -1.08911
 50 N    -5.39379    3.67304   -7.78026

System changes: positions 

Initializing position-dependent things.

Density initialized from wave functions
       .-----------------------.  
      /|                       |  
     / |                       |  
    /  |                       |  
   /   |                       |  
  /    |                       |  
 *     |                       |  
 |     |                       |  
 |     |                       |  
 |     |                       |  
 |     |                       |  
 |     |                       |  
 |     O                   H   |  
 |     H                 H  C  |  
 |    C|                   H   |  
 |     H                   CO  |  
 |   H Li      Li        H     |  
 |     |                       |  
 |   Li|     Li      Li H      |  
 |     |  Li      Li      Li   |  
 N Li  |   Li      Li N        |  
 |     |Li      Li      Li     |  
 |     |         Li            |  
 |   LLi     LLi     LLi       |  
 |     |  Li      Li      Li   |  
 | Li  |   Li      Li          |  
 |     |Li      Li      Li     |  
 Li    | Li      Li            |  
 |    Li      Li      Li       |  
 |     |                       |  
 |     |                       |  
 |     |                       |  
 |     |                       |  
 |     |                       |  
 |     |                       |  
 |     .-----------------------.  
 |    /                       /   
 |   /                       /    
 |  /                       /     
 | /                       /      
 |/                       /       
 *-----------------------*        

Positions:
   0 Li     1.617037    1.617037   10.000000    ( 0.0000,  0.0000,  0.0000)
   1 Li     4.851111    1.617037   10.000000    ( 0.0000,  0.0000,  0.0000)
   2 Li     8.085185    1.617037   10.000000    ( 0.0000,  0.0000,  0.0000)
   3 Li     1.617037    4.851111   10.000000    ( 0.0000,  0.0000,  0.0000)
   4 Li     4.851111    4.851111   10.000000    ( 0.0000,  0.0000,  0.0000)
   5 Li     8.085185    4.851111   10.000000    ( 0.0000,  0.0000,  0.0000)
   6 Li     1.617037    8.085185   10.000000    ( 0.0000,  0.0000,  0.0000)
   7 Li     4.851111    8.085185   10.000000    ( 0.0000,  0.0000,  0.0000)
   8 Li     8.085185    8.085185   10.000000    ( 0.0000,  0.0000,  0.0000)
   9 Li     0.000000    0.000000   11.617037    ( 0.0000,  0.0000,  0.0000)
  10 Li     3.234074    0.000000   11.617037    ( 0.0000,  0.0000,  0.0000)
  11 Li     6.468148    0.000000   11.617037    ( 0.0000,  0.0000,  0.0000)
  12 Li     0.000000    3.234074   11.617037    ( 0.0000,  0.0000,  0.0000)
  13 Li     3.234074    3.234074   11.617037    ( 0.0000,  0.0000,  0.0000)
  14 Li     6.468148    3.234074   11.617037    ( 0.0000,  0.0000,  0.0000)
  15 Li     0.000000    6.468148   11.617037    ( 0.0000,  0.0000,  0.0000)
  16 Li     3.234074    6.468148   11.617037    ( 0.0000,  0.0000,  0.0000)
  17 Li     6.468148    6.468148   11.617037    ( 0.0000,  0.0000,  0.0000)
  18 Li     1.617342    1.617327   13.468799    ( 0.0000,  0.0000,  0.0000)
  19 Li     4.851184    1.616721   13.470630    ( 0.0000,  0.0000,  0.0000)
  20 Li     8.084899    1.617703   13.468238    ( 0.0000,  0.0000,  0.0000)
  21 Li     1.616816    4.851087   13.471312    ( 0.0000,  0.0000,  0.0000)
  22 Li     4.851125    4.851113   13.469700    ( 0.0000,  0.0000,  0.0000)
  23 Li     8.085340    4.851129   13.470721    ( 0.0000,  0.0000,  0.0000)
  24 Li     1.617201    8.084918   13.468991    ( 0.0000,  0.0000,  0.0000)
  25 Li     4.851307    8.085516   13.470920    ( 0.0000,  0.0000,  0.0000)
  26 Li     8.084846    8.084474   13.468632    ( 0.0000,  0.0000,  0.0000)
  27 Li     0.009182   -0.000869   15.370483    ( 0.0000,  0.0000,  0.0000)
  28 Li     3.234747   -0.000046   15.445622    ( 0.0000,  0.0000,  0.0000)
  29 Li     6.472596    0.000546   15.448785    ( 0.0000,  0.0000,  0.0000)
  30 Li     0.000110    3.234973   15.445037    ( 0.0000,  0.0000,  0.0000)
  31 Li     3.234091    3.234669   15.445769    ( 0.0000,  0.0000,  0.0000)
  32 Li     6.467450    3.234583   15.445506    ( 0.0000,  0.0000,  0.0000)
  33 Li     0.000488    6.466793   15.441904    ( 0.0000,  0.0000,  0.0000)
  34 Li     3.234408    6.467599   15.445501    ( 0.0000,  0.0000,  0.0000)
  35 Li     6.466843    6.467650   15.444340    ( 0.0000,  0.0000,  0.0000)
  36 O      9.718244    9.694785   18.532511    ( 0.0000,  0.0000,  0.0000)
  37 O      9.679483    4.841100   18.441989    ( 0.0000,  0.0000,  0.0000)
  38 C      9.703546    7.302530   18.466099    ( 0.0000,  0.0000,  0.0000)
  39 C      8.831131    8.521766   18.492924    ( 0.0000,  0.0000,  0.0000)
  40 C      8.871117    6.021380   18.439448    ( 0.0000,  0.0000,  0.0000)
  41 H     10.362311    7.329331   17.586158    ( 0.0000,  0.0000,  0.0000)
  42 H     10.341240    7.304427   19.348202    ( 0.0000,  0.0000,  0.0000)
  43 H      8.191967    8.549666   17.578506    ( 0.0000,  0.0000,  0.0000)
  44 H      8.182104    8.571340   19.345682    ( 0.0000,  0.0000,  0.0000)
  45 H      8.194231    6.022794   17.568754    ( 0.0000,  0.0000,  0.0000)
  46 H      8.253270    5.947211   19.336482    ( 0.0000,  0.0000,  0.0000)
  47 H      9.158331   10.495044   18.457516    ( 0.0000,  0.0000,  0.0000)
  48 H     10.259205    4.871669   17.662939    ( 0.0000,  0.0000,  0.0000)
  49 N      9.713228    9.719720   16.933094    ( 0.0000,  0.0000,  0.0000)
  50 N      8.568031    9.749380   16.850285    ( 0.0000,  0.0000,  0.0000)

Unit cell:
           periodic     x           y           z      points  spacing
  1. axis:    yes    9.702222    0.000000    0.000000    60     0.1617
  2. axis:    yes    0.000000    9.702222    0.000000    60     0.1617
  3. axis:    no     0.000000    0.000000   28.351111   176     0.1611

  Lengths:   9.702222   9.702222  28.351111
  Angles:   90.000000  90.000000  90.000000

Effective grid spacing dv^(1/3) = 0.1615

     iter     time        total  log10-change:
                         energy  eigst   dens
iter:   1 22:19:34  -345.528758  -0.79
iter:   2 22:19:42  -345.532357  -1.39  -2.18
iter:   3 22:19:50  -345.533411c -1.73  -2.26
iter:   4 22:19:58  -345.532779c -1.91  -2.30
Writing to output.gpw (mode='')

iter:   5 22:20:06  -345.527301c -1.96  -2.34
iter:   6 22:20:13  -345.523998c -1.73  -2.31
iter:   7 22:20:21  -345.520383c -2.36  -2.38
iter:   8 22:20:30  -345.520462c -2.74  -2.73
iter:   9 22:20:37  -345.520278c -2.85  -2.76
Writing to output.gpw (mode='')

iter:  10 22:20:45  -345.520240c -3.22  -2.93
iter:  11 22:20:53  -345.520134c -3.10  -3.01
iter:  12 22:21:01  -345.520315c -3.19  -3.08
iter:  13 22:21:10  -345.520289c -3.51  -3.11
iter:  14 22:21:17  -345.520218c -3.87  -3.28
Writing to output.gpw (mode='')

iter:  15 22:21:25  -345.520241c -3.64  -3.40
iter:  16 22:21:33  -345.520284c -4.34  -3.49
iter:  17 22:21:41  -345.520268c -4.27  -3.57
iter:  18 22:21:49  -345.520335c -4.29  -3.68
iter:  19 22:21:57  -345.520277c -4.42  -3.76
Writing to output.gpw (mode='')

iter:  20 22:22:05  -345.520287c -4.88  -3.96
iter:  21 22:22:13  -345.520309c -4.63  -3.99
iter:  22 22:22:21  -345.520305c -5.21  -4.03c
iter:  23 22:22:29  -345.520302c -5.00  -4.11c
iter:  24 22:22:37  -345.520330c -5.06  -4.19c
Writing to output.gpw (mode='')

iter:  25 22:22:45  -345.520323c -5.46  -4.13c
iter:  26 22:22:57  -345.520317c -5.18  -4.32c
iter:  27 22:23:13  -345.520311c -5.61  -4.36c
iter:  28 22:23:28  -345.520314c -5.67  -4.48c
iter:  29 22:23:38  -345.520315c -5.53  -4.62c
Writing to output.gpw (mode='')

iter:  30 22:23:46  -345.520317c -5.75  -4.66c
iter:  31 22:23:54  -345.520315c -5.97  -4.72c
iter:  32 22:24:02  -345.520315c -5.82  -4.86c
iter:  33 22:24:10  -345.520315c -5.89  -5.11c
iter:  34 22:24:18  -345.520316c -6.09  -5.18c
Writing to output.gpw (mode='')

iter:  35 22:24:26  -345.520317c -6.11  -5.22c
iter:  36 22:24:34  -345.520317c -6.28  -5.24c
iter:  37 22:24:42  -345.520317c -6.47  -5.30c
iter:  38 22:24:50  -345.520318c -6.83  -5.44c
iter:  39 22:24:58  -345.520317c -6.76  -5.48c
Writing to output.gpw (mode='')

iter:  40 22:25:06  -345.520318c -6.79  -5.53c
iter:  41 22:25:14  -345.520318c -6.80  -5.74c
iter:  42 22:25:22  -345.520318c -6.91  -5.80c
iter:  43 22:25:30  -345.520318c -7.29  -5.77c
iter:  44 22:25:38  -345.520318c -7.38  -5.79c
Writing to output.gpw (mode='')

iter:  45 22:25:46  -345.520318c -7.45c -5.77c

Converged after 45 iterations.

Dipole moment: (-12.216594, -18.978149, 0.221097) |e|*Ang

Energy contributions relative to reference atoms: (reference = -17528.314784)

Kinetic:       +212.843551
Potential:     -194.832410
External:        +0.000000
XC:            -364.640585
Entropy (-ST):   -0.153635
Local:           +1.185944
--------------------------
Free energy:   -345.597135
Extrapolated:  -345.520318

Dipole-layer corrected work functions: 3.392541, 2.967517 eV

Showing only first 2 kpts
 Kpt  Band  Eigenvalues  Occupancy
  0    37     -3.41505    1.98198
  0    38     -3.32976    1.90466
  0    39     -3.08315    0.25184
  0    40     -2.95960    0.02405

  1    37     -3.24910    1.59841
  1    38     -3.20331    1.22874
  1    39     -3.10358    0.35626
  1    40     -3.05679    0.15672


Fermi level: -3.18003

Gap: 0.027 eV
Transition (v -> c):
  (s=0, k=2, n=38, [0.12, 0.12, 0.00]) -> (s=0, k=4, n=39, [0.38, -0.38, 0.00])

Forces in eV/Ang:
  0 Li    0.01473    0.01040   -0.28215
  1 Li   -0.00333   -0.00455   -0.26787
  2 Li   -0.00932    0.01037   -0.28455
  3 Li   -0.00548   -0.00076   -0.26088
  4 Li   -0.00362    0.00057   -0.28576
  5 Li    0.00503    0.00152   -0.26130
  6 Li    0.01297   -0.01120   -0.28238
  7 Li   -0.00066    0.00528   -0.26151
  8 Li   -0.00987   -0.01196   -0.28011
  9 Li   -0.00721    0.00362    0.36278
 10 Li    0.00660   -0.00178    0.24816
 11 Li   -0.00605   -0.00116    0.27404
 12 Li    0.00246    0.01496    0.25439
 13 Li    0.00468   -0.00271    0.26007
 14 Li   -0.00368    0.00762    0.26373
 15 Li    0.00018   -0.01553    0.25709
 16 Li    0.00745    0.00414    0.25676
 17 Li   -0.00375   -0.01029    0.25539
 18 Li    0.02463    0.02552   -0.07088
 19 Li    0.00599   -0.02312    0.06779
 20 Li   -0.02346    0.05149   -0.11417
 21 Li   -0.01529   -0.00244    0.11504
 22 Li    0.00048    0.00124   -0.00330
 23 Li    0.01124   -0.00083    0.07139
 24 Li    0.01646   -0.02295   -0.05609
 25 Li    0.01572    0.02385    0.08705
 26 Li   -0.02899   -0.05411   -0.07741
 27 Li    0.74081   -0.09964   -5.31191
 28 Li    0.05259   -0.00325   -0.02351
 29 Li    0.29671    0.03666    0.18573
 30 Li    0.01087    0.07491   -0.07406
 31 Li    0.00087    0.04181   -0.01133
 32 Li   -0.05403    0.04090   -0.03506
 33 Li    0.03159   -0.09877   -0.29756
 34 Li    0.02049   -0.03818   -0.03163
 35 Li   -0.08925   -0.02962   -0.11508
 36 O     0.99924   -0.72966    6.39932
 37 O    -0.17391    0.04948    0.16911
 38 C     0.19395   -0.26174    0.34410
 39 C    -0.33438   -2.18223    3.04793
 40 C     0.04183   -0.18872    0.20434
 41 H     0.05620    0.06877    0.06072
 42 H     0.27783   -0.16116    0.03080
 43 H    -0.16782   -0.90633    1.69791
 44 H    -0.25307   -0.06170    0.70444
 45 H    -0.02826   -0.00805   -0.01222
 46 H    -0.07334    0.01883   -0.00309
 47 H    -0.00656   -0.10479    1.23993
 48 H     0.16771   -0.05519   -0.17924
 49 N     2.32945    1.45644   -1.38700
 50 N    -4.09470    3.17736   -6.55115

System changes: positions 

Initializing position-dependent things.

Density initialized from wave functions
       .-----------------------.  
      /|                       |  
     / |                       |  
    /  |                       |  
   /   |                       |  
  /    |                       |  
 *     |                       |  
 |     |                       |  
 |     |                       |  
 |     |                       |  
 |     |                       |  
 |     |                       |  
 |     O                   H   |  
 |     H                 H  C  |  
 |    C|                   H   |  
 |     H                   CO  |  
 |   H Li      Li        H     |  
 |     |                       |  
 |   Li|     Li      Li H      |  
 |     |  Li      Li      Li   |  
 N Li  |   Li      Li N        |  
 |     |Li      Li      Li     |  
 |     |         Li            |  
 |   LLi     LLi     LLi       |  
 |     |  Li      Li      Li   |  
 | Li  |   Li      Li          |  
 |     |Li      Li      Li     |  
 Li    | Li      Li            |  
 |    Li      Li      Li       |  
 |     |                       |  
 |     |                       |  
 |     |                       |  
 |     |                       |  
 |     |                       |  
 |     |                       |  
 |     .-----------------------.  
 |    /                       /   
 |   /                       /    
 |  /                       /     
 | /                       /      
 |/                       /       
 *-----------------------*        

Positions:
   0 Li     1.617037    1.617037   10.000000    ( 0.0000,  0.0000,  0.0000)
   1 Li     4.851111    1.617037   10.000000    ( 0.0000,  0.0000,  0.0000)
   2 Li     8.085185    1.617037   10.000000    ( 0.0000,  0.0000,  0.0000)
   3 Li     1.617037    4.851111   10.000000    ( 0.0000,  0.0000,  0.0000)
   4 Li     4.851111    4.851111   10.000000    ( 0.0000,  0.0000,  0.0000)
   5 Li     8.085185    4.851111   10.000000    ( 0.0000,  0.0000,  0.0000)
   6 Li     1.617037    8.085185   10.000000    ( 0.0000,  0.0000,  0.0000)
   7 Li     4.851111    8.085185   10.000000    ( 0.0000,  0.0000,  0.0000)
   8 Li     8.085185    8.085185   10.000000    ( 0.0000,  0.0000,  0.0000)
   9 Li     0.000000    0.000000   11.617037    ( 0.0000,  0.0000,  0.0000)
  10 Li     3.234074    0.000000   11.617037    ( 0.0000,  0.0000,  0.0000)
  11 Li     6.468148    0.000000   11.617037    ( 0.0000,  0.0000,  0.0000)
  12 Li     0.000000    3.234074   11.617037    ( 0.0000,  0.0000,  0.0000)
  13 Li     3.234074    3.234074   11.617037    ( 0.0000,  0.0000,  0.0000)
  14 Li     6.468148    3.234074   11.617037    ( 0.0000,  0.0000,  0.0000)
  15 Li     0.000000    6.468148   11.617037    ( 0.0000,  0.0000,  0.0000)
  16 Li     3.234074    6.468148   11.617037    ( 0.0000,  0.0000,  0.0000)
  17 Li     6.468148    6.468148   11.617037    ( 0.0000,  0.0000,  0.0000)
  18 Li     1.617636    1.617620   13.468036    ( 0.0000,  0.0000,  0.0000)
  19 Li     4.851231    1.616516   13.471225    ( 0.0000,  0.0000,  0.0000)
  20 Li     8.084635    1.618195   13.467125    ( 0.0000,  0.0000,  0.0000)
  21 Li     1.616668    4.851055   13.472303    ( 0.0000,  0.0000,  0.0000)
  22 Li     4.851134    4.851133   13.469671    ( 0.0000,  0.0000,  0.0000)
  23 Li     8.085444    4.851100   13.471325    ( 0.0000,  0.0000,  0.0000)
  24 Li     1.617442    8.084660   13.468377    ( 0.0000,  0.0000,  0.0000)
  25 Li     4.851451    8.085729   13.471666    ( 0.0000,  0.0000,  0.0000)
  26 Li     8.084512    8.083964   13.467880    ( 0.0000,  0.0000,  0.0000)
  27 Li     0.015759   -0.002183   15.333463    ( 0.0000,  0.0000,  0.0000)
  28 Li     3.235174   -0.000080   15.445470    ( 0.0000,  0.0000,  0.0000)
  29 Li     6.475369    0.000858   15.450587    ( 0.0000,  0.0000,  0.0000)
  30 Li     0.000197    3.235581   15.444474    ( 0.0000,  0.0000,  0.0000)
  31 Li     3.234132    3.235041   15.445662    ( 0.0000,  0.0000,  0.0000)
  32 Li     6.466947    3.234967   15.445197    ( 0.0000,  0.0000,  0.0000)
  33 Li     0.000712    6.466052   15.439520    ( 0.0000,  0.0000,  0.0000)
  34 Li     3.234565    6.467270   15.445226    ( 0.0000,  0.0000,  0.0000)
  35 Li     6.466128    6.467449   15.443400    ( 0.0000,  0.0000,  0.0000)
  36 O      9.710782    9.687466   18.568422    ( 0.0000,  0.0000,  0.0000)
  37 O      9.679080    4.840702   18.442240    ( 0.0000,  0.0000,  0.0000)
  38 C      9.705098    7.298596   18.469379    ( 0.0000,  0.0000,  0.0000)
  39 C      8.829680    8.514786   18.507026    ( 0.0000,  0.0000,  0.0000)
  40 C      8.871596    6.019875   18.440616    ( 0.0000,  0.0000,  0.0000)
  41 H     10.362127    7.330283   17.587053    ( 0.0000,  0.0000,  0.0000)
  42 H     10.344234    7.302486   19.349061    ( 0.0000,  0.0000,  0.0000)
  43 H      8.193180    8.545028   17.594174    ( 0.0000,  0.0000,  0.0000)
  44 H      8.177923    8.569210   19.355186    ( 0.0000,  0.0000,  0.0000)
  45 H      8.194278    6.022799   17.569006    ( 0.0000,  0.0000,  0.0000)
  46 H      8.252540    5.947288   19.336691    ( 0.0000,  0.0000,  0.0000)
  47 H      9.160347   10.490732   18.468137    ( 0.0000,  0.0000,  0.0000)
  48 H     10.259747    4.871228   17.662599    ( 0.0000,  0.0000,  0.0000)
  49 N      9.709310    9.734025   16.916505    ( 0.0000,  0.0000,  0.0000)
  50 N      8.567821    9.769149   16.815512    ( 0.0000,  0.0000,  0.0000)

Unit cell:
           periodic     x           y           z      points  spacing
  1. axis:    yes    9.702222    0.000000    0.000000    60     0.1617
  2. axis:    yes    0.000000    9.702222    0.000000    60     0.1617
  3. axis:    no     0.000000    0.000000   28.351111   176     0.1611

  Lengths:   9.702222   9.702222  28.351111
  Angles:   90.000000  90.000000  90.000000

Effective grid spacing dv^(1/3) = 0.1615

     iter     time        total  log10-change:
                         energy  eigst   dens
iter:   1 22:25:56  -346.375894  -0.72
iter:   2 22:26:04  -346.369788  -1.22  -2.01
iter:   3 22:26:12  -346.365204c -1.65  -2.05
iter:   4 22:26:20  -346.353575c -1.65  -2.20
Writing to output.gpw (mode='')

iter:   5 22:26:28  -346.357104c -1.96  -2.38
iter:   6 22:26:35  -346.353891c -2.16  -2.31
iter:   7 22:26:43  -346.347574c -2.25  -2.38
iter:   8 22:26:51  -346.347565c -2.33  -2.61
iter:   9 22:26:59  -346.346635c -2.76  -2.62
Writing to output.gpw (mode='')

iter:  10 22:27:07  -346.347028c -2.82  -2.81
iter:  11 22:27:15  -346.346617c -3.25  -3.00
iter:  12 22:27:23  -346.346888c -3.27  -3.00
iter:  13 22:27:31  -346.346770c -3.48  -3.22
iter:  14 22:27:38  -346.346817c -3.63  -3.23
Writing to output.gpw (mode='')

iter:  15 22:27:46  -346.346855c -3.92  -3.30
iter:  16 22:27:54  -346.346849c -4.01  -3.43
iter:  17 22:28:02  -346.346854c -3.99  -3.40
iter:  18 22:28:15  -346.346858c -4.41  -3.57
iter:  19 22:28:25  -346.346891c -4.57  -3.59
Writing to output.gpw (mode='')

iter:  20 22:28:33  -346.346884c -4.78  -3.69
iter:  21 22:28:41  -346.346881c -4.58  -3.75
iter:  22 22:28:48  -346.346888c -4.79  -4.13c
iter:  23 22:28:56  -346.346894c -4.87  -4.20c
iter:  24 22:29:04  -346.346899c -4.92  -4.21c
Writing to output.gpw (mode='')

iter:  25 22:29:12  -346.346911c -5.04  -4.29c
iter:  26 22:29:20  -346.346910c -5.47  -4.32c
iter:  27 22:29:28  -346.346910c -5.17  -4.37c
iter:  28 22:29:36  -346.346916c -5.21  -4.60c
iter:  29 22:29:44  -346.346912c -5.49  -4.45c
Writing to output.gpw (mode='')

iter:  30 22:29:52  -346.346914c -5.61  -4.75c
iter:  31 22:30:00  -346.346914c -5.70  -4.78c
iter:  32 22:30:08  -346.346914c -5.50  -4.79c
iter:  33 22:30:16  -346.346914c -5.65  -4.76c
iter:  34 22:30:23  -346.346914c -5.95  -4.82c
Writing to output.gpw (mode='')

iter:  35 22:30:31  -346.346914c -5.93  -4.79c
iter:  36 22:30:39  -346.346916c -5.82  -4.82c
iter:  37 22:30:47  -346.346915c -5.98  -4.85c
iter:  38 22:30:55  -346.346916c -6.10  -4.72c
iter:  39 22:31:03  -346.346917c -6.35  -4.81c
Writing to output.gpw (mode='')

iter:  40 22:31:11  -346.346915c -6.28  -4.77c
iter:  41 22:31:19  -346.346917c -6.51  -4.77c
iter:  42 22:31:27  -346.346919c -6.42  -4.84c
iter:  43 22:31:35  -346.346920c -6.55  -4.84c
iter:  44 22:31:43  -346.346920c -6.82  -4.87c
Writing to output.gpw (mode='')

iter:  45 22:31:51  -346.346920c -6.80  -5.05c
iter:  46 22:31:58  -346.346920c -6.67  -5.11c
iter:  47 22:32:06  -346.346921c -7.12  -5.19c
iter:  48 22:32:14  -346.346921c -7.01  -5.24c
iter:  49 22:32:22  -346.346921c -7.08  -5.33c
Writing to output.gpw (mode='')

iter:  50 22:32:30  -346.346920c -7.12  -5.42c
iter:  51 22:32:38  -346.346921c -7.37  -5.54c
iter:  52 22:32:46  -346.346921c -7.23  -5.68c
iter:  53 22:32:54  -346.346921c -7.41c -5.72c

Converged after 53 iterations.

Dipole moment: (-11.345831, -20.976058, 0.197375) |e|*Ang

Energy contributions relative to reference atoms: (reference = -17528.314784)

Kinetic:       +210.215219
Potential:     -193.454461
External:        +0.000000
XC:            -364.215629
Entropy (-ST):   -0.152081
Local:           +1.183990
--------------------------
Free energy:   -346.422961
Extrapolated:  -346.346921

Dipole-layer corrected work functions: 3.393504, 3.014082 eV

Showing only first 2 kpts
 Kpt  Band  Eigenvalues  Occupancy
  0    37     -3.43844    1.98185
  0    38     -3.35342    1.90447
  0    39     -3.10361    0.23762
  0    40     -2.98186    0.02335

  1    37     -3.27052    1.58318
  1    38     -3.22503    1.20923
  1    39     -3.12688    0.35359
  1    40     -3.08029    0.15597


Fermi level: -3.20379

Gap: 0.024 eV
Transition (v -> c):
  (s=0, k=2, n=38, [0.12, 0.12, 0.00]) -> (s=0, k=4, n=39, [0.38, -0.38, 0.00])
Writing to output.gpw (mode='')


Forces in eV/Ang:
  0 Li    0.01600    0.00956   -0.28332
  1 Li   -0.00401   -0.00478   -0.26740
  2 Li   -0.00930    0.01012   -0.28544
  3 Li   -0.00630   -0.00074   -0.26009
  4 Li   -0.00317    0.00017   -0.28696
  5 Li    0.00509    0.00284   -0.26104
  6 Li    0.01217   -0.01111   -0.28352
  7 Li   -0.00052    0.00602   -0.25974
  8 Li   -0.00959   -0.01285   -0.28103
  9 Li   -0.00719    0.00353    0.36787
 10 Li    0.00713   -0.00140    0.24821
 11 Li   -0.00748   -0.00099    0.27329
 12 Li    0.00267    0.01516    0.25499
 13 Li    0.00457   -0.00132    0.25935
 14 Li   -0.00426    0.00808    0.26357
 15 Li   -0.00008   -0.01515    0.25811
 16 Li    0.00945    0.00264    0.25574
 17 Li   -0.00458   -0.01244    0.25370
 18 Li    0.03081    0.03282   -0.08053
 19 Li    0.00606   -0.02291    0.06896
 20 Li   -0.02824    0.05407   -0.12248
 21 Li   -0.01518   -0.00363    0.11339
 22 Li    0.00030    0.00269   -0.00359
 23 Li    0.01140   -0.00308    0.06979
 24 Li    0.02501   -0.02910   -0.06410
 25 Li    0.01656    0.02326    0.08587
 26 Li   -0.03562   -0.05569   -0.07924
 27 Li    0.75260   -0.15615   -4.87966
 28 Li    0.05243   -0.00391   -0.02038
 29 Li    0.28600    0.03393    0.17758
 30 Li    0.01296    0.07737   -0.07439
 31 Li    0.00204    0.04097   -0.01108
 32 Li   -0.05793    0.04517   -0.03751
 33 Li    0.02763   -0.09144   -0.28685
 34 Li    0.01706   -0.03609   -0.03121
 35 Li   -0.08339   -0.02458   -0.11126
 36 O     0.58487   -0.79186    5.57123
 37 O    -0.13055   -0.01166    0.12479
 38 C     0.13583   -0.23925    0.33147
 39 C    -0.27693   -1.60659    2.55349
 40 C     0.04397   -0.17984    0.17917
 41 H     0.02548    0.08123    0.08051
 42 H     0.29058   -0.18334    0.05739
 43 H    -0.12942   -0.76388    1.58958
 44 H    -0.31435   -0.18628    0.74826
 45 H    -0.01168   -0.00538    0.00561
 46 H    -0.07188    0.00695    0.00477
 47 H     0.04032   -0.20730    1.22324
 48 H     0.13426   -0.05223   -0.13373
 49 N     1.87572    1.57296   -1.56394
 50 N    -3.26760    2.66646   -5.47233

System changes: positions 

Initializing position-dependent things.

Density initialized from wave functions
       .-----------------------.  
      /|                       |  
     / |                       |  
    /  |                       |  
   /   |                       |  
  /    |                       |  
 *     |                       |  
 |     |                       |  
 |     |                       |  
 |     |                       |  
 |     |                       |  
 |     |                       |  
 |     |                   H   O  
 |     H                 H  C  |  
 |    C|                   H   |  
 |     H                   CO  |  
 |   H Li      Li        H     |  
 |     |                       |  
 |   Li|     Li      Li H      |  
 |     |  Li      Li      Li   |  
 N Li  |   Li      Li N        |  
 |     |Li      Li      Li     |  
 |     |         Li            |  
 |   LLi     LLi     LLi       |  
 |     |  Li      Li      Li   |  
 | Li  |   Li      Li          |  
 |     |Li      Li      Li     |  
 Li    | Li      Li            |  
 |    Li      Li      Li       |  
 |     |                       |  
 |     |                       |  
 |     |                       |  
 |     |                       |  
 |     |                       |  
 |     |                       |  
 |     .-----------------------.  
 |    /                       /   
 |   /                       /    
 |  /                       /     
 | /                       /      
 |/                       /       
 *-----------------------*        

Positions:
   0 Li     1.617037    1.617037   10.000000    ( 0.0000,  0.0000,  0.0000)
   1 Li     4.851111    1.617037   10.000000    ( 0.0000,  0.0000,  0.0000)
   2 Li     8.085185    1.617037   10.000000    ( 0.0000,  0.0000,  0.0000)
   3 Li     1.617037    4.851111   10.000000    ( 0.0000,  0.0000,  0.0000)
   4 Li     4.851111    4.851111   10.000000    ( 0.0000,  0.0000,  0.0000)
   5 Li     8.085185    4.851111   10.000000    ( 0.0000,  0.0000,  0.0000)
   6 Li     1.617037    8.085185   10.000000    ( 0.0000,  0.0000,  0.0000)
   7 Li     4.851111    8.085185   10.000000    ( 0.0000,  0.0000,  0.0000)
   8 Li     8.085185    8.085185   10.000000    ( 0.0000,  0.0000,  0.0000)
   9 Li     0.000000    0.000000   11.617037    ( 0.0000,  0.0000,  0.0000)
  10 Li     3.234074    0.000000   11.617037    ( 0.0000,  0.0000,  0.0000)
  11 Li     6.468148    0.000000   11.617037    ( 0.0000,  0.0000,  0.0000)
  12 Li     0.000000    3.234074   11.617037    ( 0.0000,  0.0000,  0.0000)
  13 Li     3.234074    3.234074   11.617037    ( 0.0000,  0.0000,  0.0000)
  14 Li     6.468148    3.234074   11.617037    ( 0.0000,  0.0000,  0.0000)
  15 Li     0.000000    6.468148   11.617037    ( 0.0000,  0.0000,  0.0000)
  16 Li     3.234074    6.468148   11.617037    ( 0.0000,  0.0000,  0.0000)
  17 Li     6.468148    6.468148   11.617037    ( 0.0000,  0.0000,  0.0000)
  18 Li     1.618035    1.618038   13.467071    ( 0.0000,  0.0000,  0.0000)
  19 Li     4.851287    1.616285   13.471921    ( 0.0000,  0.0000,  0.0000)
  20 Li     8.084284    1.618780   13.465771    ( 0.0000,  0.0000,  0.0000)
  21 Li     1.616505    4.851004   13.473417    ( 0.0000,  0.0000,  0.0000)
  22 Li     4.851141    4.851174   13.469634    ( 0.0000,  0.0000,  0.0000)
  23 Li     8.085564    4.851043   13.471999    ( 0.0000,  0.0000,  0.0000)
  24 Li     1.617810    8.084295   13.467599    ( 0.0000,  0.0000,  0.0000)
  25 Li     4.851625    8.085962   13.472507    ( 0.0000,  0.0000,  0.0000)
  26 Li     8.084062    8.083372   13.467018    ( 0.0000,  0.0000,  0.0000)
  27 Li     0.023389   -0.004352   15.294258    ( 0.0000,  0.0000,  0.0000)
  28 Li     3.235668   -0.000127   15.445325    ( 0.0000,  0.0000,  0.0000)
  29 Li     6.478335    0.001179   15.452479    ( 0.0000,  0.0000,  0.0000)
  30 Li     0.000328    3.236324   15.443800    ( 0.0000,  0.0000,  0.0000)
  31 Li     3.234185    3.235453   15.445546    ( 0.0000,  0.0000,  0.0000)
  32 Li     6.466327    3.235459   15.444810    ( 0.0000,  0.0000,  0.0000)
  33 Li     0.000928    6.465272   15.436880    ( 0.0000,  0.0000,  0.0000)
  34 Li     3.234703    6.466922   15.444917    ( 0.0000,  0.0000,  0.0000)
  35 Li     6.465373    6.467271   15.442359    ( 0.0000,  0.0000,  0.0000)
  36 O      9.701646    9.678530   18.603972    ( 0.0000,  0.0000,  0.0000)
  37 O      9.678876    4.839641   18.442288    ( 0.0000,  0.0000,  0.0000)
  38 C      9.706078    7.294973   18.472863    ( 0.0000,  0.0000,  0.0000)
  39 C      8.828398    8.511080   18.520185    ( 0.0000,  0.0000,  0.0000)
  40 C      8.872140    6.018241   18.441797    ( 0.0000,  0.0000,  0.0000)
  41 H     10.361699    7.331436   17.588239    ( 0.0000,  0.0000,  0.0000)
  42 H     10.347649    7.300123   19.350226    ( 0.0000,  0.0000,  0.0000)
  43 H      8.194235    8.540716   17.610206    ( 0.0000,  0.0000,  0.0000)
  44 H      8.172910    8.565511   19.365572    ( 0.0000,  0.0000,  0.0000)
  45 H      8.194472    6.022817   17.569429    ( 0.0000,  0.0000,  0.0000)
  46 H      8.251756    5.947233   19.336964    ( 0.0000,  0.0000,  0.0000)
  47 H      9.162633   10.485433   18.480084    ( 0.0000,  0.0000,  0.0000)
  48 H     10.260189    4.870753   17.662464    ( 0.0000,  0.0000,  0.0000)
  49 N      9.705551    9.751514   16.896634    ( 0.0000,  0.0000,  0.0000)
  50 N      8.568530    9.787036   16.783934    ( 0.0000,  0.0000,  0.0000)

Unit cell:
           periodic     x           y           z      points  spacing
  1. axis:    yes    9.702222    0.000000    0.000000    60     0.1617
  2. axis:    yes    0.000000    9.702222    0.000000    60     0.1617
  3. axis:    no     0.000000    0.000000   28.351111   176     0.1611

  Lengths:   9.702222   9.702222  28.351111
  Angles:   90.000000  90.000000  90.000000

Effective grid spacing dv^(1/3) = 0.1615

     iter     time        total  log10-change:
                         energy  eigst   dens
iter:   1 22:33:04  -347.109652  -0.74
iter:   2 22:33:15  -347.099279  -1.25  -1.99
iter:   3 22:33:24  -347.092711c -1.70  -2.03
iter:   4 22:33:32  -347.079704c -1.64  -2.18
Writing to output.gpw (mode='')

iter:   5 22:33:40  -347.089683c -2.05  -2.34
iter:   6 22:33:48  -347.084453c -2.25  -2.25
iter:   7 22:33:56  -347.074483c -1.94  -2.32
iter:   8 22:34:04  -347.075301c -2.50  -2.53
iter:   9 22:34:12  -347.074446c -2.53  -2.62
Writing to output.gpw (mode='')

iter:  10 22:34:20  -347.074182c -3.18  -2.79
iter:  11 22:34:28  -347.074435c -3.22  -2.94
iter:  12 22:34:36  -347.074362c -3.45  -3.06
iter:  13 22:34:44  -347.074215c -3.50  -3.15
iter:  14 22:34:52  -347.074319c -3.58  -3.33
Writing to output.gpw (mode='')

iter:  15 22:35:00  -347.074327c -3.94  -3.42
iter:  16 22:35:11  -347.074275c -3.98  -3.48
iter:  17 22:35:19  -347.074345c -4.28  -3.59
iter:  18 22:35:27  -347.074336c -4.19  -3.62
iter:  19 22:35:35  -347.074348c -4.24  -3.61
Writing to output.gpw (mode='')

iter:  20 22:35:43  -347.074362c -4.56  -3.72
iter:  21 22:35:51  -347.074363c -4.61  -4.02c
iter:  22 22:35:59  -347.074368c -4.76  -4.10c
iter:  23 22:36:07  -347.074379c -4.87  -4.27c
iter:  24 22:36:15  -347.074380c -4.89  -4.27c
Writing to output.gpw (mode='')

iter:  25 22:36:23  -347.074382c -5.00  -4.34c
iter:  26 22:36:31  -347.074387c -5.07  -4.44c
iter:  27 22:36:39  -347.074390c -5.18  -4.56c
iter:  28 22:36:47  -347.074389c -5.52  -4.60c
iter:  29 22:36:55  -347.074392c -5.46  -4.69c
Writing to output.gpw (mode='')

iter:  30 22:37:03  -347.074394c -5.42  -4.74c
iter:  31 22:37:11  -347.074394c -5.63  -4.78c
iter:  32 22:37:19  -347.074393c -5.81  -4.75c
iter:  33 22:37:27  -347.074393c -5.89  -4.84c
iter:  34 22:37:34  -347.074393c -6.16  -4.81c
Writing to output.gpw (mode='')

iter:  35 22:37:42  -347.074393c -5.99  -4.79c
iter:  36 22:37:50  -347.074395c -5.90  -4.76c
iter:  37 22:37:58  -347.074395c -6.35  -4.98c
iter:  38 22:38:06  -347.074396c -6.16  -4.96c
iter:  39 22:38:19  -347.074398c -6.13  -5.03c
Writing to output.gpw (mode='')

iter:  40 22:38:27  -347.074399c -6.45  -5.05c
iter:  41 22:38:35  -347.074399c -6.58  -5.20c
iter:  42 22:38:43  -347.074400c -6.70  -5.27c
iter:  43 22:38:51  -347.074401c -6.62  -5.32c
iter:  44 22:38:59  -347.074401c -6.68  -5.41c
Writing to output.gpw (mode='')

iter:  45 22:39:07  -347.074401c -6.85  -5.55c
iter:  46 22:39:15  -347.074401c -6.92  -5.63c
iter:  47 22:39:23  -347.074401c -6.68  -5.65c
iter:  48 22:39:31  -347.074401c -6.82  -5.66c
iter:  49 22:39:39  -347.074401c -7.31  -5.65c
Writing to output.gpw (mode='')

iter:  50 22:39:47  -347.074401c -7.20  -5.61c
iter:  51 22:39:55  -347.074401c -7.44c -5.57c

Converged after 51 iterations.

Dipole moment: (-10.304991, -22.566891, 0.170796) |e|*Ang

Energy contributions relative to reference atoms: (reference = -17528.314784)

Kinetic:       +208.053317
Potential:     -192.344779
External:        +0.000000
XC:            -363.889257
Entropy (-ST):   -0.150674
Local:           +1.181656
--------------------------
Free energy:   -347.149738
Extrapolated:  -347.074401

Dipole-layer corrected work functions: 3.394472, 3.066144 eV

Showing only first 2 kpts
 Kpt  Band  Eigenvalues  Occupancy
  0    37     -3.46442    1.98165
  0    38     -3.37953    1.90373
  0    39     -3.12584    0.22028
  0    40     -3.00724    0.02283

  1    37     -3.29308    1.55649
  1    38     -3.24937    1.18831
  1    39     -3.15453    0.36021
  1    40     -3.10658    0.15531


Fermi level: -3.23031

Gap: 0.020 eV
Transition (v -> c):
  (s=0, k=2, n=38, [0.12, 0.12, 0.00]) -> (s=0, k=4, n=39, [0.38, -0.38, 0.00])
Writing to output.gpw (mode='')


Forces in eV/Ang:
  0 Li    0.01706    0.00861   -0.28449
  1 Li   -0.00470   -0.00520   -0.26695
  2 Li   -0.00923    0.00976   -0.28641
  3 Li   -0.00721   -0.00068   -0.25934
  4 Li   -0.00267   -0.00009   -0.28815
  5 Li    0.00505    0.00402   -0.26093
  6 Li    0.01153   -0.01077   -0.28459
  7 Li   -0.00047    0.00682   -0.25809
  8 Li   -0.00935   -0.01354   -0.28197
  9 Li   -0.00705    0.00350    0.37228
 10 Li    0.00756   -0.00110    0.24845
 11 Li   -0.00920   -0.00091    0.27233
 12 Li    0.00282    0.01533    0.25582
 13 Li    0.00480    0.00050    0.25849
 14 Li   -0.00493    0.00860    0.26336
 15 Li   -0.00037   -0.01477    0.25933
 16 Li    0.01132    0.00059    0.25455
 17 Li   -0.00530   -0.01441    0.25216
 18 Li    0.03808    0.04099   -0.09054
 19 Li    0.00619   -0.02240    0.06984
 20 Li   -0.03337    0.05584   -0.12960
 21 Li   -0.01469   -0.00496    0.11126
 22 Li    0.00013    0.00424   -0.00355
 23 Li    0.01142   -0.00510    0.06796
 24 Li    0.03456   -0.03635   -0.07259
 25 Li    0.01721    0.02225    0.08430
 26 Li   -0.04237   -0.05655   -0.08106
 27 Li    0.73738   -0.21486   -4.47673
 28 Li    0.05161   -0.00489   -0.01704
 29 Li    0.27441    0.03108    0.16650
 30 Li    0.01526    0.07951   -0.07457
 31 Li    0.00289    0.03988   -0.01089
 32 Li   -0.06174    0.04931   -0.03981
 33 Li    0.02456   -0.08406   -0.27522
 34 Li    0.01368   -0.03331   -0.03050
 35 Li   -0.07829   -0.02098   -0.10765
 36 O     0.32718   -0.73897    4.79277
 37 O    -0.10361   -0.05771    0.09543
 38 C     0.08368   -0.19203    0.31616
 39 C    -0.25470   -1.23007    2.23677
 40 C     0.04259   -0.16644    0.16221
 41 H    -0.00422    0.09258    0.10209
 42 H     0.28680   -0.19734    0.07050
 43 H    -0.12495   -0.62802    1.42960
 44 H    -0.35158   -0.29490    0.73811
 45 H     0.00175   -0.00520    0.01929
 46 H    -0.06777   -0.00752    0.00917
 47 H     0.07296   -0.29092    1.18905
 48 H     0.11465   -0.04964   -0.10415
 49 N     1.70637    1.60447   -1.56418
 50 N    -2.74740    2.22144   -4.57186

System changes: positions 

Initializing position-dependent things.

Density initialized from wave functions
       .-----------------------.  
      /|                       |  
     / |                       |  
    /  |                       |  
   /   |                       |  
  /    |                       |  
 *     |                       |  
 |     |                       |  
 |     |                       |  
 |     |                       |  
 |     |                       |  
[...]
  0    37     -3.28644    1.97431
  0    38     -3.12825    1.52926
  0    39     -3.04705    0.78070
  0    40     -2.83636    0.01876

  1    37     -3.31270    1.98473
  1    38     -3.17304    1.77667
  1    39     -2.99555    0.37213
  1    40     -2.84912    0.02415


Fermi level: -3.06934

No gap
Writing to output.gpw (mode='')


Forces in eV/Ang:
  0 Li   -0.00261    0.00737   -0.29658
  1 Li   -0.00225   -0.00479   -0.29793
  2 Li    0.00343    0.00037   -0.26744
  3 Li    0.01074    0.00008   -0.29369
  4 Li   -0.01190    0.01271   -0.28889
  5 Li    0.01137   -0.00571   -0.30114
  6 Li    0.01405   -0.00976   -0.28816
  7 Li   -0.00860   -0.00606   -0.28733
  8 Li   -0.01108    0.00257   -0.29372
  9 Li   -0.04960    0.10608    0.30271
 10 Li   -0.02465    0.07360    0.27058
 11 Li    0.06732    0.10431    0.33172
 12 Li   -0.03573   -0.06254    0.29455
 13 Li   -0.03742   -0.04509    0.26764
 14 Li    0.06404   -0.08433    0.30623
 15 Li   -0.01134    0.01293    0.34583
 16 Li   -0.02013   -0.02181    0.34354
 17 Li    0.02365   -0.04634    0.33311
 18 Li   -0.00972   -0.01111   -0.01158
 19 Li    0.01382    0.00978    0.00651
 20 Li    0.01764   -0.00726   -0.04086
 21 Li    0.00181   -0.00393   -0.00650
 22 Li    0.00768    0.01369   -0.00008
 23 Li   -0.00398    0.01733   -0.01297
 24 Li    0.00117    0.00909   -0.00140
 25 Li   -0.01519    0.00284   -0.00482
 26 Li    0.00923    0.01196   -0.00275
 27 Li   -0.01212   -0.02265    0.02019
 28 Li    0.00013    0.00392   -0.00103
 29 Li    0.00603    0.02544    0.00573
 30 Li    0.01330    0.01066    0.01978
 31 Li   -0.01205   -0.00355   -0.02726
 32 Li    0.01764    0.01020    0.01935
 33 Li    0.00231   -0.02280   -0.00927
 34 Li    0.00026   -0.00042    0.00412
 35 Li    0.00754    0.01587   -0.00646
 36 O     0.00450   -0.00732   -0.02306
 37 O     0.00783    0.01321   -0.00638
 38 C     0.00860   -0.01962   -0.01760
 39 C     0.01161   -0.00623   -0.02722
 40 C    -0.00572   -0.00952   -0.00181
 41 H    -0.00575    0.04272   -0.01583
 42 H     0.02709    0.01714    0.00883
 43 H    -0.00867   -0.02350   -0.01457
 44 H     0.01629   -0.00415   -0.00307
 45 H    -0.00953   -0.03108   -0.01537
 46 H     0.00461   -0.01285    0.00776
 47 H    -0.01809   -0.01162   -0.00153
 48 H     0.01027   -0.03108   -0.02054
 49 N     0.03029    0.03924    0.00232
 50 N    -0.01622   -0.05847   -0.00691

System changes: positions 

Initializing position-dependent things.

Density initialized from wave functions
       .-----------------------.  
      /|                       |  
     / |                       |  
    /  |                       |  
   /   |                       |  
  /    |                       |  
 *     |                       |  
 |     |                       |  
 |     |                       |  
 |     |                       |  
 |     |                       |  
 |     |                  H    |  
 |     |                    C O|  
 |   C H                  H    |  
 |     H                 H     |  
 |     |                 H C   |  
 |  O  H       Li      Li      |  
 |     |               H       |  
 |   Li|     Li      Li        |  
 |     |  Li      Li      LLi  |  
 |     |   Li      Li  N       |  
 |     |Li      Li   N  LLi    |  
 |     |                       |  
 |   LLi     LLi     LLi       |  
 |     |  Li      Li      Li   |  
 | Li  |   Li      Li          |  
 |     |Li      Li      Li     |  
 Li    | Li      Li            |  
 |    Li      Li      Li       |  
 |     |                       |  
 |     |                       |  
 |     |                       |  
 |     |                       |  
 |     |                       |  
 |     |                       |  
 |     .-----------------------.  
 |    /                       /   
 |   /                       /    
 |  /                       /     
 | /                       /      
 |/                       /       
 *-----------------------*        

Positions:
   0 Li     1.617037    1.617037   10.000000    ( 0.0000,  0.0000,  0.0000)
   1 Li     4.851111    1.617037   10.000000    ( 0.0000,  0.0000,  0.0000)
   2 Li     8.085185    1.617037   10.000000    ( 0.0000,  0.0000,  0.0000)
   3 Li     1.617037    4.851111   10.000000    ( 0.0000,  0.0000,  0.0000)
   4 Li     4.851111    4.851111   10.000000    ( 0.0000,  0.0000,  0.0000)
   5 Li     8.085185    4.851111   10.000000    ( 0.0000,  0.0000,  0.0000)
   6 Li     1.617037    8.085185   10.000000    ( 0.0000,  0.0000,  0.0000)
   7 Li     4.851111    8.085185   10.000000    ( 0.0000,  0.0000,  0.0000)
   8 Li     8.085185    8.085185   10.000000    ( 0.0000,  0.0000,  0.0000)
   9 Li     0.000000    0.000000   11.617037    ( 0.0000,  0.0000,  0.0000)
  10 Li     3.234074    0.000000   11.617037    ( 0.0000,  0.0000,  0.0000)
  11 Li     6.468148    0.000000   11.617037    ( 0.0000,  0.0000,  0.0000)
  12 Li     0.000000    3.234074   11.617037    ( 0.0000,  0.0000,  0.0000)
  13 Li     3.234074    3.234074   11.617037    ( 0.0000,  0.0000,  0.0000)
  14 Li     6.468148    3.234074   11.617037    ( 0.0000,  0.0000,  0.0000)
  15 Li     0.000000    6.468148   11.617037    ( 0.0000,  0.0000,  0.0000)
  16 Li     3.234074    6.468148   11.617037    ( 0.0000,  0.0000,  0.0000)
  17 Li     6.468148    6.468148   11.617037    ( 0.0000,  0.0000,  0.0000)
  18 Li     1.584869    1.730863   13.612292    ( 0.0000,  0.0000,  0.0000)
  19 Li     4.825757    1.561994   13.513062    ( 0.0000,  0.0000,  0.0000)
  20 Li     8.123155    1.658884   13.728643    ( 0.0000,  0.0000,  0.0000)
  21 Li     1.605321    4.845302   13.542359    ( 0.0000,  0.0000,  0.0000)
  22 Li     4.873055    4.705059   13.475126    ( 0.0000,  0.0000,  0.0000)
  23 Li     8.138300    4.785931   13.523453    ( 0.0000,  0.0000,  0.0000)
  24 Li     1.590178    8.240143   13.473175    ( 0.0000,  0.0000,  0.0000)
  25 Li     4.848074    8.080363   13.446613    ( 0.0000,  0.0000,  0.0000)
  26 Li     8.052330    8.142673   13.477621    ( 0.0000,  0.0000,  0.0000)
  27 Li    -0.192842    0.373154   15.782595    ( 0.0000,  0.0000,  0.0000)
  28 Li     3.136414   -0.060696   15.472802    ( 0.0000,  0.0000,  0.0000)
  29 Li     6.405391   -0.154522   15.472136    ( 0.0000,  0.0000,  0.0000)
  30 Li    -0.105866    3.600647   16.098700    ( 0.0000,  0.0000,  0.0000)
  31 Li     3.375713    3.305348   15.516581    ( 0.0000,  0.0000,  0.0000)
  32 Li     6.594874    2.935691   15.608081    ( 0.0000,  0.0000,  0.0000)
  33 Li     0.069684    6.754696   15.236793    ( 0.0000,  0.0000,  0.0000)
  34 Li     3.275930    6.495470   15.339978    ( 0.0000,  0.0000,  0.0000)
  35 Li     6.378530    6.295792   15.304479    ( 0.0000,  0.0000,  0.0000)
  36 O      9.562866    9.399683   19.125377    ( 0.0000,  0.0000,  0.0000)
  37 O      9.847497    4.776731   17.782219    ( 0.0000,  0.0000,  0.0000)
  38 C      9.708101    7.047854   18.768226    ( 0.0000,  0.0000,  0.0000)
  39 C      8.765436    8.202661   19.095623    ( 0.0000,  0.0000,  0.0000)
  40 C      8.969370    5.766097   18.396775    ( 0.0000,  0.0000,  0.0000)
  41 H     10.324236    7.362588   17.916564    ( 0.0000,  0.0000,  0.0000)
  42 H     10.387491    6.869962   19.607310    ( 0.0000,  0.0000,  0.0000)
  43 H      7.991225    8.285386   18.321071    ( 0.0000,  0.0000,  0.0000)
  44 H      8.268118    8.043230   20.061718    ( 0.0000,  0.0000,  0.0000)
  45 H      8.174601    5.979124   17.671888    ( 0.0000,  0.0000,  0.0000)
  46 H      8.506950    5.294944   19.268225    ( 0.0000,  0.0000,  0.0000)
  47 H      8.982882   10.145560   19.322647    ( 0.0000,  0.0000,  0.0000)
  48 H     10.745652    5.140234   17.728179    ( 0.0000,  0.0000,  0.0000)
  49 N      8.458969   11.832475   15.870684    ( 0.0000,  0.0000,  0.0000)
  50 N      7.636881   10.891200   15.746960    ( 0.0000,  0.0000,  0.0000)

Unit cell:
           periodic     x           y           z      points  spacing
  1. axis:    yes    9.702222    0.000000    0.000000    60     0.1617
  2. axis:    yes    0.000000    9.702222    0.000000    60     0.1617
  3. axis:    no     0.000000    0.000000   28.351111   176     0.1611

  Lengths:   9.702222   9.702222  28.351111
  Angles:   90.000000  90.000000  90.000000

Effective grid spacing dv^(1/3) = 0.1615

     iter     time        total  log10-change:
                         energy  eigst   dens
iter:   1 07:38:30  -353.830226  -2.18
iter:   2 07:38:39  -353.829910  -2.97  -2.57
iter:   3 07:38:46  -353.829549c -3.52  -2.67
iter:   4 07:38:54  -353.828846c -3.37  -2.74
Writing to output.gpw (mode='')

iter:   5 07:39:02  -353.828824c -4.00  -3.01
iter:   6 07:39:10  -353.828737c -3.57  -3.11
iter:   7 07:39:18  -353.828716c -3.67  -3.31
iter:   8 07:39:26  -353.828723c -4.20  -3.40
iter:   9 07:39:34  -353.828700c -4.61  -3.44
Writing to output.gpw (mode='')

iter:  10 07:39:42  -353.828715c -4.95  -3.71
iter:  11 07:39:50  -353.828713c -5.24  -3.84
iter:  12 07:39:57  -353.828716c -5.33  -3.86
iter:  13 07:40:05  -353.828712c -5.58  -3.98
iter:  14 07:40:13  -353.828715c -5.79  -4.19c
Writing to output.gpw (mode='')

iter:  15 07:40:21  -353.828715c -5.88  -4.27c
iter:  16 07:40:29  -353.828715c -5.94  -4.39c
iter:  17 07:40:37  -353.828714c -6.29  -4.56c
iter:  18 07:40:45  -353.828715c -6.56  -4.58c
iter:  19 07:40:52  -353.828714c -6.53  -4.76c
Writing to output.gpw (mode='')

iter:  20 07:41:00  -353.828714c -6.78  -4.88c
iter:  21 07:41:08  -353.828714c -7.00  -4.89c
iter:  22 07:41:16  -353.828714c -7.04  -4.92c
iter:  23 07:41:24  -353.828714c -7.21  -5.07c
iter:  24 07:41:32  -353.828714c -7.46c -5.18c

Converged after 24 iterations.

Dipole moment: (-0.843088, 8.236311, 0.340728) |e|*Ang

Energy contributions relative to reference atoms: (reference = -17528.314784)

Kinetic:       +175.023482
Potential:     -168.817029
External:        +0.000000
XC:            -361.162104
Entropy (-ST):   -0.154012
Local:           +1.203943
--------------------------
Free energy:   -353.905720
Extrapolated:  -353.828714

Dipole-layer corrected work functions: 3.396501, 2.741504 eV

Showing only first 2 kpts
 Kpt  Band  Eigenvalues  Occupancy
  0    37     -3.28611    1.97431
  0    38     -3.12846    1.53320
  0    39     -3.04676    0.78122
  0    40     -2.83560    0.01861

  1    37     -3.31207    1.98464
  1    38     -3.17208    1.77423
  1    39     -2.99520    0.37205
  1    40     -2.84883    0.02418


Fermi level: -3.06900

No gap
Writing to output.gpw (mode='')


Forces in eV/Ang:
  0 Li   -0.00268    0.00720   -0.29679
  1 Li   -0.00219   -0.00482   -0.29779
  2 Li    0.00355    0.00014   -0.26738
  3 Li    0.01067   -0.00010   -0.29395
  4 Li   -0.01186    0.01269   -0.28861
  5 Li    0.01134   -0.00584   -0.30113
  6 Li    0.01414   -0.00967   -0.28803
  7 Li   -0.00863   -0.00617   -0.28781
  8 Li   -0.01087    0.00251   -0.29375
  9 Li   -0.04981    0.10616    0.30056
 10 Li   -0.02562    0.07373    0.27129
 11 Li    0.06692    0.10336    0.33214
 12 Li   -0.03581   -0.06186    0.29459
 13 Li   -0.03805   -0.04540    0.26898
 14 Li    0.06483   -0.08396    0.30602
 15 Li   -0.01079    0.01472    0.34607
 16 Li   -0.02181   -0.02074    0.34421
 17 Li    0.02431   -0.04415    0.33397
 18 Li   -0.00628   -0.00768   -0.01383
 19 Li    0.01488    0.00832    0.00802
 20 Li    0.01295   -0.00483   -0.02828
 21 Li    0.00169   -0.00433   -0.00576
 22 Li    0.00714    0.01280    0.00075
 23 Li   -0.00440    0.01607   -0.01337
 24 Li    0.00387    0.00508   -0.00573
 25 Li   -0.01110    0.00558   -0.00390
 26 Li    0.00565    0.01001   -0.00399
 27 Li   -0.01247   -0.01783    0.02592
 28 Li    0.00225    0.00366   -0.00020
 29 Li   -0.00491    0.01151   -0.00113
 30 Li    0.00811   -0.00530    0.02047
 31 Li   -0.01067   -0.00233   -0.02660
 32 Li    0.01102    0.00345    0.01533
 33 Li    0.00201   -0.02443   -0.00966
 34 Li   -0.00127   -0.00102    0.00443
 35 Li    0.00847    0.01523   -0.00654
 36 O    -0.00709    0.01866   -0.02608
 37 O     0.00219   -0.00144   -0.00923
 38 C     0.00740   -0.02567   -0.01849
 39 C     0.00429   -0.01797   -0.01605
 40 C     0.00119   -0.03487   -0.01064
 41 H    -0.00309    0.02637   -0.00712
 42 H     0.02062    0.00705   -0.01912
 43 H    -0.01227   -0.01266   -0.00013
 44 H     0.00307   -0.00660   -0.01672
 45 H     0.00228   -0.00098   -0.00758
 46 H     0.01189   -0.00633    0.02089
 47 H    -0.00446   -0.00600   -0.00387
 48 H     0.01794   -0.01945   -0.01373
 49 N     0.02320    0.03036   -0.02055
 50 N     0.00491    0.03445   -0.00491

Timing:                                      incl.     excl.
-------------------------------------------------------------------
Density initialized from wave functions:     9.017     9.014   0.0% |
 Symmetrize density:                         0.003     0.003   0.0% |
Forces:                                     64.450    64.450   0.2% |
Hamiltonian:                               743.973     0.017   0.0% |
 Atomic:                                     0.028     0.027   0.0% |
  XC Correction:                             0.000     0.000   0.0% |
 Calculate atomic Hamiltonians:              0.080     0.080   0.0% |
 Communicate:                                9.207     9.207   0.0% |
 Hartree integrate/restrict:                 2.862     2.862   0.0% |
 Initialize Hamiltonian:                     0.000     0.000   0.0% |
 Poisson:                                   36.098    13.284   0.0% |
  Communicate from 1D:                       3.632     3.632   0.0% |
  Communicate from 2D:                       3.470     3.470   0.0% |
  Communicate to 1D:                         2.028     2.028   0.0% |
  Communicate to 2D:                         3.960     3.960   0.0% |
  FFT 1D:                                    4.767     4.767   0.0% |
  FFT 2D:                                    4.958     4.958   0.0% |
 XC 3D grid:                               694.990   106.844   0.3% |
  VdW-DF integral:                         588.146     4.799   0.0% |
   Convolution:                             51.496    51.496   0.1% |
   FFT:                                     22.610    22.610   0.1% |
   gather:                                 204.683   204.683   0.6% |
   hmm1:                                    19.914    19.914   0.1% |
   hmm2:                                    25.900    25.900   0.1% |
   iFFT:                                    23.206    23.206   0.1% |
   potential:                              231.758     6.115   0.0% |
    collect:                                36.009    36.009   0.1% |
    p1:                                    106.265   106.265   0.3% |
    p2:                                     40.016    40.016   0.1% |
    sum:                                    43.353    43.353   0.1% |
   splines:                                  3.781     3.781   0.0% |
 vbar:                                       0.691     0.691   0.0% |
LCAO initialization:                         1.044     0.184   0.0% |
 LCAO eigensolver:                           0.207     0.000   0.0% |
  Calculate projections:                     0.000     0.000   0.0% |
  DenseAtomicCorrection:                     0.000     0.000   0.0% |
  Distribute overlap matrix:                 0.187     0.187   0.0% |
  Orbital Layouts:                           0.017     0.017   0.0% |
  Potential matrix:                          0.001     0.001   0.0% |
  Sum over cells:                            0.001     0.001   0.0% |
 LCAO to grid:                               0.533     0.533   0.0% |
 Set positions (LCAO WFS):                   0.120     0.068   0.0% |
  Basic WFS set positions:                   0.001     0.001   0.0% |
  Basis functions set positions:             0.000     0.000   0.0% |
  P tci:                                     0.000     0.000   0.0% |
  ST tci:                                    0.014     0.014   0.0% |
  mktci:                                     0.035     0.035   0.0% |
Redistribute:                                0.062     0.062   0.0% |
SCF-cycle:                               34375.848   589.184   1.7% ||
 Davidson:                                9988.714  2959.149   8.4% |--|
  Apply hamiltonian:                       640.318   640.318   1.8% ||
  Subspace diag:                          1868.826     0.495   0.0% |
   calc_h_matrix:                          996.203   340.858   1.0% |
    Apply hamiltonian:                     655.345   655.345   1.9% ||
   diagonalize:                             55.162    55.162   0.2% |
   rotate_psi:                             816.966   816.966   2.3% ||
  calc. matrices:                         3185.705  1650.262   4.7% |-|
   Apply hamiltonian:                     1535.442  1535.442   4.3% |-|
  diagonalize:                              30.124    30.124   0.1% |
  rotate_psi:                             1304.592  1304.592   3.7% ||
 Density:                                  179.455     0.127   0.0% |
  Atomic density matrices:                  19.174    19.174   0.1% |
  Mix:                                      78.179    78.179   0.2% |
  Multipole moments:                         9.663     9.663   0.0% |
  Pseudo density:                           72.312    72.213   0.2% |
   Symmetrize density:                       0.099     0.099   0.0% |
 Hamiltonian:                            23593.415     0.528   0.0% |
  Atomic:                                    1.079     1.067   0.0% |
   XC Correction:                            0.011     0.011   0.0% |
  Calculate atomic Hamiltonians:             1.515     1.515   0.0% |
  Communicate:                             363.160   363.160   1.0% |
  Hartree integrate/restrict:               93.354    93.354   0.3% |
  Poisson:                                1151.907   426.051   1.2% |
   Communicate from 1D:                    114.796   114.796   0.3% |
   Communicate from 2D:                    112.131   112.131   0.3% |
   Communicate to 1D:                       65.477    65.477   0.2% |
   Communicate to 2D:                      129.911   129.911   0.4% |
   FFT 1D:                                 150.371   150.371   0.4% |
   FFT 2D:                                 153.169   153.169   0.4% |
  XC 3D grid:                            21960.893  3409.311   9.6% |---|
   VdW-DF integral:                      18551.582   150.904   0.4% |
    Convolution:                          1639.497  1639.497   4.6% |-|
    FFT:                                   721.238   721.238   2.0% ||
    gather:                               6322.143  6322.143  17.9% |------|
    hmm1:                                  630.616   630.616   1.8% ||
    hmm2:                                  824.948   824.948   2.3% ||
    iFFT:                                  738.912   738.912   2.1% ||
    potential:                            7523.284   195.023   0.6% |
     collect:                             1170.655  1170.655   3.3% ||
     p1:                                  3381.482  3381.482   9.6% |---|
     p2:                                  1271.596  1271.596   3.6% ||
     sum:                                 1504.528  1504.528   4.3% |-|
    splines:                                 0.041     0.041   0.0% |
  vbar:                                     20.979    20.979   0.1% |
 Orthonormalize:                            25.080     0.017   0.0% |
  calc_s_matrix:                             4.242     4.242   0.0% |
  inverse-cholesky:                          5.830     5.830   0.0% |
  projections:                               0.003     0.003   0.0% |
  rotate_psi_s:                             14.989    14.989   0.0% |
Set symmetry:                                0.002     0.002   0.0% |
Other:                                     143.743   143.743   0.4% |
-------------------------------------------------------------------
Total:                                             35338.138 100.0%

Memory usage: 1.20 GiB
Date: Sat Mar 11 07:41:33 2023
