
  ___ ___ ___ _ _ _  
 |   |   |_  | | | | 
 | | | | | . | | | | 
 |__ |  _|___|_____|  22.8.0
 |___|_|             

User:   vazumah@c18.hercules
Date:   Sat Mar  4 04:28:28 2023
Arch:   x86_64
Pid:    4426
CWD:    /home/vazumah/Python_projects/LiNRR/Li_adsorb_studies/proton_donors/N2_with_proton_donor/Li_BCC_100/adsorbates/HBr/bridge/0.0_1.617/N2_z
Python: 3.10.8
gpaw:   /home/vazumah/.conda/envs/GPAW/lib/python3.10/site-packages/gpaw
_gpaw:  /home/vazumah/.conda/envs/GPAW/lib/python3.10/site-packages/
        _gpaw.cpython-310-x86_64-linux-gnu.so
ase:    /home/vazumah/.conda/envs/GPAW/lib/python3.10/site-packages/ase (version 3.22.1)
numpy:  /home/vazumah/.conda/envs/GPAW/lib/python3.10/site-packages/numpy (version 1.24.1)
scipy:  /home/vazumah/.conda/envs/GPAW/lib/python3.10/site-packages/scipy (version 1.10.0)
libxc:  5.2.3
units:  Angstrom and eV
cores: 24
OpenMP: True
OMP_NUM_THREADS: 1

Reading from output.gpw
Reading input parameters:
  h: 0.16
  kpts: {size: [4, 4, 1]}
  occupations: {name: fermi-dirac,
                width: 0.05}
  poissonsolver: {dipolelayer: xy}
  xc: BEEF-vdW

Initialize ...

species:
  Li:
    name: Lithium
    id: 830b4218f175192f93f959cfc0aad614
    Z: 3.0
    valence: 1
    core: 2
    charge: 0.0
    file: /home/vazumah/.conda/envs/GPAW/share/gpaw/Li.PBE.gz
    compensation charges: {type: gauss,
                           rc: 0.33,
                           lmax: 2}
    cutoffs: {filter: 1.91,
              core: 2.55}
    valence states:
      #              energy  rcut
      - 2s(1.00)    -2.874   1.058
      - 2p(0.00)    -1.090   1.058
      -  s          24.337   1.058
  
    # Using partial waves for Li as LCAO basis

  Br:
    name: Bromine
    id: 39dc90fcf3bf77f2d83386b416c2c495
    Z: 35.0
    valence: 7
    core: 28
    charge: 0.0
    file: /home/vazumah/.conda/envs/GPAW/share/gpaw/Br.PBE.gz
    compensation charges: {type: gauss,
                           rc: 0.35,
                           lmax: 2}
    cutoffs: {filter: 1.98,
              core: 2.38}
    valence states:
      #              energy  rcut
      - 4s(2.00)   -20.121   1.111
      - 4p(5.00)    -7.861   1.111
      -  s           7.091   1.111
      -  p          19.351   1.111
      -  d           0.000   1.111
  
    # Using partial waves for Br as LCAO basis

  H:
    name: Hydrogen
    id: d65de229564ff8ea4db303e23b6d1ecf
    Z: 1.0
    valence: 1
    core: 0
    charge: 0.0
    file: /home/vazumah/.conda/envs/GPAW/share/gpaw/H.PBE.gz
    compensation charges: {type: gauss,
                           rc: 0.15,
                           lmax: 2}
    cutoffs: {filter: 0.85,
              core: 0.53}
    valence states:
      #              energy  rcut
      - 1s(1.00)    -6.494   0.476
      -  s          20.717   0.476
      -  p           0.000   0.476
  
    # Using partial waves for H as LCAO basis

  N:
    name: Nitrogen
    id: f7500608b86eaa90eef8b1d9a670dc53
    Z: 7.0
    valence: 5
    core: 2
    charge: 0.0
    file: /home/vazumah/.conda/envs/GPAW/share/gpaw/N.PBE.gz
    compensation charges: {type: gauss,
                           rc: 0.18,
                           lmax: 2}
    cutoffs: {filter: 1.11,
              core: 0.96}
    valence states:
      #              energy  rcut
      - 2s(2.00)   -18.583   0.603
      - 2p(3.00)    -7.089   0.529
      -  s           8.629   0.603
      -  p          20.123   0.529
      -  d           0.000   0.577
  
    # Using partial waves for N as LCAO basis

Reference energy: -81178.542429  # eV

Spin-paired calculation

Convergence criteria:
 Maximum [total energy] change in last 3 cyles: 0.0005 eV / electron
 Maximum integral of absolute [dens]ity change: 0.0001 electrons / valence electron
 Maximum integral of absolute [eigenst]ate change: 4e-08 eV^2 / valence electron
 Maximum number of scf [iter]ations: 333
 (Square brackets indicate name in SCF output, whereas a 'c' in
 the SCF output indicates the quantity has converged.)

Symmetries present (total): 1

  ( 1  0  0)
  ( 0  1  0)
  ( 0  0  1)

16 k-points: 4 x 4 x 1 Monkhorst-Pack grid
8 k-points in the irreducible part of the Brillouin zone
       k-points in crystal coordinates                weights
   0:     0.12500000   -0.37500000    0.00000000          2/16
   1:     0.12500000   -0.12500000    0.00000000          2/16
   2:     0.12500000    0.12500000    0.00000000          2/16
   3:     0.12500000    0.37500000    0.00000000          2/16
   4:     0.37500000   -0.37500000    0.00000000          2/16
   5:     0.37500000   -0.12500000    0.00000000          2/16
   6:     0.37500000    0.12500000    0.00000000          2/16
   7:     0.37500000    0.37500000    0.00000000          2/16

Wave functions: Uniform real-space grid
  Kinetic energy operator: 6*3+1=19 point O(h^6) finite-difference Laplacian
  ScaLapack parameters: grid=1x1, blocksize=None
  Wavefunction extrapolation:
    Improved wavefunction reuse through dual PAW basis 

Occupation numbers: Fermi-Dirac:
  width: 0.0500  # eV
 

Eigensolver
   Davidson(niter=2) 

Densities:
  Coarse grid: 60*60*168 grid
  Fine grid: 120*120*336 grid
  Total Charge: 0.000000 

Density mixing:
  Method: separate
  Backend: pulay
  Linear mixing parameter: 0.05
  old densities: 5
  Damping of long wavelength oscillations: 50 

Hamiltonian:
  XC and Coulomb potentials evaluated on a 120*120*336 grid
  Using the BEEF-vdW Exchange-Correlation functional
  Interpolation: tri-quintic (5. degree polynomial)
  Poisson solver: FastPoissonSolver using
    Stencil: 6*3+1=19 point O(h^6) finite-difference Laplacian
    FFT axes: [0, 1]
    FST axes: [2]

Dipole correction along z-axis 

XC parameters: BEEF-vdW with 2 nearest neighbor stencil

Memory estimate:
  Process memory now: 226.82 MiB
  Calculator: 395.41 MiB
    Density: 121.75 MiB
      Arrays: 39.61 MiB
      Localized functions: 67.04 MiB
      Mixer: 15.11 MiB
    Hamiltonian: 31.20 MiB
      Arrays: 25.90 MiB
      XC: 0.00 MiB
      Poisson: 0.00 MiB
      vbar: 5.30 MiB
    Wavefunctions: 242.46 MiB
      Arrays psit_nG: 111.79 MiB
      Eigensolver: 127.10 MiB
      Projections: 0.04 MiB
      Projectors: 3.53 MiB

Total number of cores used: 24
Parallelization over k-points: 8
Domain decomposition: 1 x 1 x 3

Number of atoms: 40
Number of atomic orbitals: 157
Number of bands in calculation: 37
Number of valence electrons: 54
Bands to converge: occupied

... initialized

Initializing position-dependent things.

Creating initial wave functions:
  37 bands from LCAO basis set

       .-----------------------.  
      /|                       |  
     / |                       |  
    /  |                       |  
   /   |                       |  
  /    |                       |  
 *     |                       |  
 |     |                       |  
 |     |                       |  
 |     |                       |  
 |     |                       |  
 |     |                 Br    |  
 |     |                       |  
 |     |               H       |  
 |     |       Li      Li      |  
 |     |                       |  
 |   Li|     Li      Li   N    |  
 |     |  Li      Li      Ni   |  
 | Li  |   Li      Li          |  
 |     |Li      Li      Li     |  
 Li    |                       |  
 |   Li|     LLi     Li        |  
 |    Li  Li      Li  Li  Li   |  
 | Li  |   Li      Li          |  
 |     |Li      Li      Li     |  
 Li    | Li      Li            |  
 |    Li      Li      Li       |  
 |     |                       |  
 |     |                       |  
 |     |                       |  
 |     |                       |  
 |     |                       |  
 |     |                       |  
 |     .-----------------------.  
 |    /                       /   
 |   /                       /    
 |  /                       /     
 | /                       /      
 |/                       /       
 *-----------------------*        

Positions:
   0 Li     1.617037    1.617037   10.000000    ( 0.0000,  0.0000,  0.0000)
   1 Li     4.851111    1.617037   10.000000    ( 0.0000,  0.0000,  0.0000)
   2 Li     8.085185    1.617037   10.000000    ( 0.0000,  0.0000,  0.0000)
   3 Li     1.617037    4.851111   10.000000    ( 0.0000,  0.0000,  0.0000)
   4 Li     4.851111    4.851111   10.000000    ( 0.0000,  0.0000,  0.0000)
   5 Li     8.085185    4.851111   10.000000    ( 0.0000,  0.0000,  0.0000)
   6 Li     1.617037    8.085185   10.000000    ( 0.0000,  0.0000,  0.0000)
   7 Li     4.851111    8.085185   10.000000    ( 0.0000,  0.0000,  0.0000)
   8 Li     8.085185    8.085185   10.000000    ( 0.0000,  0.0000,  0.0000)
   9 Li     0.000000    0.000000   11.617037    ( 0.0000,  0.0000,  0.0000)
  10 Li     3.234074    0.000000   11.617037    ( 0.0000,  0.0000,  0.0000)
  11 Li     6.468148    0.000000   11.617037    ( 0.0000,  0.0000,  0.0000)
  12 Li     0.000000    3.234074   11.617037    ( 0.0000,  0.0000,  0.0000)
  13 Li     3.234074    3.234074   11.617037    ( 0.0000,  0.0000,  0.0000)
  14 Li     6.468148    3.234074   11.617037    ( 0.0000,  0.0000,  0.0000)
  15 Li     0.000000    6.468148   11.617037    ( 0.0000,  0.0000,  0.0000)
  16 Li     3.234074    6.468148   11.617037    ( 0.0000,  0.0000,  0.0000)
  17 Li     6.468148    6.468148   11.617037    ( 0.0000,  0.0000,  0.0000)
  18 Li     1.689774    1.617059   13.375395    ( 0.0000,  0.0000,  0.0000)
  19 Li     4.847814    1.617042   13.486876    ( 0.0000,  0.0000,  0.0000)
  20 Li     8.024833    1.617041   13.396035    ( 0.0000,  0.0000,  0.0000)
  21 Li     1.592779    4.828135   13.516078    ( 0.0000,  0.0000,  0.0000)
  22 Li     4.853306    4.866545   13.476993    ( 0.0000,  0.0000,  0.0000)
  23 Li     8.117522    4.827993   13.517748    ( 0.0000,  0.0000,  0.0000)
  24 Li     1.592751    8.108172   13.516089    ( 0.0000,  0.0000,  0.0000)
  25 Li     4.853310    8.069773   13.476980    ( 0.0000,  0.0000,  0.0000)
  26 Li     8.117555    8.108338   13.517772    ( 0.0000,  0.0000,  0.0000)
  27 Li     0.028977    0.131018   15.368657    ( 0.0000,  0.0000,  0.0000)
  28 Li     3.279305   -0.015387   15.402577    ( 0.0000,  0.0000,  0.0000)
  29 Li     6.440581   -0.008784   15.383022    ( 0.0000,  0.0000,  0.0000)
  30 Li     0.028854    3.103567   15.368800    ( 0.0000,  0.0000,  0.0000)
  31 Li     3.279297    3.249460   15.402537    ( 0.0000,  0.0000,  0.0000)
  32 Li     6.440550    3.242864   15.382987    ( 0.0000,  0.0000,  0.0000)
  33 Li     0.002226    6.468205   15.441660    ( 0.0000,  0.0000,  0.0000)
  34 Li     3.231477    6.468152   15.436882    ( 0.0000,  0.0000,  0.0000)
  35 Li     6.462781    6.468139   15.432941    ( 0.0000,  0.0000,  0.0000)
  36 Br    -0.269589    1.616786   21.806090    ( 0.0000,  0.0000,  0.0000)
  37 H     -1.046778    1.617065   20.606058    ( 0.0000,  0.0000,  0.0000)
  38 N     -0.077970    1.615978   16.862882    ( 0.0000,  0.0000,  0.0000)
  39 N     -0.105810    1.617679   17.989954    ( 0.0000,  0.0000,  0.0000)

Unit cell:
           periodic     x           y           z      points  spacing
  1. axis:    yes    9.702222    0.000000    0.000000    60     0.1617
  2. axis:    yes    0.000000    9.702222    0.000000    60     0.1617
  3. axis:    no     0.000000    0.000000   26.851111   168     0.1598

  Lengths:   9.702222   9.702222  26.851111
  Angles:   90.000000  90.000000  90.000000

Effective grid spacing dv^(1/3) = 0.1611

     iter     time        total  log10-change:
                         energy  eigst   dens
iter:   1 04:29:48  -330.284401  +0.98
iter:   2 04:30:28  -330.763059  +0.36  -1.76
iter:   3 04:31:10  -330.894162  -0.10  -1.99
iter:   4 04:31:51  -330.945457  -0.48  -2.20
Writing to output.gpw (mode='')

iter:   5 04:32:33  -330.968969  -0.82  -2.45
iter:   6 04:33:14  -330.980279  -1.14  -2.64
iter:   7 04:33:55  -330.984884c -1.46  -2.63
iter:   8 04:34:36  -330.988029c -1.69  -2.82
iter:   9 04:35:18  -330.989960c -1.91  -2.83
Writing to output.gpw (mode='')

iter:  10 04:36:00  -330.991249c -2.07  -2.82
iter:  11 04:36:41  -330.992048c -2.30  -3.03
iter:  12 04:37:22  -330.992400c -2.35  -3.01
iter:  13 04:38:03  -330.992884c -2.58  -2.98
iter:  14 04:38:45  -330.993224c -2.73  -2.95
Writing to output.gpw (mode='')

iter:  15 04:39:27  -330.993474c -2.80  -2.96
iter:  16 04:40:08  -330.993658c -2.88  -3.02
iter:  17 04:40:50  -330.993837c -3.06  -3.20
iter:  18 04:41:31  -330.993890c -3.25  -3.35
iter:  19 04:42:12  -330.994120c -3.28  -3.40
Writing to output.gpw (mode='')

iter:  20 04:42:55  -330.994063c -3.30  -3.30
iter:  21 04:43:37  -330.994126c -3.42  -3.56
iter:  22 04:44:18  -330.994175c -3.61  -3.59
iter:  23 04:44:59  -330.994243c -3.61  -3.59
iter:  24 04:45:41  -330.994253c -3.82  -3.66
Writing to output.gpw (mode='')

iter:  25 04:46:28  -330.994273c -3.83  -3.88
iter:  26 04:47:09  -330.994276c -3.92  -3.95
iter:  27 04:47:50  -330.994311c -4.01  -3.78
iter:  28 04:48:31  -330.994322c -4.26  -3.97
iter:  29 04:49:13  -330.994315c -4.20  -3.96
Writing to output.gpw (mode='')

iter:  30 04:49:56  -330.994343c -4.33  -3.78
iter:  31 04:50:37  -330.994355c -4.35  -3.93
iter:  32 04:51:18  -330.994366c -4.48  -3.98
iter:  33 04:52:00  -330.994380c -4.38  -3.99
iter:  34 04:52:41  -330.994378c -4.68  -4.02c
Writing to output.gpw (mode='')

iter:  35 04:53:23  -330.994406c -4.63  -4.00
iter:  36 04:54:05  -330.994409c -4.72  -3.99
iter:  37 04:54:46  -330.994412c -4.86  -4.01c
iter:  38 04:55:27  -330.994415c -4.84  -4.09c
iter:  39 04:56:08  -330.994413c -5.07  -4.16c
Writing to output.gpw (mode='')

iter:  40 04:56:51  -330.994415c -5.09  -4.27c
iter:  41 04:57:32  -330.994416c -5.21  -4.57c
iter:  42 04:58:13  -330.994419c -5.17  -4.57c
iter:  43 04:58:55  -330.994419c -5.37  -4.64c
iter:  44 04:59:36  -330.994420c -5.40  -4.70c
Writing to output.gpw (mode='')

iter:  45 05:00:22  -330.994422c -5.39  -4.77c
iter:  46 05:01:03  -330.994422c -5.34  -4.86c
iter:  47 05:01:44  -330.994423c -5.40  -4.88c
iter:  48 05:02:25  -330.994423c -5.72  -4.87c
iter:  49 05:03:06  -330.994424c -5.75  -4.82c
Writing to output.gpw (mode='')

iter:  50 05:03:49  -330.994426c -5.73  -4.92c
iter:  51 05:04:30  -330.994425c -5.84  -5.12c
iter:  52 05:05:11  -330.994425c -5.78  -5.17c
iter:  53 05:05:52  -330.994426c -5.87  -5.15c
iter:  54 05:06:33  -330.994425c -5.69  -5.08c
Writing to output.gpw (mode='')

iter:  55 05:07:19  -330.994425c -6.18  -4.95c
iter:  56 05:08:00  -330.994426c -6.18  -4.89c
iter:  57 05:08:42  -330.994425c -6.29  -4.89c
iter:  58 05:09:23  -330.994425c -6.21  -4.84c
iter:  59 05:10:04  -330.994425c -6.28  -4.82c
Writing to output.gpw (mode='')

iter:  60 05:10:46  -330.994426c -6.02  -4.81c
iter:  61 05:11:27  -330.994426c -6.48  -4.79c
iter:  62 05:12:09  -330.994425c -6.32  -4.78c
iter:  63 05:12:50  -330.994424c -6.45  -4.70c
iter:  64 05:13:30  -330.994425c -6.69  -4.70c
Writing to output.gpw (mode='')

iter:  65 05:14:13  -330.994428c -6.46  -4.72c
iter:  66 05:14:54  -330.994428c -6.71  -4.82c
iter:  67 05:15:35  -330.994431c -6.48  -4.81c
iter:  68 05:16:16  -330.994429c -6.75  -4.90c
iter:  69 05:16:57  -330.994431c -6.88  -5.17c
Writing to output.gpw (mode='')

iter:  70 05:17:40  -330.994430c -6.94  -5.41c
iter:  71 05:18:21  -330.994431c -6.82  -5.48c
iter:  72 05:19:02  -330.994431c -6.74  -5.58c
iter:  73 05:19:43  -330.994431c -7.01  -5.62c
iter:  74 05:20:23  -330.994431c -7.15  -5.65c
Writing to output.gpw (mode='')

iter:  75 05:21:07  -330.994431c -6.97  -5.71c
iter:  76 05:21:48  -330.994430c -7.30  -5.80c
iter:  77 05:22:29  -330.994430c -7.20  -5.91c
iter:  78 05:23:10  -330.994430c -7.01  -5.97c
iter:  79 05:23:51  -330.994431c -7.26  -5.93c
Writing to output.gpw (mode='')

iter:  80 05:24:33  -330.994431c -7.19  -6.10c
iter:  81 05:25:14  -330.994431c -7.41c -6.19c

Converged after 81 iterations.

Dipole moment: (20.910013, -4.726385, -0.194055) |e|*Ang

Energy contributions relative to reference atoms: (reference = -81178.542429)

Kinetic:       +108.431960
Potential:      -99.829234
External:        +0.000000
XC:            -339.803348
Entropy (-ST):   -0.140026
Local:           +0.276205
--------------------------
Free energy:   -331.064444
Extrapolated:  -330.994431

Dipole-layer corrected work functions: 3.400070, 3.773110 eV

Showing only first 2 kpts
 Kpt  Band  Eigenvalues  Occupancy
  0    25     -3.83774    1.98692
  0    26     -3.70460    1.82749
  0    27     -3.41652    0.06450
  0    28     -3.35323    0.01862

  1    25     -3.64187    1.50260
  1    26     -3.57660    0.90040
  1    27     -3.56278    0.76632
  1    28     -3.44937    0.12080


Fermi level: -3.58659

No gap
Writing to output.gpw (mode='')


Forces in eV/Ang:
  0 Li    0.01605    0.00002   -0.28013
  1 Li   -0.00251   -0.00002   -0.25043
  2 Li   -0.01486    0.00002   -0.28012
  3 Li    0.00294    0.00556   -0.27591
  4 Li   -0.00021    0.00966   -0.29253
  5 Li   -0.00437    0.00718   -0.27707
  6 Li    0.00295   -0.00558   -0.27591
  7 Li   -0.00021   -0.00972   -0.29250
  8 Li   -0.00438   -0.00719   -0.27707
  9 Li   -0.00075    0.01647    0.31814
 10 Li    0.05176   -0.05013    0.23393
 11 Li   -0.04420   -0.04237    0.24747
 12 Li   -0.00076   -0.01647    0.31807
 13 Li    0.05182    0.05017    0.23387
 14 Li   -0.04425    0.04240    0.24742
 15 Li    0.00247   -0.00008    0.26463
 16 Li   -0.05939    0.00002    0.29669
 17 Li    0.06454    0.00001    0.29918
 18 Li    0.00537    0.00006    0.00975
 19 Li    0.00639    0.00000   -0.02968
 20 Li   -0.00239    0.00007   -0.03401
 21 Li    0.01520    0.01812   -0.02837
 22 Li   -0.00352   -0.00255   -0.01462
 23 Li   -0.01148    0.01752   -0.02804
 24 Li    0.01519   -0.01807   -0.02838
 25 Li   -0.00351    0.00258   -0.01463
 26 Li   -0.01145   -0.01752   -0.02807
 27 Li   -0.01293    0.00980   -0.04876
 28 Li   -0.01665    0.01935   -0.00574
 29 Li    0.00968    0.00298    0.00235
 30 Li   -0.01276   -0.00888   -0.04848
 31 Li   -0.01665   -0.01935   -0.00579
 32 Li    0.00961   -0.00296    0.00225
 33 Li   -0.00231    0.00011    0.01606
 34 Li    0.01057   -0.00001   -0.00477
 35 Li   -0.00602   -0.00000   -0.00141
 36 Br    0.01301   -0.00022    0.06277
 37 H     0.00306    0.00006   -0.05455
 38 N     0.05247   -0.00965    0.32472
 39 N    -0.04899   -0.00073   -0.01312

System changes: positions 

Initializing position-dependent things.

Density initialized from wave functions
       .-----------------------.  
      /|                       |  
     / |                       |  
    /  |                       |  
   /   |                       |  
  /    |                       |  
 *     |                       |  
 |     |                       |  
 |     |                       |  
 |     |                       |  
 |     |                       |  
 |     |                 Br    |  
 |     |                       |  
 |     |               H       |  
 |     |       Li      Li      |  
 |     |                       |  
 |   Li|     Li      Li   N    |  
 |     |  Li      Li      Ni   |  
 | Li  |   Li      Li          |  
 |     |Li      Li      Li     |  
 Li    |                       |  
 |   Li|     LLi     Li        |  
 |    Li  Li      Li  Li  Li   |  
 | Li  |   Li      Li          |  
 |     |Li      Li      Li     |  
 Li    | Li      Li            |  
 |    Li      Li      Li       |  
 |     |                       |  
 |     |                       |  
 |     |                       |  
 |     |                       |  
 |     |                       |  
 |     |                       |  
 |     .-----------------------.  
 |    /                       /   
 |   /                       /    
 |  /                       /     
 | /                       /      
 |/                       /       
 *-----------------------*        

Positions:
   0 Li     1.617037    1.617037   10.000000    ( 0.0000,  0.0000,  0.0000)
   1 Li     4.851111    1.617037   10.000000    ( 0.0000,  0.0000,  0.0000)
   2 Li     8.085185    1.617037   10.000000    ( 0.0000,  0.0000,  0.0000)
   3 Li     1.617037    4.851111   10.000000    ( 0.0000,  0.0000,  0.0000)
   4 Li     4.851111    4.851111   10.000000    ( 0.0000,  0.0000,  0.0000)
   5 Li     8.085185    4.851111   10.000000    ( 0.0000,  0.0000,  0.0000)
   6 Li     1.617037    8.085185   10.000000    ( 0.0000,  0.0000,  0.0000)
   7 Li     4.851111    8.085185   10.000000    ( 0.0000,  0.0000,  0.0000)
   8 Li     8.085185    8.085185   10.000000    ( 0.0000,  0.0000,  0.0000)
   9 Li     0.000000    0.000000   11.617037    ( 0.0000,  0.0000,  0.0000)
  10 Li     3.234074    0.000000   11.617037    ( 0.0000,  0.0000,  0.0000)
  11 Li     6.468148    0.000000   11.617037    ( 0.0000,  0.0000,  0.0000)
  12 Li     0.000000    3.234074   11.617037    ( 0.0000,  0.0000,  0.0000)
  13 Li     3.234074    3.234074   11.617037    ( 0.0000,  0.0000,  0.0000)
  14 Li     6.468148    3.234074   11.617037    ( 0.0000,  0.0000,  0.0000)
  15 Li     0.000000    6.468148   11.617037    ( 0.0000,  0.0000,  0.0000)
  16 Li     3.234074    6.468148   11.617037    ( 0.0000,  0.0000,  0.0000)
  17 Li     6.468148    6.468148   11.617037    ( 0.0000,  0.0000,  0.0000)
  18 Li     1.693979    1.617065   13.371121    ( 0.0000,  0.0000,  0.0000)
  19 Li     4.848041    1.617042   13.482445    ( 0.0000,  0.0000,  0.0000)
  20 Li     8.022189    1.617045   13.389619    ( 0.0000,  0.0000,  0.0000)
  21 Li     1.592427    4.828290   13.514808    ( 0.0000,  0.0000,  0.0000)
  22 Li     4.853296    4.867114   13.474565    ( 0.0000,  0.0000,  0.0000)
  23 Li     8.118983    4.828155   13.516635    ( 0.0000,  0.0000,  0.0000)
  24 Li     1.592395    8.108021   13.514819    ( 0.0000,  0.0000,  0.0000)
  25 Li     4.853301    8.069209   13.474549    ( 0.0000,  0.0000,  0.0000)
  26 Li     8.119022    8.108181   13.516661    ( 0.0000,  0.0000,  0.0000)
  27 Li     0.031455    0.134495   15.349355    ( 0.0000,  0.0000,  0.0000)
  28 Li     3.279891   -0.013957   15.401017    ( 0.0000,  0.0000,  0.0000)
  29 Li     6.440630   -0.008392   15.380258    ( 0.0000,  0.0000,  0.0000)
  30 Li     0.031322    3.100188   15.349563    ( 0.0000,  0.0000,  0.0000)
  31 Li     3.279882    3.248030   15.400968    ( 0.0000,  0.0000,  0.0000)
  32 Li     6.440590    3.242474   15.380214    ( 0.0000,  0.0000,  0.0000)
  33 Li     0.002207    6.468218   15.443754    ( 0.0000,  0.0000,  0.0000)
  34 Li     3.232752    6.468152   15.436721    ( 0.0000,  0.0000,  0.0000)
  35 Li     6.461076    6.468138   15.432688    ( 0.0000,  0.0000,  0.0000)
  36 Br    -0.283300    1.616759   21.830427    ( 0.0000,  0.0000,  0.0000)
  37 H     -1.029644    1.617072   20.613330    ( 0.0000,  0.0000,  0.0000)
  38 N     -0.098431    1.615690   16.882213    ( 0.0000,  0.0000,  0.0000)
  39 N     -0.095234    1.617654   18.007818    ( 0.0000,  0.0000,  0.0000)

Unit cell:
           periodic     x           y           z      points  spacing
  1. axis:    yes    9.702222    0.000000    0.000000    60     0.1617
  2. axis:    yes    0.000000    9.702222    0.000000    60     0.1617
  3. axis:    no     0.000000    0.000000   26.851111   168     0.1598

  Lengths:   9.702222   9.702222  26.851111
  Angles:   90.000000  90.000000  90.000000

Effective grid spacing dv^(1/3) = 0.1611

     iter     time        total  log10-change:
                         energy  eigst   dens
iter:   1 05:26:09  -331.094491  -0.73
iter:   2 05:26:51  -331.053513  -0.92  -1.48
iter:   3 05:27:32  -331.005269  -2.08  -1.68
iter:   4 05:28:13  -331.004179  -2.37  -2.18
Writing to output.gpw (mode='')

iter:   5 05:28:55  -331.000737c -1.87  -2.23
iter:   6 05:29:37  -331.000891c -2.35  -2.56
iter:   7 05:30:18  -331.001110c -2.36  -2.72
iter:   8 05:30:59  -331.000764c -2.82  -2.74
iter:   9 05:31:40  -331.000798c -3.12  -2.93
Writing to output.gpw (mode='')

iter:  10 05:32:22  -331.000747c -3.65  -2.98
iter:  11 05:33:03  -331.000866c -3.45  -3.16
iter:  12 05:33:44  -331.000839c -4.04  -3.21
iter:  13 05:34:25  -331.000868c -3.84  -3.31
iter:  14 05:35:07  -331.000877c -4.19  -3.38
Writing to output.gpw (mode='')

iter:  15 05:35:49  -331.000886c -4.22  -3.42
iter:  16 05:36:30  -331.000853c -4.50  -3.56
iter:  17 05:37:11  -331.000854c -4.63  -3.63
iter:  18 05:37:52  -331.000855c -4.67  -3.70
iter:  19 05:38:33  -331.000854c -4.88  -3.81
Writing to output.gpw (mode='')

iter:  20 05:39:16  -331.000843c -5.08  -3.90
iter:  21 05:39:57  -331.000845c -5.44  -3.97
iter:  22 05:40:38  -331.000858c -5.23  -4.00
iter:  23 05:41:19  -331.000854c -5.61  -4.25c
iter:  24 05:42:00  -331.000855c -5.78  -4.46c
Writing to output.gpw (mode='')

iter:  25 05:42:43  -331.000856c -5.53  -4.49c
iter:  26 05:43:23  -331.000855c -5.89  -4.58c
iter:  27 05:44:04  -331.000855c -5.87  -4.75c
iter:  28 05:44:46  -331.000855c -5.88  -4.89c
iter:  29 05:45:27  -331.000855c -6.03  -4.97c
Writing to output.gpw (mode='')

iter:  30 05:46:10  -331.000855c -6.26  -5.01c
iter:  31 05:46:51  -331.000855c -6.39  -5.07c
iter:  32 05:47:32  -331.000855c -6.37  -5.16c
iter:  33 05:48:13  -331.000854c -6.37  -5.17c
iter:  34 05:48:54  -331.000854c -6.48  -5.24c
Writing to output.gpw (mode='')

iter:  35 05:49:37  -331.000854c -6.67  -5.38c
iter:  36 05:50:18  -331.000854c -6.45  -5.46c
iter:  37 05:50:59  -331.000854c -6.78  -5.47c
iter:  38 05:51:40  -331.000854c -6.86  -5.46c
iter:  39 05:52:21  -331.000854c -6.95  -5.40c
Writing to output.gpw (mode='')

iter:  40 05:53:04  -331.000854c -6.91  -5.75c
iter:  41 05:53:46  -331.000854c -7.13  -5.77c
iter:  42 05:54:27  -331.000854c -7.09  -5.82c
iter:  43 05:55:08  -331.000854c -6.95  -5.92c
iter:  44 05:55:49  -331.000854c -7.23  -5.93c
Writing to output.gpw (mode='')

iter:  45 05:56:32  -331.000854c -7.30  -5.82c
iter:  46 05:57:13  -331.000854c -7.29  -5.79c
iter:  47 05:57:55  -331.000854c -7.44c -5.79c

Converged after 47 iterations.

Dipole moment: (22.327861, -4.793713, -0.194863) |e|*Ang

Energy contributions relative to reference atoms: (reference = -81178.542429)

Kinetic:       +108.618272
Potential:     -100.017735
External:        +0.000000
XC:            -339.808319
Entropy (-ST):   -0.139432
Local:           +0.276645
--------------------------
Free energy:   -331.070569
Extrapolated:  -331.000854

Dipole-layer corrected work functions: 3.400351, 3.774946 eV

Showing only first 2 kpts
 Kpt  Band  Eigenvalues  Occupancy
  0    25     -3.84108    1.98750
  0    26     -3.70814    1.83515
  0    27     -3.41513    0.06152
  0    28     -3.35292    0.01812

  1    25     -3.64139    1.49100
  1    26     -3.57792    0.90300
  1    27     -3.56367    0.76471
  1    28     -3.45136    0.12295


Fermi level: -3.58765

No gap
Writing to output.gpw (mode='')


Forces in eV/Ang:
  0 Li    0.01674    0.00002   -0.28087
  1 Li   -0.00355   -0.00002   -0.24964
  2 Li   -0.01486    0.00002   -0.28120
  3 Li    0.00290    0.00488   -0.27563
  4 Li    0.00008    0.00946   -0.29258
  5 Li   -0.00395    0.00742   -0.27693
  6 Li    0.00291   -0.00490   -0.27563
  7 Li    0.00008   -0.00954   -0.29254
  8 Li   -0.00395   -0.00743   -0.27693
  9 Li   -0.00012    0.01696    0.31804
 10 Li    0.05322   -0.05244    0.23036
 11 Li   -0.04458   -0.04526    0.24459
 12 Li   -0.00013   -0.01696    0.31795
 13 Li    0.05328    0.05248    0.23030
 14 Li   -0.04465    0.04530    0.24452
 15 Li    0.00264   -0.00010    0.26327
 16 Li   -0.06023    0.00003    0.29434
 17 Li    0.06468    0.00001    0.29832
 18 Li    0.00324    0.00007    0.01234
 19 Li    0.00741    0.00000   -0.02472
 20 Li   -0.00211    0.00009   -0.03490
 21 Li    0.01900    0.02174   -0.02926
 22 Li   -0.00424   -0.00341   -0.01177
 23 Li   -0.01623    0.02077   -0.02896
 24 Li    0.01899   -0.02168   -0.02927
 25 Li   -0.00423    0.00345   -0.01177
 26 Li   -0.01619   -0.02078   -0.02900
 27 Li   -0.02189    0.02559   -0.00528
 28 Li   -0.01843    0.01949   -0.00763
 29 Li    0.00947    0.00186    0.00293
 30 Li   -0.02158   -0.02433   -0.00536
 31 Li   -0.01842   -0.01949   -0.00767
 32 Li    0.00940   -0.00184    0.00281
 33 Li   -0.00272    0.00013    0.01465
 34 Li    0.01012   -0.00002   -0.00680
 35 Li   -0.00392   -0.00000   -0.00287
 36 Br    0.03180   -0.00020    0.12314
 37 H    -0.02153    0.00009   -0.09817
 38 N     0.06863   -0.00762    0.19738
 39 N    -0.08767    0.00163    0.05362

System changes: positions 

Initializing position-dependent things.

Density initialized from wave functions
       .-----------------------.  
      /|                       |  
     / |                       |  
    /  |                       |  
   /   |                       |  
  /    |                       |  
 *     |                       |  
 |     |                       |  
 |     |                       |  
 |     |                       |  
 |     |                       |  
 |     |                 Br    |  
 |     |                       |  
 |     |                H      |  
 |     |       Li      Li      |  
 |     |                       |  
 |   Li|     Li      Li   N    |  
 |     |  Li      Li      Ni   |  
 | Li  |   Li      Li          |  
 |     |Li      Li      Li     |  
 Li    |                       |  
 |   Li|     LLi     Li        |  
 |    Li  Li      Li  Li  Li   |  
 | Li  |   Li      Li          |  
 |     |Li      Li      Li     |  
 Li    | Li      Li            |  
 |    Li      Li      Li       |  
 |     |                       |  
 |     |                       |  
 |     |                       |  
 |     |                       |  
 |     |                       |  
 |     |                       |  
 |     .-----------------------.  
 |    /                       /   
 |   /                       /    
 |  /                       /     
 | /                       /      
 |/                       /       
 *-----------------------*        

Positions:
   0 Li     1.617037    1.617037   10.000000    ( 0.0000,  0.0000,  0.0000)
   1 Li     4.851111    1.617037   10.000000    ( 0.0000,  0.0000,  0.0000)
   2 Li     8.085185    1.617037   10.000000    ( 0.0000,  0.0000,  0.0000)
   3 Li     1.617037    4.851111   10.000000    ( 0.0000,  0.0000,  0.0000)
   4 Li     4.851111    4.851111   10.000000    ( 0.0000,  0.0000,  0.0000)
   5 Li     8.085185    4.851111   10.000000    ( 0.0000,  0.0000,  0.0000)
   6 Li     1.617037    8.085185   10.000000    ( 0.0000,  0.0000,  0.0000)
   7 Li     4.851111    8.085185   10.000000    ( 0.0000,  0.0000,  0.0000)
   8 Li     8.085185    8.085185   10.000000    ( 0.0000,  0.0000,  0.0000)
   9 Li     0.000000    0.000000   11.617037    ( 0.0000,  0.0000,  0.0000)
  10 Li     3.234074    0.000000   11.617037    ( 0.0000,  0.0000,  0.0000)
  11 Li     6.468148    0.000000   11.617037    ( 0.0000,  0.0000,  0.0000)
  12 Li     0.000000    3.234074   11.617037    ( 0.0000,  0.0000,  0.0000)
  13 Li     3.234074    3.234074   11.617037    ( 0.0000,  0.0000,  0.0000)
  14 Li     6.468148    3.234074   11.617037    ( 0.0000,  0.0000,  0.0000)
  15 Li     0.000000    6.468148   11.617037    ( 0.0000,  0.0000,  0.0000)
  16 Li     3.234074    6.468148   11.617037    ( 0.0000,  0.0000,  0.0000)
  17 Li     6.468148    6.468148   11.617037    ( 0.0000,  0.0000,  0.0000)
  18 Li     1.699316    1.617072   13.365697    ( 0.0000,  0.0000,  0.0000)
  19 Li     4.848359    1.617043   13.477249    ( 0.0000,  0.0000,  0.0000)
  20 Li     8.018732    1.617050   13.381404    ( 0.0000,  0.0000,  0.0000)
  21 Li     1.592079    4.828561   13.513352    ( 0.0000,  0.0000,  0.0000)
  22 Li     4.853253    4.867830   13.471719    ( 0.0000,  0.0000,  0.0000)
  23 Li     8.120683    4.828421   13.515376    ( 0.0000,  0.0000,  0.0000)
  24 Li     1.592042    8.107756   13.513364    ( 0.0000,  0.0000,  0.0000)
  25 Li     4.853260    8.068500   13.471701    ( 0.0000,  0.0000,  0.0000)
  26 Li     8.120729    8.107921   13.515403    ( 0.0000,  0.0000,  0.0000)
  27 Li     0.034218    0.139807   15.327002    ( 0.0000,  0.0000,  0.0000)
  28 Li     3.280674   -0.012226   15.398854    ( 0.0000,  0.0000,  0.0000)
  29 Li     6.440598   -0.007986   15.376690    ( 0.0000,  0.0000,  0.0000)
  30 Li     0.034076    3.095009   15.327279    ( 0.0000,  0.0000,  0.0000)
  31 Li     3.280665    3.246299   15.398795    ( 0.0000,  0.0000,  0.0000)
  32 Li     6.440547    3.242069   15.376633    ( 0.0000,  0.0000,  0.0000)
  33 Li     0.002172    6.468235   15.446269    ( 0.0000,  0.0000,  0.0000)
  34 Li     3.234298    6.468151   15.436397    ( 0.0000,  0.0000,  0.0000)
  35 Li     6.459051    6.468136   15.432271    ( 0.0000,  0.0000,  0.0000)
  36 Br    -0.300647    1.616724   21.866469    ( 0.0000,  0.0000,  0.0000)
  37 H     -1.007758    1.617081   20.621705    ( 0.0000,  0.0000,  0.0000)
  38 N     -0.122095    1.615275   16.902668    ( 0.0000,  0.0000,  0.0000)
  39 N     -0.084423    1.617690   18.027300    ( 0.0000,  0.0000,  0.0000)

Unit cell:
           periodic     x           y           z      points  spacing
  1. axis:    yes    9.702222    0.000000    0.000000    60     0.1617
  2. axis:    yes    0.000000    9.702222    0.000000    60     0.1617
  3. axis:    no     0.000000    0.000000   26.851111   168     0.1598

  Lengths:   9.702222   9.702222  26.851111
  Angles:   90.000000  90.000000  90.000000

Effective grid spacing dv^(1/3) = 0.1611

     iter     time        total  log10-change:
                         energy  eigst   dens
iter:   1 05:58:52  -331.237349  -0.48
iter:   2 05:59:33  -331.202792  -0.39  -1.27
iter:   3 06:00:14  -331.018304  -1.72  -1.42
iter:   4 06:00:56  -331.014438  -2.09  -2.02
Writing to output.gpw (mode='')

iter:   5 06:01:39  -331.003670c -1.80  -2.07
iter:   6 06:02:20  -331.004886c -2.16  -2.39
iter:   7 06:03:01  -331.004088c -2.00  -2.46
iter:   8 06:03:42  -331.003345c -2.45  -2.60
iter:   9 06:04:24  -331.003137c -2.88  -2.73
Writing to output.gpw (mode='')

iter:  10 06:05:06  -331.003238c -3.22  -2.96
iter:  11 06:05:48  -331.003230c -3.41  -2.96
iter:  12 06:06:29  -331.003385c -3.23  -3.03
iter:  13 06:07:10  -331.003379c -3.70  -3.17
iter:  14 06:07:52  -331.003366c -3.69  -3.25
Writing to output.gpw (mode='')

iter:  15 06:08:35  -331.003381c -4.05  -3.41
iter:  16 06:09:16  -331.003346c -4.31  -3.47
iter:  17 06:09:57  -331.003348c -4.48  -3.56
iter:  18 06:10:39  -331.003353c -4.51  -3.67
iter:  19 06:11:20  -331.003363c -4.81  -3.72
Writing to output.gpw (mode='')

iter:  20 06:12:03  -331.003356c -4.85  -3.77
iter:  21 06:12:44  -331.003360c -5.14  -3.98
iter:  22 06:13:26  -331.003361c -5.01  -4.07c
iter:  23 06:14:07  -331.003366c -5.18  -4.14c
iter:  24 06:14:49  -331.003368c -5.09  -4.19c
Writing to output.gpw (mode='')

iter:  25 06:15:32  -331.003369c -5.27  -4.25c
iter:  26 06:16:13  -331.003370c -5.49  -4.26c
iter:  27 06:16:54  -331.003371c -5.62  -4.29c
iter:  28 06:17:36  -331.003372c -5.77  -4.44c
iter:  29 06:18:17  -331.003372c -5.86  -4.55c
Writing to output.gpw (mode='')

iter:  30 06:19:00  -331.003372c -6.03  -4.84c
iter:  31 06:19:41  -331.003372c -5.96  -4.85c
iter:  32 06:20:22  -331.003372c -5.91  -4.91c
iter:  33 06:21:04  -331.003372c -6.00  -5.02c
iter:  34 06:21:45  -331.003372c -6.20  -5.06c
Writing to output.gpw (mode='')

iter:  35 06:22:28  -331.003372c -6.20  -5.08c
iter:  36 06:23:09  -331.003372c -6.18  -5.12c
iter:  37 06:23:50  -331.003372c -6.20  -5.20c
iter:  38 06:24:31  -331.003372c -6.46  -5.28c
iter:  39 06:25:12  -331.003373c -6.53  -5.26c
Writing to output.gpw (mode='')

iter:  40 06:25:58  -331.003373c -6.73  -5.34c
iter:  41 06:26:39  -331.003373c -6.83  -5.32c
iter:  42 06:27:20  -331.003373c -6.83  -5.26c
iter:  43 06:28:01  -331.003373c -6.93  -5.33c
iter:  44 06:28:42  -331.003373c -6.94  -5.30c
Writing to output.gpw (mode='')

iter:  45 06:29:25  -331.003373c -7.04  -5.26c
iter:  46 06:30:06  -331.003373c -7.15  -5.21c
iter:  47 06:30:47  -331.003373c -7.09  -5.20c
iter:  48 06:31:28  -331.003373c -6.85  -5.17c
iter:  49 06:32:09  -331.003373c -6.99  -5.11c
Writing to output.gpw (mode='')

iter:  50 06:32:52  -331.003373c -7.40c -5.08c

Converged after 50 iterations.

Dipole moment: (23.780422, -4.878235, -0.198928) |e|*Ang

Energy contributions relative to reference atoms: (reference = -81178.542429)

Kinetic:       +108.351465
Potential:      -99.825321
External:        +0.000000
XC:            -339.735496
Entropy (-ST):   -0.139077
Local:           +0.275517
--------------------------
Free energy:   -331.072912
Extrapolated:  -331.003373

Dipole-layer corrected work functions: 3.400798, 3.783205 eV

Showing only first 2 kpts
 Kpt  Band  Eigenvalues  Occupancy
  0    25     -3.84820    1.98816
  0    26     -3.71520    1.84315
  0    27     -3.41697    0.05859
  0    28     -3.35795    0.01837

  1    25     -3.64407    1.47825
  1    26     -3.58234    0.90369
  1    27     -3.56767    0.76136
  1    28     -3.45657    0.12492


Fermi level: -3.59200

No gap

Forces in eV/Ang:
  0 Li    0.01755    0.00003   -0.28182
  1 Li   -0.00474   -0.00003   -0.24870
  2 Li   -0.01488    0.00003   -0.28256
  3 Li    0.00281    0.00413   -0.27534
  4 Li    0.00038    0.00923   -0.29266
  5 Li   -0.00347    0.00774   -0.27679
  6 Li    0.00281   -0.00416   -0.27534
  7 Li    0.00038   -0.00932   -0.29261
  8 Li   -0.00348   -0.00775   -0.27680
  9 Li    0.00071    0.01737    0.31786
 10 Li    0.05495   -0.05532    0.22608
 11 Li   -0.04520   -0.04893    0.24108
 12 Li    0.00071   -0.01736    0.31773
 13 Li    0.05503    0.05536    0.22601
 14 Li   -0.04528    0.04898    0.24098
 15 Li    0.00291   -0.00013    0.26162
 16 Li   -0.06099    0.00004    0.29162
 17 Li    0.06471    0.00000    0.29715
 18 Li    0.00035    0.00008    0.01542
 19 Li    0.00857   -0.00000   -0.01923
 20 Li   -0.00128    0.00012   -0.03528
 21 Li    0.02329    0.02594   -0.03041
 22 Li   -0.00498   -0.00454   -0.00856
 23 Li   -0.02163    0.02455   -0.03017
 24 Li    0.02326   -0.02585   -0.03041
 25 Li   -0.00497    0.00460   -0.00856
 26 Li   -0.02158   -0.02458   -0.03022
 27 Li   -0.03175    0.03573    0.04000
 28 Li   -0.02059    0.01962   -0.00925
 29 Li    0.00918    0.00060    0.00374
 30 Li   -0.03121   -0.03395    0.03936
 31 Li   -0.02058   -0.01962   -0.00929
 32 Li    0.00911   -0.00056    0.00360
 33 Li   -0.00320    0.00015    0.01289
 34 Li    0.00973   -0.00003   -0.00896
 35 Li   -0.00168    0.00001   -0.00449
 36 Br   -0.00206   -0.00029    0.02261
 37 H     0.03485    0.00006   -0.01928
 38 N     0.14168   -0.01290    0.19827
 39 N    -0.07596   -0.00307   -0.03338

System changes: positions 

Initializing position-dependent things.

Density initialized from wave functions
       .-----------------------.  
      /|                       |  
     / |                       |  
    /  |                       |  
   /   |                       |  
  /    |                       |  
 *     |                       |  
 |     |                       |  
 |     |                       |  
 |     |                       |  
 |     |                       |  
 |     |                 Br    |  
 |     |                       |  
 |     |               H       |  
 |     |       Li      Li      |  
 |     |                       |  
 |   Li|     Li      Li   N    |  
 |     |  Li      Li      Ni   |  
 | Li  |   Li      Li          |  
 |     |Li      Li      Li     |  
 Li    |                       |  
 |   Li|     LLi     Li        |  
 |    Li  Li      Li  Li  Li   |  
 | Li  |   Li      Li          |  
 |     |Li      Li      Li     |  
 Li    | Li      Li            |  
 |    Li      Li      Li       |  
 |     |                       |  
 |     |                       |  
 |     |                       |  
 |     |                       |  
 |     |                       |  
 |     |                       |  
 |     .-----------------------.  
 |    /                       /   
 |   /                       /    
 |  /                       /     
 | /                       /      
 |/                       /       
 *-----------------------*        

Positions:
   0 Li     1.617037    1.617037   10.000000    ( 0.0000,  0.0000,  0.0000)
   1 Li     4.851111    1.617037   10.000000    ( 0.0000,  0.0000,  0.0000)
   2 Li     8.085185    1.617037   10.000000    ( 0.0000,  0.0000,  0.0000)
   3 Li     1.617037    4.851111   10.000000    ( 0.0000,  0.0000,  0.0000)
   4 Li     4.851111    4.851111   10.000000    ( 0.0000,  0.0000,  0.0000)
   5 Li     8.085185    4.851111   10.000000    ( 0.0000,  0.0000,  0.0000)
   6 Li     1.617037    8.085185   10.000000    ( 0.0000,  0.0000,  0.0000)
   7 Li     4.851111    8.085185   10.000000    ( 0.0000,  0.0000,  0.0000)
   8 Li     8.085185    8.085185   10.000000    ( 0.0000,  0.0000,  0.0000)
   9 Li     0.000000    0.000000   11.617037    ( 0.0000,  0.0000,  0.0000)
  10 Li     3.234074    0.000000   11.617037    ( 0.0000,  0.0000,  0.0000)
  11 Li     6.468148    0.000000   11.617037    ( 0.0000,  0.0000,  0.0000)
  12 Li     0.000000    3.234074   11.617037    ( 0.0000,  0.0000,  0.0000)
  13 Li     3.234074    3.234074   11.617037    ( 0.0000,  0.0000,  0.0000)
  14 Li     6.468148    3.234074   11.617037    ( 0.0000,  0.0000,  0.0000)
  15 Li     0.000000    6.468148   11.617037    ( 0.0000,  0.0000,  0.0000)
  16 Li     3.234074    6.468148   11.617037    ( 0.0000,  0.0000,  0.0000)
  17 Li     6.468148    6.468148   11.617037    ( 0.0000,  0.0000,  0.0000)
  18 Li     1.698013    1.617074   13.367910    ( 0.0000,  0.0000,  0.0000)
  19 Li     4.848653    1.617043   13.476260    ( 0.0000,  0.0000,  0.0000)
  20 Li     8.019817    1.617053   13.381769    ( 0.0000,  0.0000,  0.0000)
  21 Li     1.593122    4.829654   13.511633    ( 0.0000,  0.0000,  0.0000)
  22 Li     4.853081    4.867434   13.471273    ( 0.0000,  0.0000,  0.0000)
  23 Li     8.119558    4.829487   13.513632    ( 0.0000,  0.0000,  0.0000)
  24 Li     1.593085    8.106665   13.511644    ( 0.0000,  0.0000,  0.0000)
  25 Li     4.853087    8.068896   13.471256    ( 0.0000,  0.0000,  0.0000)
  26 Li     8.119604    8.106854   13.513658    ( 0.0000,  0.0000,  0.0000)
  27 Li     0.032957    0.137859   15.328367    ( 0.0000,  0.0000,  0.0000)
  28 Li     3.279254   -0.011357   15.399421    ( 0.0000,  0.0000,  0.0000)
  29 Li     6.441374   -0.007790   15.377964    ( 0.0000,  0.0000,  0.0000)
  30 Li     0.032828    3.096988   15.328636    ( 0.0000,  0.0000,  0.0000)
  31 Li     3.279245    3.245430   15.399361    ( 0.0000,  0.0000,  0.0000)
  32 Li     6.441321    3.241875   15.377903    ( 0.0000,  0.0000,  0.0000)
  33 Li     0.002040    6.468238   15.446762    ( 0.0000,  0.0000,  0.0000)
  34 Li     3.234640    6.468151   15.436346    ( 0.0000,  0.0000,  0.0000)
  35 Li     6.459063    6.468136   15.432420    ( 0.0000,  0.0000,  0.0000)
  36 Br    -0.294440    1.616723   21.849460    ( 0.0000,  0.0000,  0.0000)
  37 H     -1.015028    1.617083   20.616160    ( 0.0000,  0.0000,  0.0000)
  38 N     -0.117385    1.615112   16.914542    ( 0.0000,  0.0000,  0.0000)
  39 N     -0.085661    1.617618   18.036853    ( 0.0000,  0.0000,  0.0000)

Unit cell:
           periodic     x           y           z      points  spacing
  1. axis:    yes    9.702222    0.000000    0.000000    60     0.1617
  2. axis:    yes    0.000000    9.702222    0.000000    60     0.1617
  3. axis:    no     0.000000    0.000000   26.851111   168     0.1598

  Lengths:   9.702222   9.702222  26.851111
  Angles:   90.000000  90.000000  90.000000

Effective grid spacing dv^(1/3) = 0.1611

     iter     time        total  log10-change:
                         energy  eigst   dens
iter:   1 06:33:47  -331.011359  -1.83
iter:   2 06:34:28  -331.008261  -2.29  -2.30
iter:   3 06:35:08  -331.007195c -3.02  -2.37
iter:   4 06:35:50  -331.006179c -2.95  -2.70
Writing to output.gpw (mode='')

iter:   5 06:36:32  -331.006340c -3.55  -2.91
iter:   6 06:37:13  -331.005915c -3.03  -2.88
iter:   7 06:37:54  -331.005867c -3.84  -3.05
iter:   8 06:38:35  -331.005877c -3.64  -3.21
iter:   9 06:39:16  -331.005805c -3.68  -3.16
Writing to output.gpw (mode='')

iter:  10 06:39:58  -331.005813c -4.32  -3.37
iter:  11 06:40:39  -331.005821c -4.66  -3.56
iter:  12 06:41:20  -331.005821c -4.97  -3.60
iter:  13 06:42:01  -331.005836c -4.96  -3.71
iter:  14 06:42:41  -331.005838c -5.21  -3.88
Writing to output.gpw (mode='')

iter:  15 06:43:27  -331.005836c -5.60  -3.93
iter:  16 06:44:08  -331.005832c -5.81  -3.95
iter:  17 06:44:49  -331.005838c -5.87  -4.04c
iter:  18 06:45:30  -331.005832c -5.78  -4.11c
iter:  19 06:46:10  -331.005830c -5.85  -4.38c
Writing to output.gpw (mode='')

iter:  20 06:46:53  -331.005829c -6.20  -4.45c
iter:  21 06:47:33  -331.005831c -6.48  -4.49c
iter:  22 06:48:14  -331.005830c -6.42  -4.63c
iter:  23 06:48:55  -331.005830c -6.54  -4.75c
iter:  24 06:49:36  -331.005831c -6.69  -4.80c
Writing to output.gpw (mode='')

iter:  25 06:50:23  -331.005831c -7.08  -4.89c
iter:  26 06:51:04  -331.005832c -7.08  -4.93c
iter:  27 06:51:44  -331.005832c -7.41c -5.20c

Converged after 27 iterations.

Dipole moment: (23.371622, -4.886122, -0.194770) |e|*Ang

Energy contributions relative to reference atoms: (reference = -81178.542429)

Kinetic:       +108.756129
Potential:     -100.179537
External:        +0.000000
XC:            -339.788771
Entropy (-ST):   -0.138876
Local:           +0.275785
--------------------------
Free energy:   -331.075270
Extrapolated:  -331.005832

Dipole-layer corrected work functions: 3.400669, 3.775084 eV

Showing only first 2 kpts
 Kpt  Band  Eigenvalues  Occupancy
  0    25     -3.84424    1.98820
  0    26     -3.71199    1.84579
  0    27     -3.41274    0.05846
  0    28     -3.35282    0.01800

  1    25     -3.63951    1.47489
  1    26     -3.57835    0.90501
  1    27     -3.56359    0.76177
  1    28     -3.45324    0.12682


Fermi level: -3.58788

No gap
Writing to output.gpw (mode='')


Forces in eV/Ang:
  0 Li    0.01746    0.00003   -0.28151
  1 Li   -0.00451   -0.00003   -0.24902
  2 Li   -0.01496    0.00003   -0.28229
  3 Li    0.00283    0.00419   -0.27519
  4 Li    0.00033    0.00901   -0.29251
  5 Li   -0.00352    0.00764   -0.27653
  6 Li    0.00284   -0.00422   -0.27518
  7 Li    0.00034   -0.00911   -0.29246
  8 Li   -0.00354   -0.00765   -0.27654
  9 Li    0.00105    0.01725    0.31738
 10 Li    0.05412   -0.05419    0.22617
 11 Li   -0.04499   -0.04846    0.24037
 12 Li    0.00105   -0.01724    0.31725
 13 Li    0.05420    0.05423    0.22610
 14 Li   -0.04508    0.04851    0.24027
 15 Li    0.00291   -0.00013    0.26041
 16 Li   -0.06003    0.00004    0.29047
 17 Li    0.06378    0.00000    0.29577
 18 Li    0.00119    0.00008    0.01275
 19 Li    0.00813    0.00000   -0.01654
 20 Li   -0.00207    0.00012   -0.03348
 21 Li    0.02157    0.02413   -0.02707
 22 Li   -0.00464   -0.00419   -0.00722
 23 Li   -0.02025    0.02287   -0.02699
 24 Li    0.02153   -0.02404   -0.02706
 25 Li   -0.00463    0.00424   -0.00722
 26 Li   -0.02020   -0.02290   -0.02704
 27 Li   -0.03019    0.03807    0.04239
 28 Li   -0.01906    0.01809   -0.01002
 29 Li    0.00817    0.00040    0.00149
 30 Li   -0.02966   -0.03615    0.04165
 31 Li   -0.01905   -0.01809   -0.01007
 32 Li    0.00811   -0.00037    0.00135
 33 Li   -0.00306    0.00016    0.01132
 34 Li    0.00906   -0.00002   -0.00898
 35 Li   -0.00134    0.00001   -0.00495
 36 Br    0.02901   -0.00016    0.09877
 37 H    -0.00492    0.00008   -0.08023
 38 N     0.16367   -0.00305   -0.02929
 39 N    -0.06963    0.00049    0.18526

System changes: positions 

Initializing position-dependent things.

Density initialized from wave functions
       .-----------------------.  
      /|                       |  
     / |                       |  
    /  |                       |  
   /   |                       |  
  /    |                       |  
 *     |                       |  
 |     |                       |  
 |     |                       |  
 |     |                       |  
 |     |                       |  
 |     |                 Br    |  
 |     |                       |  
 |     |               H       |  
 |     |       Li      Li      |  
 |     |                       |  
 |   Li|     Li      Li   N    |  
 |     |  Li      Li      Ni   |  
 | Li  |   Li      Li          |  
 |     |Li      Li      Li     |  
 Li    |                       |  
 |   Li|     LLi     Li        |  
 |    Li  Li      Li  Li  Li   |  
 | Li  |   Li      Li          |  
 |     |Li      Li      Li     |  
 Li    | Li      Li            |  
 |    Li      Li      Li       |  
 |     |                       |  
 |     |                       |  
 |     |                       |  
 |     |                       |  
 |     |                       |  
 |     |                       |  
 |     .-----------------------.  
 |    /                       /   
 |   /                       /    
 |  /                       /     
 | /                       /      
 |/                       /       
 *-----------------------*        

Positions:
   0 Li     1.617037    1.617037   10.000000    ( 0.0000,  0.0000,  0.0000)
   1 Li     4.851111    1.617037   10.000000    ( 0.0000,  0.0000,  0.0000)
   2 Li     8.085185    1.617037   10.000000    ( 0.0000,  0.0000,  0.0000)
   3 Li     1.617037    4.851111   10.000000    ( 0.0000,  0.0000,  0.0000)
   4 Li     4.851111    4.851111   10.000000    ( 0.0000,  0.0000,  0.0000)
   5 Li     8.085185    4.851111   10.000000    ( 0.0000,  0.0000,  0.0000)
   6 Li     1.617037    8.085185   10.000000    ( 0.0000,  0.0000,  0.0000)
   7 Li     4.851111    8.085185   10.000000    ( 0.0000,  0.0000,  0.0000)
   8 Li     8.085185    8.085185   10.000000    ( 0.0000,  0.0000,  0.0000)
   9 Li     0.000000    0.000000   11.617037    ( 0.0000,  0.0000,  0.0000)
  10 Li     3.234074    0.000000   11.617037    ( 0.0000,  0.0000,  0.0000)
  11 Li     6.468148    0.000000   11.617037    ( 0.0000,  0.0000,  0.0000)
  12 Li     0.000000    3.234074   11.617037    ( 0.0000,  0.0000,  0.0000)
  13 Li     3.234074    3.234074   11.617037    ( 0.0000,  0.0000,  0.0000)
  14 Li     6.468148    3.234074   11.617037    ( 0.0000,  0.0000,  0.0000)
  15 Li     0.000000    6.468148   11.617037    ( 0.0000,  0.0000,  0.0000)
  16 Li     3.234074    6.468148   11.617037    ( 0.0000,  0.0000,  0.0000)
  17 Li     6.468148    6.468148   11.617037    ( 0.0000,  0.0000,  0.0000)
  18 Li     1.694662    1.617077   13.373302    ( 0.0000,  0.0000,  0.0000)
  19 Li     4.849314    1.617043   13.474790    ( 0.0000,  0.0000,  0.0000)
  20 Li     8.022449    1.617059   13.383198    ( 0.0000,  0.0000,  0.0000)
  21 Li     1.595563    4.832142   13.508021    ( 0.0000,  0.0000,  0.0000)
  22 Li     4.852674    4.866479   13.470687    ( 0.0000,  0.0000,  0.0000)
  23 Li     8.116775    4.831906   13.509940    ( 0.0000,  0.0000,  0.0000)
  24 Li     1.595526    8.104181   13.508031    ( 0.0000,  0.0000,  0.0000)
  25 Li     4.852681    8.069853   13.470670    ( 0.0000,  0.0000,  0.0000)
  26 Li     8.116822    8.104431   13.509961    ( 0.0000,  0.0000,  0.0000)
  27 Li     0.029613    0.133729   15.334845    ( 0.0000,  0.0000,  0.0000)
  28 Li     3.276020   -0.009602   15.400715    ( 0.0000,  0.0000,  0.0000)
  29 Li     6.443052   -0.007449   15.381038    ( 0.0000,  0.0000,  0.0000)
  30 Li     0.029518    3.101190   15.335078    ( 0.0000,  0.0000,  0.0000)
  31 Li     3.276012    3.243675   15.400655    ( 0.0000,  0.0000,  0.0000)
  32 Li     6.442997    3.241535   15.380972    ( 0.0000,  0.0000,  0.0000)
  33 Li     0.001738    6.468244   15.447550    ( 0.0000,  0.0000,  0.0000)
  34 Li     3.235235    6.468149   15.436158    ( 0.0000,  0.0000,  0.0000)
  35 Li     6.459359    6.468137   15.432702    ( 0.0000,  0.0000,  0.0000)
  36 Br    -0.278666    1.616723   21.812701    ( 0.0000,  0.0000,  0.0000)
  37 H     -1.033315    1.617087   20.601843    ( 0.0000,  0.0000,  0.0000)
  38 N     -0.101921    1.614892   16.935436    ( 0.0000,  0.0000,  0.0000)
  39 N     -0.090850    1.617516   18.055578    ( 0.0000,  0.0000,  0.0000)

Unit cell:
           periodic     x           y           z      points  spacing
  1. axis:    yes    9.702222    0.000000    0.000000    60     0.1617
  2. axis:    yes    0.000000    9.702222    0.000000    60     0.1617
  3. axis:    no     0.000000    0.000000   26.851111   168     0.1598

  Lengths:   9.702222   9.702222  26.851111
  Angles:   90.000000  90.000000  90.000000

Effective grid spacing dv^(1/3) = 0.1611

     iter     time        total  log10-change:
                         energy  eigst   dens
iter:   1 06:52:40  -331.019712  -1.18
iter:   2 06:53:21  -331.014585  -1.76  -2.09
iter:   3 06:54:02  -331.012593c -2.32  -2.16
iter:   4 06:54:44  -331.009810c -2.37  -2.39
Writing to output.gpw (mode='')

iter:   5 06:55:26  -331.010148c -2.83  -2.62
iter:   6 06:56:07  -331.009258c -2.52  -2.61
iter:   7 06:56:48  -331.009069c -3.03  -2.83
iter:   8 06:57:29  -331.009083c -3.08  -2.95
iter:   9 06:58:10  -331.009025c -3.29  -2.90
Writing to output.gpw (mode='')

iter:  10 06:58:54  -331.008989c -3.84  -3.07
iter:  11 06:59:35  -331.009001c -3.79  -3.16
iter:  12 07:00:16  -331.008996c -4.22  -3.30
iter:  13 07:00:58  -331.009006c -4.43  -3.36
iter:  14 07:01:38  -331.009009c -4.50  -3.57
Writing to output.gpw (mode='')

iter:  15 07:02:22  -331.009006c -4.85  -3.67
iter:  16 07:03:03  -331.008996c -4.95  -3.70
iter:  17 07:03:44  -331.008999c -5.09  -3.99
iter:  18 07:04:25  -331.008999c -5.35  -4.10c
iter:  19 07:05:06  -331.009001c -5.54  -4.20c
Writing to output.gpw (mode='')

iter:  20 07:05:50  -331.009002c -5.60  -4.24c
iter:  21 07:06:31  -331.009007c -5.73  -4.27c
iter:  22 07:07:12  -331.009007c -6.21  -4.51c
iter:  23 07:07:53  -331.009007c -6.21  -4.55c
iter:  24 07:08:34  -331.009007c -6.20  -4.64c
Writing to output.gpw (mode='')

iter:  25 07:09:17  -331.009006c -6.20  -4.92c
iter:  26 07:09:58  -331.009006c -6.44  -4.99c
iter:  27 07:10:39  -331.009007c -6.35  -4.99c
iter:  28 07:11:20  -331.009007c -6.53  -5.02c
iter:  29 07:12:01  -331.009007c -6.78  -5.22c
Writing to output.gpw (mode='')

iter:  30 07:12:47  -331.009006c -6.74  -5.24c
iter:  31 07:13:28  -331.009006c -6.94  -5.27c
iter:  32 07:14:09  -331.009007c -6.97  -5.29c
iter:  33 07:14:50  -331.009007c -7.09  -5.38c
iter:  34 07:15:31  -331.009007c -7.12  -5.70c
Writing to output.gpw (mode='')

iter:  35 07:16:14  -331.009007c -7.21  -5.70c
iter:  36 07:16:55  -331.009007c -7.25  -5.77c
iter:  37 07:17:36  -331.009007c -7.21  -5.74c
iter:  38 07:18:18  -331.009007c -7.45c -5.62c

Converged after 38 iterations.

Dipole moment: (22.121656, -4.890561, -0.190237) |e|*Ang

Energy contributions relative to reference atoms: (reference = -81178.542429)

Kinetic:       +109.027220
Potential:     -100.437273
External:        +0.000000
XC:            -339.804914
Entropy (-ST):   -0.138722
Local:           +0.275320
--------------------------
Free energy:   -331.078368
Extrapolated:  -331.009007

Dipole-layer corrected work functions: 3.400480, 3.766181 eV

Showing only first 2 kpts
 Kpt  Band  Eigenvalues  Occupancy
  0    25     -3.83968    1.98820
  0    26     -3.70871    1.84933
  0    27     -3.40869    0.05904
  0    28     -3.34684    0.01750

  1    25     -3.63456    1.47174
  1    26     -3.57387    0.90572
  1    27     -3.55895    0.76094
  1    28     -3.45022    0.13047


Fermi level: -3.58333

No gap
Writing to output.gpw (mode='')


Forces in eV/Ang:
  0 Li    0.01709    0.00003   -0.28078
  1 Li   -0.00374   -0.00003   -0.24972
  2 Li   -0.01516    0.00003   -0.28151
  3 Li    0.00293    0.00461   -0.27487
  4 Li    0.00013    0.00859   -0.29212
  5 Li   -0.00377    0.00741   -0.27591
  6 Li    0.00294   -0.00464   -0.27486
  7 Li    0.00013   -0.00869   -0.29206
  8 Li   -0.00378   -0.00743   -0.27591
  9 Li    0.00176    0.01680    0.31638
 10 Li    0.05212   -0.05145    0.22679
 11 Li   -0.04459   -0.04707    0.23907
 12 Li    0.00176   -0.01679    0.31623
 13 Li    0.05221    0.05151    0.22671
 14 Li   -0.04469    0.04712    0.23896
 15 Li    0.00291   -0.00015    0.25771
 16 Li   -0.05755    0.00004    0.28809
 17 Li    0.06153    0.00000    0.29269
 18 Li    0.00318    0.00008    0.00575
 19 Li    0.00676    0.00000   -0.01169
 20 Li   -0.00357    0.00011   -0.02862
 21 Li    0.01684    0.01934   -0.01959
 22 Li   -0.00374   -0.00334   -0.00483
 23 Li   -0.01623    0.01855   -0.01993
 24 Li    0.01678   -0.01925   -0.01956
 25 Li   -0.00373    0.00340   -0.00483
 26 Li   -0.01616   -0.01855   -0.01996
 27 Li   -0.02497    0.04244    0.04337
 28 Li   -0.01526    0.01449   -0.01091
 29 Li    0.00654    0.00057   -0.00287
 30 Li   -0.02455   -0.04032    0.04249
 31 Li   -0.01525   -0.01448   -0.01096
 32 Li    0.00650   -0.00054   -0.00300
 33 Li   -0.00258    0.00017    0.00806
 34 Li    0.00794   -0.00002   -0.00846
 35 Li   -0.00126    0.00000   -0.00564
 36 Br    0.04491   -0.00044    0.13738
 37 H    -0.03380    0.00014   -0.10583
 38 N     0.12608   -0.00013   -0.27238
 39 N    -0.07007    0.00349    0.42387

System changes: positions 

Initializing position-dependent things.

Density initialized from wave functions
       .-----------------------.  
      /|                       |  
     / |                       |  
    /  |                       |  
   /   |                       |  
  /    |                       |  
 *     |                       |  
 |     |                       |  
 |     |                       |  
 |     |                       |  
 |     |                       |  
 |     |                 Br    |  
 |     |                       |  
 |     |               H       |  
 |     |       Li      Li      |  
 |     |                       |  
 |   Li|     Li      Li   N    |  
 |     |  Li      Li      Ni   |  
 | Li  |   Li      Li          |  
 |     |Li      Li      Li     |  
 Li    |                       |  
 |   Li|     LLi     Li        |  
 |    Li  Li      Li  Li  Li   |  
 | Li  |   Li      Li          |  
 |     |Li      Li      Li     |  
 Li    | Li      Li            |  
 |    Li      Li      Li       |  
 |     |                       |  
 |     |                       |  
 |     |                       |  
 |     |                       |  
 |     |                       |  
 |     |                       |  
 |     .-----------------------.  
 |    /                       /   
 |   /                       /    
 |  /                       /     
 | /                       /      
 |/                       /       
 *-----------------------*        

Positions:
   0 Li     1.617037    1.617037   10.000000    ( 0.0000,  0.0000,  0.0000)
   1 Li     4.851111    1.617037   10.000000    ( 0.0000,  0.0000,  0.0000)
   2 Li     8.085185    1.617037   10.000000    ( 0.0000,  0.0000,  0.0000)
   3 Li     1.617037    4.851111   10.000000    ( 0.0000,  0.0000,  0.0000)
   4 Li     4.851111    4.851111   10.000000    ( 0.0000,  0.0000,  0.0000)
   5 Li     8.085185    4.851111   10.000000    ( 0.0000,  0.0000,  0.0000)
   6 Li     1.617037    8.085185   10.000000    ( 0.0000,  0.0000,  0.0000)
   7 Li     4.851111    8.085185   10.000000    ( 0.0000,  0.0000,  0.0000)
   8 Li     8.085185    8.085185   10.000000    ( 0.0000,  0.0000,  0.0000)
   9 Li     0.000000    0.000000   11.617037    ( 0.0000,  0.0000,  0.0000)
  10 Li     3.234074    0.000000   11.617037    ( 0.0000,  0.0000,  0.0000)
  11 Li     6.468148    0.000000   11.617037    ( 0.0000,  0.0000,  0.0000)
  12 Li     0.000000    3.234074   11.617037    ( 0.0000,  0.0000,  0.0000)
  13 Li     3.234074    3.234074   11.617037    ( 0.0000,  0.0000,  0.0000)
  14 Li     6.468148    3.234074   11.617037    ( 0.0000,  0.0000,  0.0000)
  15 Li     0.000000    6.468148   11.617037    ( 0.0000,  0.0000,  0.0000)
  16 Li     3.234074    6.468148   11.617037    ( 0.0000,  0.0000,  0.0000)
  17 Li     6.468148    6.468148   11.617037    ( 0.0000,  0.0000,  0.0000)
  18 Li     1.691500    1.617082   13.378781    ( 0.0000,  0.0000,  0.0000)
  19 Li     4.850134    1.617043   13.472527    ( 0.0000,  0.0000,  0.0000)
  20 Li     8.025002    1.617068   13.383736    ( 0.0000,  0.0000,  0.0000)
  21 Li     1.598372    4.835090   13.503699    ( 0.0000,  0.0000,  0.0000)
  22 Li     4.852188    4.865459   13.469705    ( 0.0000,  0.0000,  0.0000)
  23 Li     8.113725    4.834774   13.505544    ( 0.0000,  0.0000,  0.0000)
  24 Li     1.598333    8.101239   13.503709    ( 0.0000,  0.0000,  0.0000)
  25 Li     4.852196    8.070876   13.469689    ( 0.0000,  0.0000,  0.0000)
  26 Li     8.113774    8.101560   13.505561    ( 0.0000,  0.0000,  0.0000)
  27 Li     0.025982    0.130034   15.340144    ( 0.0000,  0.0000,  0.0000)
  28 Li     3.272371   -0.007355   15.401850    ( 0.0000,  0.0000,  0.0000)
  29 Li     6.444979   -0.007015   15.384069    ( 0.0000,  0.0000,  0.0000)
  30 Li     0.025928    3.104997   15.340335    ( 0.0000,  0.0000,  0.0000)
  31 Li     3.272365    3.241428   15.401788    ( 0.0000,  0.0000,  0.0000)
  32 Li     6.444920    3.241104   15.383994    ( 0.0000,  0.0000,  0.0000)
  33 Li     0.001378    6.468253   15.448742    ( 0.0000,  0.0000,  0.0000)
  34 Li     3.236125    6.468147   15.435849    ( 0.0000,  0.0000,  0.0000)
  35 Li     6.459467    6.468137   15.432926    ( 0.0000,  0.0000,  0.0000)
  36 Br    -0.262608    1.616713   21.776066    ( 0.0000,  0.0000,  0.0000)
  37 H     -1.051618    1.617094   20.586226    ( 0.0000,  0.0000,  0.0000)
  38 N     -0.086453    1.614533   16.960555    ( 0.0000,  0.0000,  0.0000)
  39 N     -0.096075    1.617421   18.080117    ( 0.0000,  0.0000,  0.0000)

Unit cell:
           periodic     x           y           z      points  spacing
  1. axis:    yes    9.702222    0.000000    0.000000    60     0.1617
  2. axis:    yes    0.000000    9.702222    0.000000    60     0.1617
  3. axis:    no     0.000000    0.000000   26.851111   168     0.1598

  Lengths:   9.702222   9.702222  26.851111
  Angles:   90.000000  90.000000  90.000000

Effective grid spacing dv^(1/3) = 0.1611

     iter     time        total  log10-change:
                         energy  eigst   dens
iter:   1 07:19:15  -331.013917  -1.11
iter:   2 07:19:56  -331.014668  -1.85  -2.26
iter:   3 07:20:37  -331.014103c -2.29  -2.39
iter:   4 07:21:19  -331.012267c -2.32  -2.43
Writing to output.gpw (mode='')

iter:   5 07:22:02  -331.012140c -2.58  -2.71
iter:   6 07:22:44  -331.012048c -2.81  -2.76
iter:   7 07:23:25  -331.012220c -2.57  -2.93
iter:   8 07:24:06  -331.011937c -3.25  -2.78
iter:   9 07:24:47  -331.011941c -3.81  -3.01
Writing to output.gpw (mode='')

iter:  10 07:25:30  -331.011934c -3.72  -3.06
iter:  11 07:26:12  -331.011939c -4.22  -3.18
iter:  12 07:26:53  -331.011926c -4.10  -3.20
iter:  13 07:27:34  -331.011920c -4.59  -3.17
iter:  14 07:28:15  -331.011904c -4.65  -3.23
Writing to output.gpw (mode='')

iter:  15 07:28:58  -331.011912c -4.37  -3.38
iter:  16 07:29:39  -331.011916c -4.56  -3.65
iter:  17 07:30:21  -331.011914c -5.17  -3.71
iter:  18 07:31:02  -331.011919c -5.28  -3.78
iter:  19 07:31:43  -331.011913c -5.31  -3.87
Writing to output.gpw (mode='')

iter:  20 07:32:27  -331.011915c -5.37  -3.97
iter:  21 07:33:08  -331.011911c -5.88  -4.13c
iter:  22 07:33:49  -331.011910c -5.75  -4.28c
iter:  23 07:34:30  -331.011912c -5.75  -4.36c
iter:  24 07:35:11  -331.011912c -6.05  -4.46c
Writing to output.gpw (mode='')

iter:  25 07:35:55  -331.011913c -6.14  -4.58c
iter:  26 07:36:36  -331.011914c -6.47  -4.67c
iter:  27 07:37:18  -331.011914c -6.41  -4.71c
iter:  28 07:37:58  -331.011913c -6.62  -4.74c
iter:  29 07:38:39  -331.011912c -6.84  -4.75c
Writing to output.gpw (mode='')

iter:  30 07:39:22  -331.011912c -6.85  -5.02c
iter:  31 07:40:03  -331.011912c -6.99  -5.24c
iter:  32 07:40:44  -331.011912c -7.10  -5.23c
iter:  33 07:41:25  -331.011912c -6.98  -5.31c
iter:  34 07:42:06  -331.011912c -7.11  -5.38c
Writing to output.gpw (mode='')

iter:  35 07:42:50  -331.011912c -7.15  -5.44c
iter:  36 07:43:31  -331.011912c -7.46c -5.64c

Converged after 36 iterations.

Dipole moment: (20.677946, -4.901764, -0.188766) |e|*Ang

Energy contributions relative to reference atoms: (reference = -81178.542429)

Kinetic:       +108.898373
Potential:     -100.371166
External:        +0.000000
XC:            -339.745002
Entropy (-ST):   -0.138738
Local:           +0.275251
--------------------------
Free energy:   -331.081281
Extrapolated:  -331.011912

Dipole-layer corrected work functions: 3.400494, 3.763367 eV

Showing only first 2 kpts
 Kpt  Band  Eigenvalues  Occupancy
  0    25     -3.83856    1.98827
  0    26     -3.70881    1.85346
  0    27     -3.40793    0.05977
  0    28     -3.34469    0.01724

  1    25     -3.63271    1.46819
  1    26     -3.57240    0.90498
  1    27     -3.55726    0.75816
  1    28     -3.45063    0.13498


Fermi level: -3.58193

No gap
Writing to output.gpw (mode='')


Forces in eV/Ang:
  0 Li    0.01674    0.00004   -0.28013
  1 Li   -0.00296   -0.00003   -0.25046
  2 Li   -0.01539    0.00004   -0.28081
  3 Li    0.00306    0.00508   -0.27454
  4 Li   -0.00009    0.00814   -0.29172
  5 Li   -0.00401    0.00721   -0.27522
  6 Li    0.00307   -0.00512   -0.27453
  7 Li   -0.00009   -0.00825   -0.29165
  8 Li   -0.00403   -0.00723   -0.27522
  9 Li    0.00269    0.01620    0.31526
 10 Li    0.04999   -0.04867    0.22705
 11 Li   -0.04415   -0.04590    0.23722
 12 Li    0.00268   -0.01618    0.31509
 13 Li    0.05009    0.04873    0.22696
 14 Li   -0.04426    0.04596    0.23710
 15 Li    0.00289   -0.00017    0.25442
 16 Li   -0.05460    0.00004    0.28491
 17 Li    0.05879    0.00001    0.28892
 18 Li    0.00493    0.00008   -0.00230
 19 Li    0.00523    0.00000   -0.00564
 20 Li   -0.00497    0.00011   -0.02278
 21 Li    0.01170    0.01422   -0.01123
 22 Li   -0.00276   -0.00259   -0.00175
 23 Li   -0.01204    0.01400   -0.01213
 24 Li    0.01160   -0.01412   -0.01118
 25 Li   -0.00275    0.00265   -0.00175
 26 Li   -0.01195   -0.01397   -0.01213
 27 Li   -0.01990    0.04784    0.05018
 28 Li   -0.01098    0.01017   -0.01176
 29 Li    0.00490    0.00082   -0.00730
 30 Li   -0.01959   -0.04534    0.04901
 31 Li   -0.01097   -0.01016   -0.01183
 32 Li    0.00487   -0.00080   -0.00742
 33 Li   -0.00200    0.00020    0.00405
 34 Li    0.00668   -0.00002   -0.00809
 35 Li   -0.00109    0.00000   -0.00663
 36 Br    0.02309   -0.00024    0.13039
 37 H    -0.01945    0.00010   -0.07817
 38 N     0.09724   -0.00083   -0.29153
 39 N    -0.04902    0.00460    0.40311

System changes: positions 

Initializing position-dependent things.

Density initialized from wave functions
       .-----------------------.  
      /|                       |  
     / |                       |  
    /  |                       |  
   /   |                       |  
  /    |                       |  
 *     |                       |  
 |     |                       |  
 |     |                       |  
 |     |                       |  
 |     |                       |  
 |     |                 Br    |  
 |     |                       |  
 |     |               H       |  
 |     |       Li      Li      |  
 |     |                       |  
 |   Li|     Li      Li   N    |  
 |     |  Li      Li      Ni   |  
 | Li  |   Li      Li          |  
 |     |Li      Li      Li     |  
 Li    |                       |  
 |   Li|     LLi     Li        |  
 |    Li  Li      Li  Li  Li   |  
 | Li  |   Li      Li          |  
 |     |Li      Li      Li     |  
 Li    | Li      Li            |  
 |    Li      Li      Li       |  
 |     |                       |  
 |     |                       |  
 |     |                       |  
 |     |                       |  
 |     |                       |  
 |     |                       |  
 |     .-----------------------.  
 |    /                       /   
 |   /                       /    
 |  /                       /     
 | /                       /      
 |/                       /       
 *-----------------------*        

Positions:
   0 Li     1.617037    1.617037   10.000000    ( 0.0000,  0.0000,  0.0000)
   1 Li     4.851111    1.617037   10.000000    ( 0.0000,  0.0000,  0.0000)
   2 Li     8.085185    1.617037   10.000000    ( 0.0000,  0.0000,  0.0000)
   3 Li     1.617037    4.851111   10.000000    ( 0.0000,  0.0000,  0.0000)
   4 Li     4.851111    4.851111   10.000000    ( 0.0000,  0.0000,  0.0000)
   5 Li     8.085185    4.851111   10.000000    ( 0.0000,  0.0000,  0.0000)
   6 Li     1.617037    8.085185   10.000000    ( 0.0000,  0.0000,  0.0000)
   7 Li     4.851111    8.085185   10.000000    ( 0.0000,  0.0000,  0.0000)
   8 Li     8.085185    8.085185   10.000000    ( 0.0000,  0.0000,  0.0000)
   9 Li     0.000000    0.000000   11.617037    ( 0.0000,  0.0000,  0.0000)
  10 Li     3.234074    0.000000   11.617037    ( 0.0000,  0.0000,  0.0000)
  11 Li     6.468148    0.000000   11.617037    ( 0.0000,  0.0000,  0.0000)
  12 Li     0.000000    3.234074   11.617037    ( 0.0000,  0.0000,  0.0000)
  13 Li     3.234074    3.234074   11.617037    ( 0.0000,  0.0000,  0.0000)
  14 Li     6.468148    3.234074   11.617037    ( 0.0000,  0.0000,  0.0000)
  15 Li     0.000000    6.468148   11.617037    ( 0.0000,  0.0000,  0.0000)
  16 Li     3.234074    6.468148   11.617037    ( 0.0000,  0.0000,  0.0000)
  17 Li     6.468148    6.468148   11.617037    ( 0.0000,  0.0000,  0.0000)
  18 Li     1.689819    1.617090   13.382509    ( 0.0000,  0.0000,  0.0000)
  19 Li     4.851014    1.617043   13.469636    ( 0.0000,  0.0000,  0.0000)
  20 Li     8.026463    1.617078   13.382243    ( 0.0000,  0.0000,  0.0000)
  21 Li     1.601002    4.837997   13.499510    ( 0.0000,  0.0000,  0.0000)
  22 Li     4.851696    4.864651   13.468374    ( 0.0000,  0.0000,  0.0000)
  23 Li     8.111108    4.837602   13.501307    ( 0.0000,  0.0000,  0.0000)
  24 Li     1.600960    8.098341   13.499520    ( 0.0000,  0.0000,  0.0000)
  25 Li     4.851705    8.071690   13.468358    ( 0.0000,  0.0000,  0.0000)
  26 Li     8.111162    8.098731   13.501319    ( 0.0000,  0.0000,  0.0000)
  27 Li     0.022833    0.128942   15.342283    ( 0.0000,  0.0000,  0.0000)
  28 Li     3.269148   -0.004919   15.402165    ( 0.0000,  0.0000,  0.0000)
  29 Li     6.446715   -0.006575   15.385906    ( 0.0000,  0.0000,  0.0000)
  30 Li     0.022820    3.106261   15.342425    ( 0.0000,  0.0000,  0.0000)
  31 Li     3.269143    3.238993   15.402098    ( 0.0000,  0.0000,  0.0000)
  32 Li     6.446650    3.240667   15.385817    ( 0.0000,  0.0000,  0.0000)
  33 Li     0.001017    6.468269   15.450269    ( 0.0000,  0.0000,  0.0000)
  34 Li     3.237287    6.468145   15.435329    ( 0.0000,  0.0000,  0.0000)
  35 Li     6.459211    6.468138   15.432888    ( 0.0000,  0.0000,  0.0000)
  36 Br    -0.252144    1.616694   21.753713    ( 0.0000,  0.0000,  0.0000)
  37 H     -1.062770    1.617102   20.573965    ( 0.0000,  0.0000,  0.0000)
  38 N     -0.074800    1.613969   16.984729    ( 0.0000,  0.0000,  0.0000)
  39 N     -0.100115    1.617368   18.105240    ( 0.0000,  0.0000,  0.0000)

Unit cell:
           periodic     x           y           z      points  spacing
  1. axis:    yes    9.702222    0.000000    0.000000    60     0.1617
  2. axis:    yes    0.000000    9.702222    0.000000    60     0.1617
  3. axis:    no     0.000000    0.000000   26.851111   168     0.1598

  Lengths:   9.702222   9.702222  26.851111
  Angles:   90.000000  90.000000  90.000000

Effective grid spacing dv^(1/3) = 0.1611

     iter     time        total  log10-change:
                         energy  eigst   dens
iter:   1 07:44:28  -331.034519  -1.16
iter:   2 07:45:09  -331.019943  -1.79  -1.83
iter:   3 07:45:50  -331.014577c -2.53  -2.12
iter:   4 07:46:31  -331.013767c -2.77  -2.55
Writing to output.gpw (mode='')

iter:   5 07:47:18  -331.013562c -2.35  -2.71
iter:   6 07:47:59  -331.013434c -3.43  -2.79
iter:   7 07:48:40  -331.013434c -3.18  -2.98
iter:   8 07:49:21  -331.013502c -3.26  -3.00
iter:   9 07:50:02  -331.013446c -4.02  -3.11
Writing to output.gpw (mode='')

iter:  10 07:50:45  -331.013408c -4.05  -3.23
iter:  11 07:51:26  -331.013401c -4.64  -3.39
iter:  12 07:52:07  -331.013392c -4.42  -3.39
iter:  13 07:52:49  -331.013393c -4.22  -3.52
iter:  14 07:53:30  -331.013397c -4.92  -3.66
Writing to output.gpw (mode='')

iter:  15 07:54:14  -331.013400c -4.91  -3.71
iter:  16 07:54:55  -331.013403c -5.08  -3.99
iter:  17 07:55:36  -331.013399c -5.37  -4.01c
iter:  18 07:56:18  -331.013399c -5.38  -4.02c
iter:  19 07:56:59  -331.013394c -5.54  -4.09c
Writing to output.gpw (mode='')

iter:  20 07:57:41  -331.013395c -5.88  -4.31c
iter:  21 07:58:22  -331.013396c -6.09  -4.35c
iter:  22 07:59:03  -331.013399c -6.04  -4.44c
iter:  23 07:59:45  -331.013397c -6.19  -4.65c
iter:  24 08:00:26  -331.013397c -6.43  -4.76c
Writing to output.gpw (mode='')

iter:  25 08:01:10  -331.013398c -6.48  -4.78c
iter:  26 08:01:51  -331.013397c -6.60  -4.81c
iter:  27 08:02:33  -331.013398c -6.89  -4.94c
iter:  28 08:03:14  -331.013397c -7.00  -5.02c
iter:  29 08:03:55  -331.013397c -6.96  -5.08c
Writing to output.gpw (mode='')

iter:  30 08:04:38  -331.013397c -6.95  -5.18c
iter:  31 08:05:19  -331.013397c -7.26  -5.41c
iter:  32 08:06:00  -331.013397c -7.30  -5.49c
iter:  33 08:06:41  -331.013397c -7.25  -5.52c
iter:  34 08:07:22  -331.013397c -7.45c -5.65c

Converged after 34 iterations.

Dipole moment: (19.564793, -4.934282, -0.191107) |e|*Ang

Energy contributions relative to reference atoms: (reference = -81178.542429)

Kinetic:       +108.411738
Potential:     -100.005580
External:        +0.000000
XC:            -339.627459
Entropy (-ST):   -0.138837
Local:           +0.277323
--------------------------
Free energy:   -331.082815
Extrapolated:  -331.013397

Dipole-layer corrected work functions: 3.400733, 3.768107 eV

Showing only first 2 kpts
 Kpt  Band  Eigenvalues  Occupancy
  0    25     -3.84177    1.98843
  0    26     -3.71283    1.85757
  0    27     -3.41092    0.06036
  0    28     -3.34729    0.01728

  1    25     -3.63482    1.46524
  1    26     -3.57462    0.90234
  1    27     -3.55924    0.75337
  1    28     -3.45473    0.13907


Fermi level: -3.58442

No gap
Writing to output.gpw (mode='')


Forces in eV/Ang:
  0 Li    0.01650    0.00005   -0.27970
  1 Li   -0.00237   -0.00004   -0.25093
  2 Li   -0.01562    0.00005   -0.28038
  3 Li    0.00324    0.00544   -0.27425
  4 Li   -0.00028    0.00775   -0.29143
  5 Li   -0.00422    0.00703   -0.27460
  6 Li    0.00325   -0.00548   -0.27423
  7 Li   -0.00028   -0.00788   -0.29135
  8 Li   -0.00424   -0.00706   -0.27459
  9 Li    0.00373    0.01556    0.31425
 10 Li    0.04841   -0.04673    0.22650
 11 Li   -0.04400   -0.04560    0.23480
 12 Li    0.00373   -0.01552    0.31403
 13 Li    0.04852    0.04680    0.22639
 14 Li   -0.04412    0.04567    0.23467
 15 Li    0.00291   -0.00021    0.25103
 16 Li   -0.05183    0.00004    0.28143
 17 Li    0.05616    0.00001    0.28517
 18 Li    0.00545    0.00008   -0.00909
 19 Li    0.00382    0.00001    0.00032
 20 Li   -0.00549    0.00011   -0.01630
 21 Li    0.00702    0.00964   -0.00353
 22 Li   -0.00189   -0.00217    0.00137
 23 Li   -0.00851    0.01001   -0.00512
 24 Li    0.00688   -0.00952   -0.00345
 25 Li   -0.00188    0.00225    0.00136
 26 Li   -0.00839   -0.00995   -0.00509
 27 Li   -0.01615    0.05130    0.06082
 28 Li   -0.00741    0.00608   -0.01230
 29 Li    0.00374    0.00124   -0.01073
 30 Li   -0.01592   -0.04820    0.05918
 31 Li   -0.00740   -0.00607   -0.01239
 32 Li    0.00372   -0.00121   -0.01086
 33 Li   -0.00145    0.00024    0.00005
 34 Li    0.00560   -0.00002   -0.00783
 35 Li   -0.00082    0.00000   -0.00763
 36 Br   -0.02443   -0.00026    0.06650
 37 H     0.03608    0.00008    0.00077
 38 N    -0.00128    0.01549   -0.13668
 39 N    -0.06283    0.00301    0.17681

System changes: positions 

Initializing position-dependent things.

Density initialized from wave functions
       .-----------------------.  
      /|                       |  
     / |                       |  
    /  |                       |  
   /   |                       |  
  /    |                       |  
 *     |                       |  
 |     |                       |  
 |     |                       |  
 |     |                       |  
 |     |                       |  
 |     |                 Br    |  
 |     |                       |  
 |     |               H       |  
 |     |       Li      Li      |  
 |     |                       |  
 |   Li|     Li      Li   N    |  
 |     |  Li      Li      Ni   |  
 | Li  |   Li      Li          |  
 |     |Li      Li      Li     |  
 Li    |                       |  
 |   Li|     LLi     Li        |  
 |    Li  Li      Li  Li  Li   |  
 | Li  |   Li      Li          |  
 |     |Li      Li      Li     |  
 Li    | Li      Li            |  
 |    Li      Li      Li       |  
 |     |                       |  
 |     |                       |  
 |     |                       |  
 |     |                       |  
 |     |                       |  
 |     |                       |  
 |     .-----------------------.  
 |    /                       /   
 |   /                       /    
 |  /                       /     
 | /                       /      
 |/                       /       
 *-----------------------*        

Positions:
   0 Li     1.617037    1.617037   10.000000    ( 0.0000,  0.0000,  0.0000)
   1 Li     4.851111    1.617037   10.000000    ( 0.0000,  0.0000,  0.0000)
   2 Li     8.085185    1.617037   10.000000    ( 0.0000,  0.0000,  0.0000)
   3 Li     1.617037    4.851111   10.000000    ( 0.0000,  0.0000,  0.0000)
   4 Li     4.851111    4.851111   10.000000    ( 0.0000,  0.0000,  0.0000)
   5 Li     8.085185    4.851111   10.000000    ( 0.0000,  0.0000,  0.0000)
   6 Li     1.617037    8.085185   10.000000    ( 0.0000,  0.0000,  0.0000)
   7 Li     4.851111    8.085185   10.000000    ( 0.0000,  0.0000,  0.0000)
   8 Li     8.085185    8.085185   10.000000    ( 0.0000,  0.0000,  0.0000)
   9 Li     0.000000    0.000000   11.617037    ( 0.0000,  0.0000,  0.0000)
  10 Li     3.234074    0.000000   11.617037    ( 0.0000,  0.0000,  0.0000)
  11 Li     6.468148    0.000000   11.617037    ( 0.0000,  0.0000,  0.0000)
  12 Li     0.000000    3.234074   11.617037    ( 0.0000,  0.0000,  0.0000)
  13 Li     3.234074    3.234074   11.617037    ( 0.0000,  0.0000,  0.0000)
  14 Li     6.468148    3.234074   11.617037    ( 0.0000,  0.0000,  0.0000)
  15 Li     0.000000    6.468148   11.617037    ( 0.0000,  0.0000,  0.0000)
  16 Li     3.234074    6.468148   11.617037    ( 0.0000,  0.0000,  0.0000)
  17 Li     6.468148    6.468148   11.617037    ( 0.0000,  0.0000,  0.0000)
  18 Li     1.691904    1.617093   13.380169    ( 0.0000,  0.0000,  0.0000)
  19 Li     4.851150    1.617044   13.468437    ( 0.0000,  0.0000,  0.0000)
  20 Li     8.024957    1.617082   13.379142    ( 0.0000,  0.0000,  0.0000)
  21 Li     1.600889    4.838104   13.499404    ( 0.0000,  0.0000,  0.0000)
  22 Li     4.851660    4.864918   13.467723    ( 0.0000,  0.0000,  0.0000)
  23 Li     8.111615    4.837705   13.501242    ( 0.0000,  0.0000,  0.0000)
  24 Li     1.600843    8.098237   13.499416    ( 0.0000,  0.0000,  0.0000)
  25 Li     4.851670    8.071426   13.467706    ( 0.0000,  0.0000,  0.0000)
  26 Li     8.111674    8.098631   13.501256    ( 0.0000,  0.0000,  0.0000)
  27 Li     0.023417    0.132508   15.337267    ( 0.0000,  0.0000,  0.0000)
  28 Li     3.269577   -0.004471   15.401011    ( 0.0000,  0.0000,  0.0000)
  29 Li     6.446548   -0.006529   15.384279    ( 0.0000,  0.0000,  0.0000)
  30 Li     0.023407    3.102790   15.337397    ( 0.0000,  0.0000,  0.0000)
  31 Li     3.269572    3.238545   15.400939    ( 0.0000,  0.0000,  0.0000)
  32 Li     6.446480    3.240622   15.384185    ( 0.0000,  0.0000,  0.0000)
[...]
iter:  17 13:53:01  -331.196230c -5.33  -4.13c
iter:  18 13:53:42  -331.196229c -5.67  -4.28c
iter:  19 13:54:23  -331.196228c -6.04  -4.30c
Writing to output.gpw (mode='')

iter:  20 13:55:06  -331.196227c -5.92  -4.40c
iter:  21 13:55:47  -331.196229c -5.97  -4.49c
iter:  22 13:56:28  -331.196229c -6.18  -4.49c
iter:  23 13:57:09  -331.196228c -6.26  -4.52c
iter:  24 13:57:50  -331.196228c -6.65  -4.80c
Writing to output.gpw (mode='')

iter:  25 13:58:33  -331.196228c -6.71  -4.83c
iter:  26 13:59:14  -331.196228c -6.74  -5.01c
iter:  27 13:59:55  -331.196228c -7.14  -5.18c
iter:  28 14:00:36  -331.196228c -7.24  -5.24c
iter:  29 14:01:17  -331.196228c -7.12  -5.25c
Writing to output.gpw (mode='')

iter:  30 14:02:01  -331.196228c -7.21  -5.35c
iter:  31 14:02:42  -331.196228c -7.47c -5.51c

Converged after 31 iterations.

Dipole moment: (13.908355, -1.577996, -0.231949) |e|*Ang

Energy contributions relative to reference atoms: (reference = -81178.542429)

Kinetic:       +107.277260
Potential:      -99.665236
External:        +0.000000
XC:            -339.015792
Entropy (-ST):   -0.147988
Local:           +0.281534
--------------------------
Free energy:   -331.270223
Extrapolated:  -331.196228

Dipole-layer corrected work functions: 3.405408, 3.851294 eV

Showing only first 2 kpts
 Kpt  Band  Eigenvalues  Occupancy
  0    25     -3.87629    1.98605
  0    26     -3.80527    1.94351
  0    27     -3.45187    0.05697
  0    28     -3.40133    0.02111

  1    25     -3.65714    1.28015
  1    26     -3.60997    0.81825
  1    27     -3.60260    0.74799
  1    28     -3.55241    0.35928


Fermi level: -3.62835

No gap
Writing to output.gpw (mode='')


Forces in eV/Ang:
  0 Li    0.00852   -0.00092   -0.26992
  1 Li   -0.00022    0.00155   -0.27526
  2 Li   -0.00816   -0.00093   -0.27053
  3 Li    0.00123    0.00819   -0.26635
  4 Li    0.00065    0.00234   -0.28515
  5 Li   -0.00163    0.00895   -0.26682
  6 Li    0.00109   -0.00277   -0.28037
  7 Li    0.00023    0.00382   -0.27795
  8 Li    0.00047   -0.00363   -0.27916
  9 Li    0.00049   -0.02010    0.30266
 10 Li   -0.00146   -0.00352    0.27654
 11 Li   -0.00433   -0.00742    0.27504
 12 Li   -0.00214   -0.00319    0.27103
 13 Li    0.00973    0.01106    0.27133
 14 Li   -0.00933    0.00982    0.27222
 15 Li    0.00140   -0.02082    0.25683
 16 Li   -0.02295   -0.03524    0.26925
 17 Li    0.01631   -0.03046    0.26588
 18 Li    0.01369   -0.00083   -0.01302
 19 Li   -0.00155    0.00302   -0.00119
 20 Li   -0.01207    0.00352   -0.01822
 21 Li    0.00818    0.01500   -0.01599
 22 Li   -0.00389    0.00030    0.00032
 23 Li   -0.00665    0.00824   -0.01071
 24 Li    0.00796    0.00444   -0.00597
 25 Li    0.00291   -0.00740    0.00017
 26 Li   -0.00145    0.00876   -0.00209
 27 Li   -0.00776    0.02878    0.04006
 28 Li    0.00786   -0.00056   -0.00605
 29 Li   -0.00393   -0.00152   -0.00028
 30 Li    0.00683   -0.05029    0.03527
 31 Li   -0.00011   -0.00230    0.00112
 32 Li   -0.00919    0.00003   -0.00048
 33 Li   -0.00327    0.01431   -0.00210
 34 Li   -0.00938   -0.00414   -0.00828
 35 Li    0.01140   -0.00514   -0.00549
 36 Br    0.02319   -0.00143   -0.09126
 37 H    -0.01887   -0.00273    0.09663
 38 N     0.03402    0.04845   -0.06920
 39 N    -0.02361    0.04077    0.06561

System changes: positions 

Initializing position-dependent things.

Density initialized from wave functions
       .-----------------------.  
      /|                       |  
     / |                       |  
    /  |                       |  
   /   |                       |  
  /    |                       |  
 *     |                       |  
 |     |                       |  
 |     |                       |  
 |     |                       |  
 |     |                       |  
 |     |                Br     |  
 |     |                 H     |  
 |     |                       |  
 |     Li      Li      Li      |  
 |     |                  N    |  
 |   Li|     Li      Li   N    |  
 |     |  Li      Li      Li   |  
 |     |   Li      Li      Li  |  
 |     |Li      Li      Li     |  
 |     |                       |  
 |   LLi     LLi     LLi       |  
 |     |  Li      Li      Li   |  
 | Li  |   Li      Li          |  
 |     |Li      Li      Li     |  
 Li    | Li      Li            |  
 |    Li      Li      Li       |  
 |     |                       |  
 |     |                       |  
 |     |                       |  
 |     |                       |  
 |     |                       |  
 |     |                       |  
 |     .-----------------------.  
 |    /                       /   
 |   /                       /    
 |  /                       /     
 | /                       /      
 |/                       /       
 *-----------------------*        

Positions:
   0 Li     1.617037    1.617037   10.000000    ( 0.0000,  0.0000,  0.0000)
   1 Li     4.851111    1.617037   10.000000    ( 0.0000,  0.0000,  0.0000)
   2 Li     8.085185    1.617037   10.000000    ( 0.0000,  0.0000,  0.0000)
   3 Li     1.617037    4.851111   10.000000    ( 0.0000,  0.0000,  0.0000)
   4 Li     4.851111    4.851111   10.000000    ( 0.0000,  0.0000,  0.0000)
   5 Li     8.085185    4.851111   10.000000    ( 0.0000,  0.0000,  0.0000)
   6 Li     1.617037    8.085185   10.000000    ( 0.0000,  0.0000,  0.0000)
   7 Li     4.851111    8.085185   10.000000    ( 0.0000,  0.0000,  0.0000)
   8 Li     8.085185    8.085185   10.000000    ( 0.0000,  0.0000,  0.0000)
   9 Li     0.000000    0.000000   11.617037    ( 0.0000,  0.0000,  0.0000)
  10 Li     3.234074    0.000000   11.617037    ( 0.0000,  0.0000,  0.0000)
  11 Li     6.468148    0.000000   11.617037    ( 0.0000,  0.0000,  0.0000)
  12 Li     0.000000    3.234074   11.617037    ( 0.0000,  0.0000,  0.0000)
  13 Li     3.234074    3.234074   11.617037    ( 0.0000,  0.0000,  0.0000)
  14 Li     6.468148    3.234074   11.617037    ( 0.0000,  0.0000,  0.0000)
  15 Li     0.000000    6.468148   11.617037    ( 0.0000,  0.0000,  0.0000)
  16 Li     3.234074    6.468148   11.617037    ( 0.0000,  0.0000,  0.0000)
  17 Li     6.468148    6.468148   11.617037    ( 0.0000,  0.0000,  0.0000)
  18 Li     1.605371    1.627039   13.486062    ( 0.0000,  0.0000,  0.0000)
  19 Li     4.848602    1.620314   13.476511    ( 0.0000,  0.0000,  0.0000)
  20 Li     8.092777    1.619611   13.468773    ( 0.0000,  0.0000,  0.0000)
  21 Li     1.590474    4.804969   13.521855    ( 0.0000,  0.0000,  0.0000)
  22 Li     4.850232    4.868849   13.478139    ( 0.0000,  0.0000,  0.0000)
  23 Li     8.107987    4.811407   13.516381    ( 0.0000,  0.0000,  0.0000)
  24 Li     1.630459    8.031548   13.462313    ( 0.0000,  0.0000,  0.0000)
  25 Li     4.846450    8.072964   13.479504    ( 0.0000,  0.0000,  0.0000)
  26 Li     8.069377    8.032489   13.463838    ( 0.0000,  0.0000,  0.0000)
  27 Li     0.006261   -0.127319   15.309356    ( 0.0000,  0.0000,  0.0000)
  28 Li     3.236102   -0.008287   15.400158    ( 0.0000,  0.0000,  0.0000)
  29 Li     6.459851   -0.012639   15.394558    ( 0.0000,  0.0000,  0.0000)
  30 Li    -0.027162    3.140310   15.593391    ( 0.0000,  0.0000,  0.0000)
  31 Li     3.258691    3.241761   15.426713    ( 0.0000,  0.0000,  0.0000)
  32 Li     6.433116    3.245251   15.423939    ( 0.0000,  0.0000,  0.0000)
  33 Li     0.000318    6.404134   15.463579    ( 0.0000,  0.0000,  0.0000)
  34 Li     3.228615    6.467358   15.450010    ( 0.0000,  0.0000,  0.0000)
  35 Li     6.469679    6.464609   15.449052    ( 0.0000,  0.0000,  0.0000)
  36 Br    -0.679590    1.577478   22.353131    ( 0.0000,  0.0000,  0.0000)
  37 H     -0.323966    1.557271   20.964431    ( 0.0000,  0.0000,  0.0000)
  38 N     -0.043587    2.319578   17.448122    ( 0.0000,  0.0000,  0.0000)
  39 N     -0.050784    1.838380   18.453425    ( 0.0000,  0.0000,  0.0000)

Unit cell:
           periodic     x           y           z      points  spacing
  1. axis:    yes    9.702222    0.000000    0.000000    60     0.1617
  2. axis:    yes    0.000000    9.702222    0.000000    60     0.1617
  3. axis:    no     0.000000    0.000000   26.851111   168     0.1598

  Lengths:   9.702222   9.702222  26.851111
  Angles:   90.000000  90.000000  90.000000

Effective grid spacing dv^(1/3) = 0.1611

     iter     time        total  log10-change:
                         energy  eigst   dens
iter:   1 14:03:40  -331.221142  -1.35
iter:   2 14:04:21  -331.205579  -1.94  -1.80
iter:   3 14:05:02  -331.200247c -2.64  -2.08
iter:   4 14:05:43  -331.197701c -2.47  -2.35
Writing to output.gpw (mode='')

iter:   5 14:06:26  -331.197636c -2.87  -2.67
iter:   6 14:07:07  -331.197417c -3.05  -2.74
iter:   7 14:07:48  -331.197429c -2.79  -2.90
iter:   8 14:08:29  -331.197358c -3.59  -2.99
iter:   9 14:09:10  -331.197354c -3.98  -3.22
Writing to output.gpw (mode='')

iter:  10 14:09:52  -331.197348c -4.46  -3.39
iter:  11 14:10:33  -331.197352c -4.57  -3.48
iter:  12 14:11:14  -331.197349c -4.47  -3.52
iter:  13 14:11:55  -331.197350c -4.75  -3.67
iter:  14 14:12:36  -331.197348c -5.00  -3.74
Writing to output.gpw (mode='')

iter:  15 14:13:19  -331.197349c -5.31  -3.85
iter:  16 14:14:00  -331.197349c -5.17  -3.98
iter:  17 14:14:41  -331.197349c -5.46  -4.18c
iter:  18 14:15:22  -331.197351c -5.81  -4.25c
iter:  19 14:16:03  -331.197351c -5.75  -4.36c
Writing to output.gpw (mode='')

iter:  20 14:16:46  -331.197352c -5.88  -4.41c
iter:  21 14:17:27  -331.197352c -6.08  -4.49c
iter:  22 14:18:08  -331.197352c -6.22  -4.63c
iter:  23 14:18:49  -331.197352c -6.37  -4.64c
iter:  24 14:19:30  -331.197352c -6.30  -4.67c
Writing to output.gpw (mode='')

iter:  25 14:20:12  -331.197352c -6.42  -4.78c
iter:  26 14:20:53  -331.197352c -6.63  -4.86c
iter:  27 14:21:34  -331.197352c -6.81  -4.99c
iter:  28 14:22:15  -331.197352c -7.12  -5.10c
iter:  29 14:22:56  -331.197352c -7.02  -5.14c
Writing to output.gpw (mode='')

iter:  30 14:23:38  -331.197352c -7.25  -5.20c
iter:  31 14:24:19  -331.197352c -7.13  -5.23c
iter:  32 14:25:00  -331.197352c -7.28  -5.35c
iter:  33 14:25:41  -331.197352c -7.42c -5.40c

Converged after 33 iterations.

Dipole moment: (12.172516, -1.557222, -0.229264) |e|*Ang

Energy contributions relative to reference atoms: (reference = -81178.542429)

Kinetic:       +107.256972
Potential:      -99.663932
External:        +0.000000
XC:            -338.998252
Entropy (-ST):   -0.148116
Local:           +0.281918
--------------------------
Free energy:   -331.271410
Extrapolated:  -331.197352

Dipole-layer corrected work functions: 3.405418, 3.846142 eV

Showing only first 2 kpts
 Kpt  Band  Eigenvalues  Occupancy
  0    25     -3.87408    1.98615
  0    26     -3.80306    1.94392
  0    27     -3.45001    0.05775
  0    28     -3.39938    0.02137

  1    25     -3.65459    1.28036
  1    26     -3.60746    0.81879
  1    27     -3.59990    0.74685
  1    28     -3.54988    0.35953


Fermi level: -3.62578

No gap
Writing to output.gpw (mode='')


Forces in eV/Ang:
  0 Li    0.00871   -0.00084   -0.26930
  1 Li   -0.00024    0.00156   -0.27523
  2 Li   -0.00822   -0.00087   -0.26971
  3 Li    0.00158    0.00860   -0.26589
  4 Li    0.00049    0.00239   -0.28495
  5 Li   -0.00186    0.00909   -0.26591
  6 Li    0.00127   -0.00310   -0.28025
  7 Li    0.00001    0.00368   -0.27759
  8 Li    0.00034   -0.00372   -0.27859
  9 Li    0.00324   -0.02038    0.30202
 10 Li   -0.00106   -0.00231    0.27592
 11 Li   -0.00700   -0.00868    0.27273
 12 Li    0.00059   -0.00303    0.26845
 13 Li    0.01065    0.00963    0.26941
 14 Li   -0.01303    0.01130    0.26824
 15 Li    0.00048   -0.02146    0.25270
 16 Li   -0.01893   -0.03557    0.26235
 17 Li    0.01425   -0.03079    0.26111
 18 Li    0.01152   -0.00191   -0.01755
 19 Li    0.00027    0.00306    0.00199
 20 Li   -0.01285    0.00280    0.00401
 21 Li    0.00023    0.00940   -0.00250
 22 Li   -0.00335   -0.00253    0.00322
 23 Li   -0.00126    0.00404    0.00106
 24 Li   -0.00030    0.01288    0.00714
 25 Li    0.00412   -0.00599    0.00128
 26 Li    0.00225    0.01276    0.00637
 27 Li   -0.00786    0.02178    0.03143
 28 Li    0.00292   -0.00151   -0.00754
 29 Li    0.00335    0.00452   -0.00678
 30 Li    0.01310   -0.02588    0.00982
 31 Li   -0.00447   -0.00083   -0.00197
 32 Li   -0.00153   -0.00531   -0.00829
 33 Li   -0.00279    0.01138   -0.01055
 34 Li   -0.00169   -0.00359   -0.00732
 35 Li    0.00485   -0.00393   -0.00647
 36 Br    0.01237   -0.00062   -0.04031
 37 H    -0.01412   -0.00966    0.04422
 38 N     0.00792    0.00448    0.00268
 39 N    -0.02628    0.03288    0.02674

Timing:                                      incl.     excl.
-------------------------------------------------------------------
Density initialized from wave functions:    64.733    64.728   0.1% |
 Symmetrize density:                         0.005     0.005   0.0% |
Forces:                                    353.578   353.578   0.3% |
Hamiltonian:                              1754.292     0.020   0.0% |
 Atomic:                                     7.625     0.093   0.0% |
  XC Correction:                             7.531     7.531   0.0% |
 Calculate atomic Hamiltonians:              7.000     7.000   0.0% |
 Communicate:                               12.075    12.075   0.0% |
 Hartree integrate/restrict:                 5.670     5.670   0.0% |
 Poisson:                                  190.122    89.045   0.1% |
  Communicate from 1D:                      12.243    12.243   0.0% |
  Communicate from 2D:                      18.558    18.558   0.0% |
  Communicate to 1D:                         4.636     4.636   0.0% |
  Communicate to 2D:                        18.280    18.280   0.0% |
  FFT 1D:                                   19.342    19.342   0.0% |
  FFT 2D:                                   28.018    28.018   0.0% |
 XC 3D grid:                              1529.606   471.896   0.4% |
  VdW-DF integral:                        1057.710    13.633   0.0% |
   Convolution:                            207.295   207.295   0.2% |
   FFT:                                     65.490    65.490   0.1% |
   gather:                                 257.919   257.919   0.2% |
   hmm1:                                    43.571    43.571   0.0% |
   hmm2:                                    68.701    68.701   0.1% |
   iFFT:                                    64.626    64.626   0.1% |
   potential:                              327.718    10.868   0.0% |
    collect:                                25.967    25.967   0.0% |
    p1:                                    144.916   144.916   0.1% |
    p2:                                    100.300   100.300   0.1% |
    sum:                                    45.666    45.666   0.0% |
   splines:                                  8.757     8.757   0.0% |
 vbar:                                       2.173     2.173   0.0% |
LCAO initialization:                         6.719     0.324   0.0% |
 LCAO eigensolver:                           2.128     0.001   0.0% |
  Calculate projections:                     0.000     0.000   0.0% |
  DenseAtomicCorrection:                     0.000     0.000   0.0% |
  Distribute overlap matrix:                 1.999     1.999   0.0% |
  Orbital Layouts:                           0.029     0.029   0.0% |
  Potential matrix:                          0.097     0.097   0.0% |
  Sum over cells:                            0.002     0.002   0.0% |
 LCAO to grid:                               3.269     3.269   0.0% |
 Set positions (LCAO WFS):                   0.997     0.754   0.0% |
  Basic WFS set positions:                   0.004     0.004   0.0% |
  Basis functions set positions:             0.001     0.001   0.0% |
  P tci:                                     0.000     0.000   0.0% |
  ST tci:                                    0.151     0.151   0.0% |
  mktci:                                     0.088     0.088   0.0% |
Redistribute:                                0.067     0.067   0.0% |
SCF-cycle:                               119313.851  2712.779   2.2% ||
 Davidson:                               53560.222 19281.544  15.8% |-----|
  Apply hamiltonian:                      3099.812  3099.812   2.5% ||
  Subspace diag:                          8897.189     0.588   0.0% |
   calc_h_matrix:                         5092.068  1598.410   1.3% ||
    Apply hamiltonian:                    3493.658  3493.658   2.9% ||
   diagonalize:                             98.776    98.776   0.1% |
   rotate_psi:                            3705.758  3705.758   3.0% ||
  calc. matrices:                        16126.174 10501.442   8.6% |--|
   Apply hamiltonian:                     5624.732  5624.732   4.6% |-|
  diagonalize:                              26.998    26.998   0.0% |
  rotate_psi:                             6128.504  6128.504   5.0% |-|
 Density:                                  969.327     0.219   0.0% |
  Atomic density matrices:                  23.765    23.765   0.0% |
  Mix:                                     553.221   553.221   0.5% |
  Multipole moments:                         4.894     4.894   0.0% |
  Pseudo density:                          387.228   387.064   0.3% |
   Symmetrize density:                       0.164     0.164   0.0% |
 Hamiltonian:                            61964.208     0.750   0.0% |
  Atomic:                                  273.335     3.613   0.0% |
   XC Correction:                          269.722   269.722   0.2% |
  Calculate atomic Hamiltonians:           251.302   251.302   0.2% |
  Communicate:                             474.459   474.459   0.4% |
  Hartree integrate/restrict:              210.658   210.658   0.2% |
  Poisson:                                6682.353  3136.748   2.6% ||
   Communicate from 1D:                    422.755   422.755   0.3% |
   Communicate from 2D:                    656.646   656.646   0.5% |
   Communicate to 1D:                      157.772   157.772   0.1% |
   Communicate to 2D:                      652.250   652.250   0.5% |
   FFT 1D:                                 678.868   678.868   0.6% |
   FFT 2D:                                 977.314   977.314   0.8% |
  XC 3D grid:                            53993.705 16726.577  13.7% |----|
   VdW-DF integral:                      37267.127   484.915   0.4% |
    Convolution:                          7408.410  7408.410   6.1% |-|
    FFT:                                  2346.340  2346.340   1.9% ||
    gather:                               9125.794  9125.794   7.5% |--|
    hmm1:                                 1520.188  1520.188   1.2% |
    hmm2:                                 2452.845  2452.845   2.0% ||
    iFFT:                                 2310.224  2310.224   1.9% ||
    potential:                           11618.365   400.856   0.3% |
     collect:                              912.397   912.397   0.7% |
     p1:                                  5173.421  5173.421   4.2% |-|
     p2:                                  3556.361  3556.361   2.9% ||
     sum:                                 1575.329  1575.329   1.3% ||
    splines:                                 0.046     0.046   0.0% |
  vbar:                                     77.646    77.646   0.1% |
 Orthonormalize:                           107.316     0.034   0.0% |
  calc_s_matrix:                            22.693    22.693   0.0% |
  inverse-cholesky:                          1.523     1.523   0.0% |
  projections:                              25.373    25.373   0.0% |
  rotate_psi_s:                             57.693    57.693   0.0% |
Set symmetry:                                0.004     0.004   0.0% |
Other:                                     749.385   749.385   0.6% |
-------------------------------------------------------------------
Total:                                             122242.628 100.0%

Memory usage: 1.60 GiB
Date: Sun Mar  5 14:25:51 2023
