
  ___ ___ ___ _ _ _  
 |   |   |_  | | | | 
 | | | | | . | | | | 
 |__ |  _|___|_____|  22.8.0
 |___|_|             

User:   vazumah@c21.hercules
Date:   Thu Mar  2 01:08:57 2023
Arch:   x86_64
Pid:    20912
CWD:    /home/vazumah/Python_projects/LiNRR/Li_adsorb_studies/proton_donors/N2_with_proton_donor/Li_BCC_100/adsorbates/HBr/bridge/0.0_1.617/N2_z
Python: 3.10.8
gpaw:   /home/vazumah/.conda/envs/GPAW/lib/python3.10/site-packages/gpaw
_gpaw:  /home/vazumah/.conda/envs/GPAW/lib/python3.10/site-packages/
        _gpaw.cpython-310-x86_64-linux-gnu.so
ase:    /home/vazumah/.conda/envs/GPAW/lib/python3.10/site-packages/ase (version 3.22.1)
numpy:  /home/vazumah/.conda/envs/GPAW/lib/python3.10/site-packages/numpy (version 1.24.1)
scipy:  /home/vazumah/.conda/envs/GPAW/lib/python3.10/site-packages/scipy (version 1.10.0)
libxc:  5.2.3
units:  Angstrom and eV
cores: 24
OpenMP: True
OMP_NUM_THREADS: 1

Input parameters:
  h: 0.16
  kpts: {size: [4, 4, 1]}
  occupations: {name: fermi-dirac,
                width: 0.05}
  poissonsolver: {dipolelayer: xy}
  xc: BEEF-vdW

System changes: positions, numbers, cell, pbc, initial_charges, initial_magmoms 

Initialize ...

species:
  Li:
    name: Lithium
    id: 830b4218f175192f93f959cfc0aad614
    Z: 3.0
    valence: 1
    core: 2
    charge: 0.0
    file: /home/vazumah/.conda/envs/GPAW/share/gpaw/Li.PBE.gz
    compensation charges: {type: gauss,
                           rc: 0.33,
                           lmax: 2}
    cutoffs: {filter: 1.91,
              core: 2.55}
    valence states:
      #              energy  rcut
      - 2s(1.00)    -2.874   1.058
      - 2p(0.00)    -1.090   1.058
      -  s          24.337   1.058
  
    # Using partial waves for Li as LCAO basis

  Br:
    name: Bromine
    id: 39dc90fcf3bf77f2d83386b416c2c495
    Z: 35.0
    valence: 7
    core: 28
    charge: 0.0
    file: /home/vazumah/.conda/envs/GPAW/share/gpaw/Br.PBE.gz
    compensation charges: {type: gauss,
                           rc: 0.35,
                           lmax: 2}
    cutoffs: {filter: 1.98,
              core: 2.38}
    valence states:
      #              energy  rcut
      - 4s(2.00)   -20.121   1.111
      - 4p(5.00)    -7.861   1.111
      -  s           7.091   1.111
      -  p          19.351   1.111
      -  d           0.000   1.111
  
    # Using partial waves for Br as LCAO basis

  H:
    name: Hydrogen
    id: d65de229564ff8ea4db303e23b6d1ecf
    Z: 1.0
    valence: 1
    core: 0
    charge: 0.0
    file: /home/vazumah/.conda/envs/GPAW/share/gpaw/H.PBE.gz
    compensation charges: {type: gauss,
                           rc: 0.15,
                           lmax: 2}
    cutoffs: {filter: 0.85,
              core: 0.53}
    valence states:
      #              energy  rcut
      - 1s(1.00)    -6.494   0.476
      -  s          20.717   0.476
      -  p           0.000   0.476
  
    # Using partial waves for H as LCAO basis

  N:
    name: Nitrogen
    id: f7500608b86eaa90eef8b1d9a670dc53
    Z: 7.0
    valence: 5
    core: 2
    charge: 0.0
    file: /home/vazumah/.conda/envs/GPAW/share/gpaw/N.PBE.gz
    compensation charges: {type: gauss,
                           rc: 0.18,
                           lmax: 2}
    cutoffs: {filter: 1.11,
              core: 0.96}
    valence states:
      #              energy  rcut
      - 2s(2.00)   -18.583   0.603
      - 2p(3.00)    -7.089   0.529
      -  s           8.629   0.603
      -  p          20.123   0.529
      -  d           0.000   0.577
  
    # Using partial waves for N as LCAO basis

Reference energy: -81178.542429  # eV

Spin-paired calculation

Convergence criteria:
 Maximum [total energy] change in last 3 cyles: 0.0005 eV / electron
 Maximum integral of absolute [dens]ity change: 0.0001 electrons / valence electron
 Maximum integral of absolute [eigenst]ate change: 4e-08 eV^2 / valence electron
 Maximum number of scf [iter]ations: 333
 (Square brackets indicate name in SCF output, whereas a 'c' in
 the SCF output indicates the quantity has converged.)

Symmetries present (total): 1

  ( 1  0  0)
  ( 0  1  0)
  ( 0  0  1)

16 k-points: 4 x 4 x 1 Monkhorst-Pack grid
8 k-points in the irreducible part of the Brillouin zone
       k-points in crystal coordinates                weights
   0:     0.12500000   -0.37500000    0.00000000          2/16
   1:     0.12500000   -0.12500000    0.00000000          2/16
   2:     0.12500000    0.12500000    0.00000000          2/16
   3:     0.12500000    0.37500000    0.00000000          2/16
   4:     0.37500000   -0.37500000    0.00000000          2/16
   5:     0.37500000   -0.12500000    0.00000000          2/16
   6:     0.37500000    0.12500000    0.00000000          2/16
   7:     0.37500000    0.37500000    0.00000000          2/16

Wave functions: Uniform real-space grid
  Kinetic energy operator: 6*3+1=19 point O(h^6) finite-difference Laplacian
  ScaLapack parameters: grid=1x1, blocksize=None
  Wavefunction extrapolation:
    Improved wavefunction reuse through dual PAW basis 

Occupation numbers: Fermi-Dirac:
  width: 0.0500  # eV
 

Eigensolver
   Davidson(niter=2) 

Densities:
  Coarse grid: 60*60*168 grid
  Fine grid: 120*120*336 grid
  Total Charge: 0.000000 

Density mixing:
  Method: separate
  Backend: pulay
  Linear mixing parameter: 0.05
  old densities: 5
  Damping of long wavelength oscillations: 50 

Hamiltonian:
  XC and Coulomb potentials evaluated on a 120*120*336 grid
  Using the BEEF-vdW Exchange-Correlation functional
  Interpolation: tri-quintic (5. degree polynomial)
  Poisson solver: FastPoissonSolver using
    Stencil: 6*3+1=19 point O(h^6) finite-difference Laplacian
    FFT axes: [0, 1]
    FST axes: [2]

Dipole correction along z-axis 

XC parameters: BEEF-vdW with 2 nearest neighbor stencil

Memory estimate:
  Process memory now: 229.06 MiB
  Calculator: 395.41 MiB
    Density: 121.75 MiB
      Arrays: 39.61 MiB
      Localized functions: 67.04 MiB
      Mixer: 15.11 MiB
    Hamiltonian: 31.20 MiB
      Arrays: 25.90 MiB
      XC: 0.00 MiB
      Poisson: 0.00 MiB
      vbar: 5.30 MiB
    Wavefunctions: 242.46 MiB
      Arrays psit_nG: 111.79 MiB
      Eigensolver: 127.10 MiB
      Projections: 0.04 MiB
      Projectors: 3.53 MiB

Total number of cores used: 24
Parallelization over k-points: 8
Domain decomposition: 1 x 1 x 3

Number of atoms: 40
Number of atomic orbitals: 157
Number of bands in calculation: 37
Number of valence electrons: 54
Bands to converge: occupied

... initialized

Initializing position-dependent things.

Density initialized from atomic densities
Creating initial wave functions:
  37 bands from LCAO basis set

       .-----------------------.  
      /|                       |  
     / |                       |  
    /  |                       |  
   /   |                       |  
  /    |                       |  
 *     |                       |  
 |     |                       |  
 |     |                       |  
 |     |                       |  
 |     |                       |  
 |     |                       |  
 |     |                       |  
 |Br   |              H        |  
 |     |                       |  
 |N    |                       |  
 |   Li|     Li      Li        |  
 |N    |  Li      Li      Li   |  
 | Li  |   Li      Li          |  
 |     |Li      Li      Li     |  
 Li    | Li      Li            |  
 |   LLi     LLi     LLi       |  
 |     |  Li      Li      Li   |  
 | Li  |   Li      Li          |  
 |     |Li      Li      Li     |  
 Li    | Li      Li            |  
 |    Li      Li      Li       |  
 |     |                       |  
 |     |                       |  
 |     |                       |  
 |     |                       |  
 |     |                       |  
 |     |                       |  
 |     .-----------------------.  
 |    /                       /   
 |   /                       /    
 |  /                       /     
 | /                       /      
 |/                       /       
 *-----------------------*        

Positions:
   0 Li     1.617037    1.617037   10.000000    ( 0.0000,  0.0000,  0.0000)
   1 Li     4.851111    1.617037   10.000000    ( 0.0000,  0.0000,  0.0000)
   2 Li     8.085185    1.617037   10.000000    ( 0.0000,  0.0000,  0.0000)
   3 Li     1.617037    4.851111   10.000000    ( 0.0000,  0.0000,  0.0000)
   4 Li     4.851111    4.851111   10.000000    ( 0.0000,  0.0000,  0.0000)
   5 Li     8.085185    4.851111   10.000000    ( 0.0000,  0.0000,  0.0000)
   6 Li     1.617037    8.085185   10.000000    ( 0.0000,  0.0000,  0.0000)
   7 Li     4.851111    8.085185   10.000000    ( 0.0000,  0.0000,  0.0000)
   8 Li     8.085185    8.085185   10.000000    ( 0.0000,  0.0000,  0.0000)
   9 Li     0.000000    0.000000   11.617037    ( 0.0000,  0.0000,  0.0000)
  10 Li     3.234074    0.000000   11.617037    ( 0.0000,  0.0000,  0.0000)
  11 Li     6.468148    0.000000   11.617037    ( 0.0000,  0.0000,  0.0000)
  12 Li     0.000000    3.234074   11.617037    ( 0.0000,  0.0000,  0.0000)
  13 Li     3.234074    3.234074   11.617037    ( 0.0000,  0.0000,  0.0000)
  14 Li     6.468148    3.234074   11.617037    ( 0.0000,  0.0000,  0.0000)
  15 Li     0.000000    6.468148   11.617037    ( 0.0000,  0.0000,  0.0000)
  16 Li     3.234074    6.468148   11.617037    ( 0.0000,  0.0000,  0.0000)
  17 Li     6.468148    6.468148   11.617037    ( 0.0000,  0.0000,  0.0000)
  18 Li     1.617038    1.617038   13.469728    ( 0.0000,  0.0000,  0.0000)
  19 Li     4.851111    1.617038   13.469729    ( 0.0000,  0.0000,  0.0000)
  20 Li     8.085184    1.617038   13.469728    ( 0.0000,  0.0000,  0.0000)
  21 Li     1.617038    4.851111   13.469729    ( 0.0000,  0.0000,  0.0000)
  22 Li     4.851111    4.851111   13.469730    ( 0.0000,  0.0000,  0.0000)
  23 Li     8.085184    4.851111   13.469729    ( 0.0000,  0.0000,  0.0000)
  24 Li     1.617038    8.085184   13.469728    ( 0.0000,  0.0000,  0.0000)
  25 Li     4.851111    8.085184   13.469729    ( 0.0000,  0.0000,  0.0000)
  26 Li     8.085184    8.085184   13.469728    ( 0.0000,  0.0000,  0.0000)
  27 Li    -0.000000   -0.000000   15.445939    ( 0.0000,  0.0000,  0.0000)
  28 Li     3.234074    0.000000   15.445939    ( 0.0000,  0.0000,  0.0000)
  29 Li     6.468148    0.000000   15.445939    ( 0.0000,  0.0000,  0.0000)
  30 Li     0.000000    3.234074   15.445939    ( 0.0000,  0.0000,  0.0000)
  31 Li     3.234076    3.234076   15.445938    ( 0.0000,  0.0000,  0.0000)
  32 Li     6.468146    3.234076   15.445938    ( 0.0000,  0.0000,  0.0000)
  33 Li     0.000000    6.468148   15.445939    ( 0.0000,  0.0000,  0.0000)
  34 Li     3.234076    6.468146   15.445938    ( 0.0000,  0.0000,  0.0000)
  35 Li     6.468146    6.468146   15.445938    ( 0.0000,  0.0000,  0.0000)
  36 Br     0.000000    1.617037   20.445939    ( 0.0000,  0.0000,  0.0000)
  37 H     -1.421857    1.617037   20.445939    ( 0.0000,  0.0000,  0.0000)
  38 N      0.000000    1.617000   17.445939    ( 0.0000,  0.0000,  0.0000)
  39 N      0.000000    1.617000   18.542561    ( 0.0000,  0.0000,  0.0000)

Unit cell:
           periodic     x           y           z      points  spacing
  1. axis:    yes    9.702222    0.000000    0.000000    60     0.1617
  2. axis:    yes    0.000000    9.702222    0.000000    60     0.1617
  3. axis:    no     0.000000    0.000000   26.851111   168     0.1598

  Lengths:   9.702222   9.702222  26.851111
  Angles:   90.000000  90.000000  90.000000

Effective grid spacing dv^(1/3) = 0.1611

     iter     time        total  log10-change:
                         energy  eigst   dens
iter:   1 01:12:12  -501.711880
iter:   2 01:14:34  -258.423699  +2.34  -0.07
iter:   3 01:17:00  -176.163449  +3.29  -0.21
iter:   4 01:19:24  -230.064237  +3.12  -0.18
Writing to output.gpw (mode='')

iter:   5 01:21:54  -247.598920  +2.82  -0.16
iter:   6 01:24:27  -290.416959  +2.56  -0.53
iter:   7 01:26:59  -312.093909  +2.14  -0.71
iter:   8 01:29:25  -322.891447  +1.83  -0.68
iter:   9 01:31:53  -338.592402  +2.05  -0.61
Writing to output.gpw (mode='')

iter:  10 01:34:24  -346.344543  +2.07  -0.59
iter:  11 01:36:54  -324.137637  +1.58  -0.56
iter:  12 01:39:24  -325.902426  +1.22  -0.86
iter:  13 01:41:52  -325.608637  +1.03  -0.93
iter:  14 01:44:29  -327.021040  +1.09  -0.97
Writing to output.gpw (mode='')

iter:  15 01:47:09  -327.290157  +0.79  -0.86
iter:  16 01:49:43  -327.879169  +0.62  -0.89
iter:  17 01:52:16  -327.453464  +0.56  -0.84
iter:  18 01:54:43  -327.241886  +0.30  -0.89
iter:  19 01:57:20  -326.593556  +0.47  -1.00
Writing to output.gpw (mode='')

iter:  20 01:59:55  -326.614723  +0.48  -1.02
iter:  21 02:02:22  -326.310731  -0.20  -0.97
iter:  22 02:04:45  -327.001678  +0.28  -1.04
iter:  23 02:07:18  -326.011450  -0.52  -0.98
iter:  24 02:09:54  -325.633313  -0.14  -1.15
Writing to output.gpw (mode='')

iter:  25 02:12:19  -325.802534  +0.30  -1.41
iter:  26 02:14:47  -325.672149  -0.79  -1.37
iter:  27 02:17:16  -325.688352  -0.50  -1.46
iter:  28 02:19:43  -325.694951c -1.01  -1.49
iter:  29 02:22:13  -325.704717c -0.66  -1.53
Writing to output.gpw (mode='')

iter:  30 02:24:50  -325.678749c -0.69  -1.77
iter:  31 02:27:21  -325.678352c -1.44  -1.90
iter:  32 02:29:44  -325.678027c -1.30  -1.97
iter:  33 02:32:11  -325.677368c -1.48  -2.04
iter:  34 02:34:40  -325.680593c -1.66  -2.13
Writing to output.gpw (mode='')

iter:  35 02:37:15  -325.680921c -1.65  -2.14
iter:  36 02:39:46  -325.683323c -1.55  -2.33
iter:  37 02:42:19  -325.684607c -1.98  -2.49
iter:  38 02:44:53  -325.685835c -1.90  -2.55
iter:  39 02:47:16  -325.687290c -1.93  -2.74
Writing to output.gpw (mode='')

iter:  40 02:49:52  -325.688952c -2.09  -2.83
iter:  41 02:52:23  -325.689422c -2.25  -2.68
iter:  42 02:54:57  -325.690183c -2.31  -3.00
iter:  43 02:57:21  -325.690947c -2.34  -3.06
iter:  44 02:59:53  -325.691520c -2.46  -3.09
Writing to output.gpw (mode='')

iter:  45 03:02:23  -325.692106c -2.39  -3.14
iter:  46 03:04:48  -325.692617c -2.44  -3.18
iter:  47 03:07:21  -325.693039c -2.54  -3.28
iter:  48 03:09:52  -325.693384c -2.69  -3.32
iter:  49 03:12:27  -325.693718c -2.65  -3.40
Writing to output.gpw (mode='')

iter:  50 03:15:05  -325.693986c -2.75  -3.46
iter:  51 03:17:34  -325.694203c -2.91  -3.48
iter:  52 03:20:09  -325.694413c -3.11  -3.53
iter:  53 03:22:42  -325.694547c -3.30  -3.93
iter:  54 03:25:25  -325.694664c -3.33  -3.89
Writing to output.gpw (mode='')

iter:  55 03:28:03  -325.694785c -3.24  -3.85
iter:  56 03:30:34  -325.694876c -3.30  -3.69
iter:  57 03:33:00  -325.694951c -3.44  -3.71
iter:  58 03:35:28  -325.695030c -3.41  -3.67
iter:  59 03:38:00  -325.695101c -3.36  -3.64
Writing to output.gpw (mode='')

iter:  60 03:38:58  -325.695160c -3.49  -3.63
iter:  61 03:39:49  -325.695204c -3.69  -3.56
iter:  62 03:40:40  -325.695245c -3.70  -3.54
iter:  63 03:41:31  -325.695281c -3.74  -3.61
iter:  64 03:42:23  -325.695315c -3.70  -3.70
Writing to output.gpw (mode='')

iter:  65 03:43:15  -325.695345c -3.80  -3.83
iter:  66 03:44:06  -325.695376c -3.72  -3.96
iter:  67 03:44:57  -325.695396c -3.97  -3.99
iter:  68 03:45:48  -325.695412c -3.98  -4.03c
iter:  69 03:46:39  -325.695428c -4.14  -4.10c
Writing to output.gpw (mode='')

iter:  70 03:47:33  -325.695440c -4.09  -4.10c
iter:  71 03:48:24  -325.695451c -4.17  -4.10c
iter:  72 03:49:15  -325.695464c -4.18  -4.09c
iter:  73 03:50:06  -325.695475c -4.27  -4.22c
iter:  74 03:50:56  -325.695483c -4.31  -4.35c
Writing to output.gpw (mode='')

iter:  75 03:51:49  -325.695488c -4.56  -4.38c
iter:  76 03:52:40  -325.695496c -4.35  -4.37c
iter:  77 03:53:31  -325.695502c -4.55  -4.24c
iter:  78 03:54:23  -325.695506c -4.77  -4.37c
iter:  79 03:55:14  -325.695508c -4.76  -4.26c
Writing to output.gpw (mode='')

iter:  80 03:56:06  -325.695511c -4.65  -4.32c
iter:  81 03:56:57  -325.695514c -4.80  -4.37c
iter:  82 03:57:48  -325.695517c -4.72  -4.39c
iter:  83 03:58:39  -325.695518c -4.92  -4.39c
iter:  84 03:59:31  -325.695519c -4.80  -4.48c
Writing to output.gpw (mode='')

iter:  85 04:00:24  -325.695521c -4.86  -4.53c
iter:  86 04:01:15  -325.695521c -5.07  -4.55c
iter:  87 04:02:06  -325.695521c -5.09  -4.71c
iter:  88 04:02:57  -325.695522c -5.12  -4.82c
iter:  89 04:03:48  -325.695523c -5.05  -4.91c
Writing to output.gpw (mode='')

iter:  90 04:04:40  -325.695524c -5.11  -5.03c
iter:  91 04:05:31  -325.695524c -5.23  -5.17c
iter:  92 04:06:22  -325.695525c -5.21  -5.24c
iter:  93 04:07:13  -325.695525c -5.62  -5.20c
iter:  94 04:08:04  -325.695525c -5.53  -5.10c
Writing to output.gpw (mode='')

iter:  95 04:08:57  -325.695526c -5.51  -5.08c
iter:  96 04:09:48  -325.695526c -5.53  -5.02c
iter:  97 04:10:39  -325.695526c -5.69  -4.98c
iter:  98 04:11:30  -325.695526c -5.81  -4.94c
iter:  99 04:12:21  -325.695526c -5.65  -4.88c
Writing to output.gpw (mode='')

iter: 100 04:13:14  -325.695526c -5.43  -4.93c
iter: 101 04:14:05  -325.695527c -5.71  -4.90c
iter: 102 04:14:56  -325.695527c -5.66  -4.84c
iter: 103 04:15:47  -325.695527c -5.96  -4.82c
iter: 104 04:16:38  -325.695527c -6.04  -4.82c
Writing to output.gpw (mode='')

iter: 105 04:17:32  -325.695527c -5.92  -4.80c
iter: 106 04:18:23  -325.695528c -5.74  -4.78c
iter: 107 04:19:14  -325.695527c -6.04  -4.74c
iter: 108 04:20:05  -325.695527c -5.95  -4.70c
iter: 109 04:20:56  -325.695527c -6.23  -4.82c
Writing to output.gpw (mode='')

iter: 110 04:21:48  -325.695527c -6.17  -4.73c
iter: 111 04:22:39  -325.695527c -6.21  -4.89c
iter: 112 04:23:30  -325.695527c -6.20  -4.96c
iter: 113 04:24:22  -325.695527c -6.26  -5.05c
iter: 114 04:25:13  -325.695526c -6.42  -5.20c
Writing to output.gpw (mode='')

iter: 115 04:26:05  -325.695526c -6.44  -5.30c
iter: 116 04:26:56  -325.695526c -6.48  -5.34c
iter: 117 04:27:47  -325.695527c -6.28  -5.34c
iter: 118 04:28:38  -325.695527c -6.65  -5.35c
iter: 119 04:29:29  -325.695527c -6.62  -5.39c
Writing to output.gpw (mode='')

iter: 120 04:30:23  -325.695526c -6.57  -5.51c
iter: 121 04:31:14  -325.695526c -6.67  -5.73c
iter: 122 04:32:05  -325.695526c -6.71  -5.85c
iter: 123 04:32:56  -325.695526c -6.79  -5.83c
iter: 124 04:33:47  -325.695526c -6.56  -5.80c
Writing to output.gpw (mode='')

iter: 125 04:34:40  -325.695526c -6.75  -5.66c
iter: 126 04:35:31  -325.695526c -6.66  -5.69c
iter: 127 04:36:22  -325.695526c -6.57  -5.83c
iter: 128 04:37:13  -325.695526c -6.88  -5.92c
iter: 129 04:38:04  -325.695526c -6.90  -5.93c
Writing to output.gpw (mode='')

iter: 130 04:38:56  -325.695526c -7.02  -5.93c
iter: 131 04:39:47  -325.695526c -7.10  -5.94c
iter: 132 04:40:38  -325.695526c -7.01  -5.92c
iter: 133 04:41:29  -325.695526c -7.06  -5.96c
iter: 134 04:42:20  -325.695526c -7.19  -6.00c
Writing to output.gpw (mode='')

iter: 135 04:43:15  -325.695526c -7.07  -5.99c
iter: 136 04:44:05  -325.695526c -7.15  -5.87c
iter: 137 04:44:56  -325.695526c -6.99  -5.88c
iter: 138 04:45:47  -325.695526c -7.33  -5.94c
iter: 139 04:46:39  -325.695526c -7.18  -5.89c
Writing to output.gpw (mode='')

iter: 140 04:47:32  -325.695526c -7.20  -5.98c
iter: 141 04:48:23  -325.695526c -7.19  -5.89c
iter: 142 04:49:14  -325.695526c -7.13  -5.84c
iter: 143 04:50:05  -325.695526c -7.28  -5.76c
iter: 144 04:50:56  -325.695526c -7.40c -5.95c

Converged after 144 iterations.

Dipole moment: (-13.596585, -3.627943, -0.298110) |e|*Ang

Energy contributions relative to reference atoms: (reference = -81178.542429)

Kinetic:       +138.354532
Potential:     -121.358293
External:        +0.000000
XC:            -342.816192
Entropy (-ST):   -0.145154
Local:           +0.197005
--------------------------
Free energy:   -325.768103
Extrapolated:  -325.695526

Dipole-layer corrected work functions: 3.394353, 3.967422 eV

Showing only first 2 kpts
 Kpt  Band  Eigenvalues  Occupancy
  0    25     -3.92732    1.98563
  0    26     -3.82056    1.88464
  0    27     -3.53368    0.10003
  0    28     -3.42478    0.01186

  1    25     -3.73335    1.48128
  1    26     -3.67303    0.92159
  1    27     -3.65022    0.70262
  1    28     -3.58531    0.25760


Fermi level: -3.68089

No gap
Writing to output.gpw (mode='')


Forces in eV/Ang:
  0 Li    0.01087    0.00000   -0.27100
  1 Li    0.00146    0.00000   -0.26733
  2 Li   -0.01200    0.00000   -0.27262
  3 Li    0.00367    0.00805   -0.27161
  4 Li   -0.00053    0.00098   -0.28202
  5 Li   -0.00301    0.00610   -0.27160
  6 Li    0.00367   -0.00805   -0.27161
  7 Li   -0.00053   -0.00098   -0.28202
  8 Li   -0.00301   -0.00610   -0.27160
  9 Li    0.00003    0.01379    0.29517
 10 Li    0.01677   -0.00653    0.25057
 11 Li   -0.01696   -0.00559    0.25028
 12 Li    0.00003   -0.01379    0.29517
 13 Li    0.01677    0.00654    0.25056
 14 Li   -0.01696    0.00559    0.25028
 15 Li    0.00040   -0.00000    0.24034
 16 Li   -0.02713   -0.00000    0.26161
 17 Li    0.02650   -0.00000    0.26517
 18 Li    0.04297   -0.00000   -0.04233
 19 Li   -0.00155   -0.00000    0.04769
 20 Li   -0.04247   -0.00000   -0.03757
 21 Li   -0.01572   -0.01632    0.05392
 22 Li   -0.00026    0.00964    0.03031
 23 Li    0.01575   -0.01590    0.05249
 24 Li   -0.01572    0.01632    0.05392
 25 Li   -0.00026   -0.00964    0.03032
 26 Li    0.01575    0.01591    0.05250
 27 Li   -0.00213    0.10584    0.08149
 28 Li    0.02686   -0.01438   -0.03881
 29 Li   -0.02316   -0.00949   -0.03508
 30 Li   -0.00213   -0.10583    0.08148
 31 Li    0.02685    0.01438   -0.03881
 32 Li   -0.02316    0.00948   -0.03507
 33 Li    0.00108   -0.00000   -0.01806
 34 Li   -0.00888    0.00000   -0.01545
 35 Li    0.00797    0.00000   -0.01494
 36 Br    0.74913    0.00041   14.28320
 37 H    -0.26537   -0.00001   -0.44221
 38 N     0.29231    0.00039   -4.58664
 39 N    -0.78374   -0.00094   -9.30026

System changes: positions 

Initializing position-dependent things.

Density initialized from wave functions
       .-----------------------.  
      /|                       |  
     / |                       |  
    /  |                       |  
   /   |                       |  
  /    |                       |  
 *     |                       |  
 |     |                       |  
 |     |                       |  
 |     |                       |  
 |     |                       |  
 |     |                       |  
 |     |                       |  
 |Br   |              H        |  
 |     |       Li      Li      |  
 |     |                  N    |  
 |   Li|     Li      Li        |  
 |N    |  Li      Li      Li   |  
 |     |   Li      Li      Li  |  
 |     |Li      Li      Li     |  
 |     |                 Li    |  
 |   LLi     LLi     LLi       |  
 |     |  Li      Li      Li   |  
 | Li  |   Li      Li          |  
 |     |Li      Li      Li     |  
 Li    | Li      Li            |  
 |    Li      Li      Li       |  
 |     |                       |  
 |     |                       |  
 |     |                       |  
 |     |                       |  
 |     |                       |  
 |     |                       |  
 |     .-----------------------.  
 |    /                       /   
 |   /                       /    
 |  /                       /     
 | /                       /      
 |/                       /       
 *-----------------------*        

Positions:
   0 Li     1.617037    1.617037   10.000000    ( 0.0000,  0.0000,  0.0000)
   1 Li     4.851111    1.617037   10.000000    ( 0.0000,  0.0000,  0.0000)
   2 Li     8.085185    1.617037   10.000000    ( 0.0000,  0.0000,  0.0000)
   3 Li     1.617037    4.851111   10.000000    ( 0.0000,  0.0000,  0.0000)
   4 Li     4.851111    4.851111   10.000000    ( 0.0000,  0.0000,  0.0000)
   5 Li     8.085185    4.851111   10.000000    ( 0.0000,  0.0000,  0.0000)
   6 Li     1.617037    8.085185   10.000000    ( 0.0000,  0.0000,  0.0000)
   7 Li     4.851111    8.085185   10.000000    ( 0.0000,  0.0000,  0.0000)
   8 Li     8.085185    8.085185   10.000000    ( 0.0000,  0.0000,  0.0000)
   9 Li     0.000000    0.000000   11.617037    ( 0.0000,  0.0000,  0.0000)
  10 Li     3.234074    0.000000   11.617037    ( 0.0000,  0.0000,  0.0000)
  11 Li     6.468148    0.000000   11.617037    ( 0.0000,  0.0000,  0.0000)
  12 Li     0.000000    3.234074   11.617037    ( 0.0000,  0.0000,  0.0000)
  13 Li     3.234074    3.234074   11.617037    ( 0.0000,  0.0000,  0.0000)
  14 Li     6.468148    3.234074   11.617037    ( 0.0000,  0.0000,  0.0000)
  15 Li     0.000000    6.468148   11.617037    ( 0.0000,  0.0000,  0.0000)
  16 Li     3.234074    6.468148   11.617037    ( 0.0000,  0.0000,  0.0000)
  17 Li     6.468148    6.468148   11.617037    ( 0.0000,  0.0000,  0.0000)
  18 Li     1.617158    1.617038   13.469609    ( 0.0000,  0.0000,  0.0000)
  19 Li     4.851107    1.617038   13.469863    ( 0.0000,  0.0000,  0.0000)
  20 Li     8.085065    1.617038   13.469623    ( 0.0000,  0.0000,  0.0000)
  21 Li     1.616994    4.851065   13.469880    ( 0.0000,  0.0000,  0.0000)
  22 Li     4.851110    4.851138   13.469815    ( 0.0000,  0.0000,  0.0000)
  23 Li     8.085228    4.851067   13.469876    ( 0.0000,  0.0000,  0.0000)
  24 Li     1.616994    8.085230   13.469879    ( 0.0000,  0.0000,  0.0000)
  25 Li     4.851110    8.085157   13.469814    ( 0.0000,  0.0000,  0.0000)
  26 Li     8.085228    8.085228   13.469875    ( 0.0000,  0.0000,  0.0000)
  27 Li    -0.000006    0.000296   15.446167    ( 0.0000,  0.0000,  0.0000)
  28 Li     3.234149   -0.000040   15.445830    ( 0.0000,  0.0000,  0.0000)
  29 Li     6.468083   -0.000027   15.445841    ( 0.0000,  0.0000,  0.0000)
  30 Li    -0.000006    3.233778   15.446167    ( 0.0000,  0.0000,  0.0000)
  31 Li     3.234152    3.234117   15.445830    ( 0.0000,  0.0000,  0.0000)
  32 Li     6.468081    3.234103   15.445840    ( 0.0000,  0.0000,  0.0000)
  33 Li     0.000003    6.468148   15.445888    ( 0.0000,  0.0000,  0.0000)
  34 Li     3.234052    6.468146   15.445895    ( 0.0000,  0.0000,  0.0000)
  35 Li     6.468168    6.468146   15.445896    ( 0.0000,  0.0000,  0.0000)
  36 Br     0.002095    1.617038   20.485884    ( 0.0000,  0.0000,  0.0000)
  37 H     -1.422599    1.617037   20.444703    ( 0.0000,  0.0000,  0.0000)
  38 N      0.000818    1.617001   17.433112    ( 0.0000,  0.0000,  0.0000)
  39 N     -0.002192    1.616997   18.516552    ( 0.0000,  0.0000,  0.0000)

Unit cell:
           periodic     x           y           z      points  spacing
  1. axis:    yes    9.702222    0.000000    0.000000    60     0.1617
  2. axis:    yes    0.000000    9.702222    0.000000    60     0.1617
  3. axis:    no     0.000000    0.000000   26.851111   168     0.1598

  Lengths:   9.702222   9.702222  26.851111
  Angles:   90.000000  90.000000  90.000000

Effective grid spacing dv^(1/3) = 0.1611

     iter     time        total  log10-change:
                         energy  eigst   dens
iter:   1 04:52:09  -326.757363  -1.00
iter:   2 04:53:00  -326.579567  -0.64  -1.40
iter:   3 04:53:51  -326.534665  -1.51  -1.60
iter:   4 04:54:41  -326.514684  -0.78  -1.97
Writing to output.gpw (mode='')

iter:   5 04:55:34  -326.504613  -1.67  -1.88
iter:   6 04:56:25  -326.506909c -1.72  -2.21
iter:   7 04:57:16  -326.502514c -1.73  -2.28
iter:   8 04:58:07  -326.502182c -2.28  -2.41
iter:   9 04:58:58  -326.502225c -2.55  -2.47
Writing to output.gpw (mode='')

iter:  10 04:59:50  -326.502095c -2.42  -2.52
iter:  11 05:00:41  -326.501963c -2.96  -2.72
iter:  12 05:01:32  -326.502008c -3.15  -2.86
iter:  13 05:02:23  -326.502153c -2.88  -2.91
iter:  14 05:03:13  -326.502178c -3.44  -3.05
Writing to output.gpw (mode='')

iter:  15 05:04:06  -326.502162c -3.41  -3.11
iter:  16 05:04:57  -326.502201c -3.58  -3.29
iter:  17 05:05:48  -326.502267c -3.63  -3.39
iter:  18 05:06:39  -326.502259c -3.59  -3.40
iter:  19 05:07:30  -326.502272c -3.92  -3.64
Writing to output.gpw (mode='')

iter:  20 05:08:23  -326.502283c -4.02  -3.71
iter:  21 05:09:14  -326.502289c -3.97  -3.80
iter:  22 05:10:05  -326.502295c -4.44  -3.89
iter:  23 05:10:55  -326.502299c -4.23  -3.87
iter:  24 05:11:46  -326.502306c -4.54  -3.93
Writing to output.gpw (mode='')

iter:  25 05:12:39  -326.502309c -4.73  -4.07c
iter:  26 05:13:30  -326.502310c -4.67  -4.18c
iter:  27 05:14:20  -326.502312c -5.00  -4.26c
iter:  28 05:15:11  -326.502314c -5.14  -4.44c
iter:  29 05:16:02  -326.502315c -4.97  -4.62c
Writing to output.gpw (mode='')

iter:  30 05:16:58  -326.502317c -5.15  -4.58c
iter:  31 05:17:49  -326.502317c -5.24  -4.49c
iter:  32 05:18:40  -326.502318c -5.15  -4.54c
iter:  33 05:19:31  -326.502319c -5.64  -4.68c
iter:  34 05:20:22  -326.502319c -5.35  -4.63c
Writing to output.gpw (mode='')

iter:  35 05:21:14  -326.502320c -5.26  -4.66c
iter:  36 05:22:05  -326.502320c -5.35  -4.69c
iter:  37 05:22:56  -326.502321c -5.70  -4.66c
iter:  38 05:23:46  -326.502321c -5.96  -4.61c
iter:  39 05:24:37  -326.502321c -5.87  -4.68c
Writing to output.gpw (mode='')

iter:  40 05:25:30  -326.502321c -5.79  -4.65c
iter:  41 05:26:20  -326.502322c -5.86  -4.58c
iter:  42 05:27:11  -326.502322c -6.05  -4.49c
iter:  43 05:28:02  -326.502321c -6.11  -4.48c
iter:  44 05:28:53  -326.502322c -6.37  -4.70c
Writing to output.gpw (mode='')

iter:  45 05:29:45  -326.502321c -6.35  -4.54c
iter:  46 05:30:36  -326.502321c -6.43  -4.79c
iter:  47 05:31:27  -326.502321c -6.11  -4.83c
iter:  48 05:32:18  -326.502321c -6.07  -4.89c
iter:  49 05:33:09  -326.502321c -6.60  -4.94c
Writing to output.gpw (mode='')

iter:  50 05:34:01  -326.502321c -6.69  -4.94c
iter:  51 05:34:52  -326.502321c -6.80  -4.90c
iter:  52 05:35:43  -326.502321c -6.77  -5.00c
iter:  53 05:36:34  -326.502321c -6.35  -4.98c
iter:  54 05:37:25  -326.502321c -6.55  -4.88c
Writing to output.gpw (mode='')

iter:  55 05:38:17  -326.502321c -7.19  -5.01c
iter:  56 05:39:08  -326.502321c -6.80  -4.99c
iter:  57 05:39:59  -326.502321c -7.13  -4.96c
iter:  58 05:40:50  -326.502321c -6.71  -5.05c
iter:  59 05:41:41  -326.502321c -7.39  -5.17c
Writing to output.gpw (mode='')

iter:  60 05:42:33  -326.502322c -6.90  -5.19c
iter:  61 05:43:24  -326.502321c -7.23  -5.27c
iter:  62 05:44:15  -326.502321c -7.18  -5.48c
iter:  63 05:45:06  -326.502321c -7.51c -5.58c

Converged after 63 iterations.

Dipole moment: (-13.588786, -3.684109, -0.253629) |e|*Ang

Energy contributions relative to reference atoms: (reference = -81178.542429)

Kinetic:       +137.224785
Potential:     -121.041659
External:        +0.000000
XC:            -342.819053
Entropy (-ST):   -0.144604
Local:           +0.205908
--------------------------
Free energy:   -326.574624
Extrapolated:  -326.502321

Dipole-layer corrected work functions: 3.393265, 3.880827 eV

Showing only first 2 kpts
 Kpt  Band  Eigenvalues  Occupancy
  0    25     -3.88487    1.98602
  0    26     -3.78072    1.89303
  0    27     -3.48274    0.08738
  0    28     -3.38125    0.01193

  1    25     -3.68526    1.44792
  1    26     -3.63023    0.93197
  1    27     -3.60677    0.70617
  1    28     -3.54518    0.27473


Fermi level: -3.63705

No gap
Writing to output.gpw (mode='')


Forces in eV/Ang:
  0 Li    0.01103    0.00000   -0.27127
  1 Li    0.00115    0.00000   -0.26754
  2 Li   -0.01194    0.00000   -0.27249
  3 Li    0.00305    0.00732   -0.27112
  4 Li   -0.00042    0.00021   -0.28132
  5 Li   -0.00256    0.00578   -0.27116
  6 Li    0.00305   -0.00732   -0.27112
  7 Li   -0.00042   -0.00021   -0.28132
  8 Li   -0.00256   -0.00578   -0.27116
  9 Li   -0.00001    0.01402    0.29375
 10 Li    0.01748   -0.00676    0.24990
 11 Li   -0.01760   -0.00599    0.24965
 12 Li   -0.00001   -0.01401    0.29375
 13 Li    0.01748    0.00676    0.24990
 14 Li   -0.01760    0.00599    0.24965
 15 Li    0.00038   -0.00000    0.24071
 16 Li   -0.02720   -0.00000    0.26300
 17 Li    0.02669   -0.00000    0.26580
 18 Li    0.04335   -0.00000   -0.04248
 19 Li   -0.00128   -0.00000    0.04910
 20 Li   -0.04281   -0.00000   -0.03786
 21 Li   -0.01558   -0.01774    0.05548
 22 Li   -0.00021    0.01104    0.02914
 23 Li    0.01567   -0.01733    0.05439
 24 Li   -0.01558    0.01774    0.05548
 25 Li   -0.00021   -0.01104    0.02915
 26 Li    0.01567    0.01733    0.05440
 27 Li   -0.00168    0.08711    0.05269
 28 Li    0.02999   -0.01610   -0.04234
 29 Li   -0.02660   -0.01197   -0.03994
 30 Li   -0.00168   -0.08709    0.05269
 31 Li    0.02999    0.01609   -0.04234
 32 Li   -0.02659    0.01197   -0.03993
 33 Li    0.00076   -0.00000   -0.01683
 34 Li   -0.00964    0.00000   -0.01481
 35 Li    0.00897    0.00000   -0.01442
 36 Br    0.56556    0.00037   12.37585
 37 H    -0.12401   -0.00001   -0.38326
 38 N     0.28863    0.00011   -5.79304
 39 N    -0.72596   -0.00040   -6.24178

System changes: positions 

Initializing position-dependent things.

Density initialized from wave functions
       .-----------------------.  
      /|                       |  
     / |                       |  
    /  |                       |  
   /   |                       |  
  /    |                       |  
 *     |                       |  
 |     |                       |  
 |     |                       |  
 |     |                       |  
 |     |                       |  
 |     |                       |  
 |     |                       |  
 |Br   |              H        |  
 |     |       Li      Li      |  
 |     |                  N    |  
 |   Li|     Li      Li        |  
 |N    |  Li      Li      Li   |  
 |     |   Li      Li      Li  |  
 |     |Li      Li      Li     |  
 |     |                 Li    |  
 |   LLi     LLi     LLi       |  
 |     |  Li      Li      Li   |  
 | Li  |   Li      Li          |  
 |     |Li      Li      Li     |  
 Li    | Li      Li            |  
 |    Li      Li      Li       |  
 |     |                       |  
 |     |                       |  
 |     |                       |  
 |     |                       |  
 |     |                       |  
 |     |                       |  
 |     .-----------------------.  
 |    /                       /   
 |   /                       /    
 |  /                       /     
 | /                       /      
 |/                       /       
 *-----------------------*        

Positions:
   0 Li     1.617037    1.617037   10.000000    ( 0.0000,  0.0000,  0.0000)
   1 Li     4.851111    1.617037   10.000000    ( 0.0000,  0.0000,  0.0000)
   2 Li     8.085185    1.617037   10.000000    ( 0.0000,  0.0000,  0.0000)
   3 Li     1.617037    4.851111   10.000000    ( 0.0000,  0.0000,  0.0000)
   4 Li     4.851111    4.851111   10.000000    ( 0.0000,  0.0000,  0.0000)
   5 Li     8.085185    4.851111   10.000000    ( 0.0000,  0.0000,  0.0000)
   6 Li     1.617037    8.085185   10.000000    ( 0.0000,  0.0000,  0.0000)
   7 Li     4.851111    8.085185   10.000000    ( 0.0000,  0.0000,  0.0000)
   8 Li     8.085185    8.085185   10.000000    ( 0.0000,  0.0000,  0.0000)
   9 Li     0.000000    0.000000   11.617037    ( 0.0000,  0.0000,  0.0000)
  10 Li     3.234074    0.000000   11.617037    ( 0.0000,  0.0000,  0.0000)
  11 Li     6.468148    0.000000   11.617037    ( 0.0000,  0.0000,  0.0000)
  12 Li     0.000000    3.234074   11.617037    ( 0.0000,  0.0000,  0.0000)
  13 Li     3.234074    3.234074   11.617037    ( 0.0000,  0.0000,  0.0000)
  14 Li     6.468148    3.234074   11.617037    ( 0.0000,  0.0000,  0.0000)
  15 Li     0.000000    6.468148   11.617037    ( 0.0000,  0.0000,  0.0000)
  16 Li     3.234074    6.468148   11.617037    ( 0.0000,  0.0000,  0.0000)
  17 Li     6.468148    6.468148   11.617037    ( 0.0000,  0.0000,  0.0000)
  18 Li     1.617332    1.617038   13.469440    ( 0.0000,  0.0000,  0.0000)
  19 Li     4.851103    1.617038   13.470065    ( 0.0000,  0.0000,  0.0000)
  20 Li     8.084893    1.617038   13.469471    ( 0.0000,  0.0000,  0.0000)
  21 Li     1.616933    4.850988   13.470108    ( 0.0000,  0.0000,  0.0000)
  22 Li     4.851110    4.851189   13.469925    ( 0.0000,  0.0000,  0.0000)
  23 Li     8.085289    4.850991   13.470101    ( 0.0000,  0.0000,  0.0000)
  24 Li     1.616933    8.085307   13.470107    ( 0.0000,  0.0000,  0.0000)
  25 Li     4.851110    8.085106   13.469924    ( 0.0000,  0.0000,  0.0000)
  26 Li     8.085290    8.085304   13.470100    ( 0.0000,  0.0000,  0.0000)
  27 Li    -0.000010    0.000552   15.446238    ( 0.0000,  0.0000,  0.0000)
  28 Li     3.234283   -0.000112   15.445645    ( 0.0000,  0.0000,  0.0000)
  29 Li     6.467961   -0.000086   15.445659    ( 0.0000,  0.0000,  0.0000)
  30 Li    -0.000010    3.233522   15.446237    ( 0.0000,  0.0000,  0.0000)
  31 Li     3.234286    3.234189   15.445644    ( 0.0000,  0.0000,  0.0000)
  32 Li     6.467959    3.234162   15.445658    ( 0.0000,  0.0000,  0.0000)
  33 Li     0.000004    6.468148   15.445827    ( 0.0000,  0.0000,  0.0000)
  34 Li     3.234010    6.468146   15.445839    ( 0.0000,  0.0000,  0.0000)
  35 Li     6.468208    6.468146   15.445842    ( 0.0000,  0.0000,  0.0000)
  36 Br     0.003458    1.617039   20.525861    ( 0.0000,  0.0000,  0.0000)
  37 H     -1.422411    1.617037   20.443464    ( 0.0000,  0.0000,  0.0000)
  38 N      0.001946    1.617000   17.404295    ( 0.0000,  0.0000,  0.0000)
  39 N     -0.004797    1.616998   18.506481    ( 0.0000,  0.0000,  0.0000)

Unit cell:
           periodic     x           y           z      points  spacing
  1. axis:    yes    9.702222    0.000000    0.000000    60     0.1617
  2. axis:    yes    0.000000    9.702222    0.000000    60     0.1617
  3. axis:    no     0.000000    0.000000   26.851111   168     0.1598

  Lengths:   9.702222   9.702222  26.851111
  Angles:   90.000000  90.000000  90.000000

Effective grid spacing dv^(1/3) = 0.1611

     iter     time        total  log10-change:
                         energy  eigst   dens
iter:   1 05:46:20  -327.223658  -1.02
iter:   2 05:47:11  -327.196255  -1.19  -1.75
iter:   3 05:48:02  -327.180304  -2.05  -1.82
iter:   4 05:48:53  -327.168495  -1.69  -2.23
Writing to output.gpw (mode='')

iter:   5 05:49:45  -327.167585c -2.16  -2.32
iter:   6 05:50:36  -327.167067c -2.05  -2.37
iter:   7 05:51:27  -327.165398c -2.75  -2.38
iter:   8 05:52:18  -327.165608c -2.44  -2.72
iter:   9 05:53:09  -327.165182c -2.98  -2.73
Writing to output.gpw (mode='')

iter:  10 05:54:02  -327.165162c -3.63  -2.96
iter:  11 05:54:53  -327.165103c -3.35  -3.00
iter:  12 05:55:44  -327.165162c -3.45  -3.21
iter:  13 05:56:35  -327.165082c -3.97  -3.15
iter:  14 05:57:26  -327.165082c -3.84  -3.38
Writing to output.gpw (mode='')

iter:  15 05:58:19  -327.165106c -4.33  -3.55
iter:  16 05:59:10  -327.165100c -4.24  -3.47
iter:  17 06:00:01  -327.165101c -4.73  -3.69
iter:  18 06:00:52  -327.165100c -4.84  -3.79
iter:  19 06:01:42  -327.165100c -5.07  -3.94
Writing to output.gpw (mode='')

iter:  20 06:02:35  -327.165100c -5.05  -4.11c
iter:  21 06:03:26  -327.165099c -5.23  -4.19c
iter:  22 06:04:17  -327.165099c -5.39  -4.21c
iter:  23 06:05:08  -327.165099c -5.68  -4.24c
iter:  24 06:05:59  -327.165098c -5.74  -4.45c
Writing to output.gpw (mode='')

iter:  25 06:06:52  -327.165098c -5.96  -4.54c
iter:  26 06:07:43  -327.165099c -6.20  -4.55c
iter:  27 06:08:34  -327.165100c -6.27  -4.62c
iter:  28 06:09:25  -327.165100c -6.32  -4.87c
iter:  29 06:10:16  -327.165100c -6.32  -5.01c
Writing to output.gpw (mode='')

iter:  30 06:11:08  -327.165100c -6.27  -5.05c
iter:  31 06:11:59  -327.165099c -6.28  -5.13c
iter:  32 06:12:50  -327.165100c -6.54  -5.09c
iter:  33 06:13:41  -327.165100c -6.56  -5.23c
iter:  34 06:14:32  -327.165100c -7.01  -5.22c
Writing to output.gpw (mode='')

iter:  35 06:15:24  -327.165100c -6.86  -5.25c
iter:  36 06:16:15  -327.165100c -6.90  -5.36c
iter:  37 06:17:06  -327.165100c -7.23  -5.43c
iter:  38 06:17:57  -327.165100c -7.17  -5.42c
iter:  39 06:18:48  -327.165100c -7.12  -5.35c
Writing to output.gpw (mode='')

iter:  40 06:19:41  -327.165100c -7.34  -5.37c
iter:  41 06:20:32  -327.165100c -7.32  -5.32c
iter:  42 06:21:23  -327.165100c -7.27  -5.30c
iter:  43 06:22:14  -327.165100c -7.30  -5.33c
iter:  44 06:23:05  -327.165100c -7.48c -5.22c

Converged after 44 iterations.

Dipole moment: (-13.556389, -3.659635, -0.237546) |e|*Ang

Energy contributions relative to reference atoms: (reference = -81178.542429)

Kinetic:       +131.322545
Potential:     -116.670956
External:        +0.000000
XC:            -341.961800
Entropy (-ST):   -0.144433
Local:           +0.217327
--------------------------
Free energy:   -327.237317
Extrapolated:  -327.165100

Dipole-layer corrected work functions: 3.394111, 3.850756 eV

Showing only first 2 kpts
 Kpt  Band  Eigenvalues  Occupancy
  0    25     -3.87002    1.98596
  0    26     -3.76468    1.89010
  0    27     -3.46806    0.08726
  0    28     -3.36680    0.01197

  1    25     -3.67089    1.44991
  1    26     -3.61562    0.93195
  1    27     -3.59293    0.71320
  1    28     -3.52839    0.26456


Fermi level: -3.62243

No gap
Writing to output.gpw (mode='')


Forces in eV/Ang:
  0 Li    0.01117    0.00000   -0.27161
  1 Li    0.00119    0.00000   -0.26712
  2 Li   -0.01209    0.00000   -0.27266
  3 Li    0.00318    0.00739   -0.27123
  4 Li   -0.00042    0.00036   -0.28161
  5 Li   -0.00278    0.00585   -0.27124
  6 Li    0.00318   -0.00739   -0.27123
  7 Li   -0.00042   -0.00036   -0.28161
  8 Li   -0.00278   -0.00585   -0.27124
  9 Li   -0.00001    0.01425    0.29496
 10 Li    0.01772   -0.00689    0.24987
 11 Li   -0.01793   -0.00613    0.24954
 12 Li   -0.00001   -0.01425    0.29496
 13 Li    0.01772    0.00689    0.24987
 14 Li   -0.01793    0.00613    0.24953
 15 Li    0.00033   -0.00000    0.24044
 16 Li   -0.02748   -0.00000    0.26326
 17 Li    0.02717   -0.00000    0.26573
 18 Li    0.04492   -0.00000   -0.04695
 19 Li   -0.00129   -0.00000    0.04943
 20 Li   -0.04434   -0.00000   -0.04147
 21 Li   -0.01594   -0.01775    0.05485
 22 Li   -0.00014    0.01070    0.02920
 23 Li    0.01610   -0.01744    0.05398
 24 Li   -0.01594    0.01775    0.05485
 25 Li   -0.00014   -0.01069    0.02921
 26 Li    0.01610    0.01744    0.05398
 27 Li   -0.00107    0.09984    0.06797
 28 Li    0.03037   -0.01631   -0.04109
 29 Li   -0.02668   -0.01216   -0.03972
 30 Li   -0.00107   -0.09982    0.06796
 31 Li    0.03036    0.01630   -0.04109
 32 Li   -0.02667    0.01216   -0.03972
 33 Li    0.00074   -0.00000   -0.01763
 34 Li   -0.00901    0.00000   -0.01506
 35 Li    0.00827    0.00000   -0.01484
 36 Br    0.44405    0.00030   10.77996
 37 H    -0.03130   -0.00001   -0.32704
 38 N     0.27978    0.00016   -3.11032
 39 N    -0.66053   -0.00010   -7.47906

System changes: positions 

Initializing position-dependent things.

Density initialized from wave functions
       .-----------------------.  
      /|                       |  
     / |                       |  
    /  |                       |  
   /   |                       |  
  /    |                       |  
 *     |                       |  
 |     |                       |  
 |     |                       |  
 |     |                       |  
 |     |                       |  
 |     |                       |  
 |     |                       |  
 |Br   |              H        |  
 |     |       Li      Li      |  
 |     |                  N    |  
 |   Li|     Li      Li        |  
 |N    |  Li      Li      Li   |  
 |     |   Li      Li      Li  |  
 |     |Li      Li      Li     |  
 |     |                 Li    |  
 |   LLi     LLi     LLi       |  
 |     |  Li      Li      Li   |  
 | Li  |   Li      Li          |  
 |     |Li      Li      Li     |  
 Li    | Li      Li            |  
 |    Li      Li      Li       |  
 |     |                       |  
 |     |                       |  
 |     |                       |  
 |     |                       |  
 |     |                       |  
 |     |                       |  
 |     .-----------------------.  
 |    /                       /   
 |   /                       /    
 |  /                       /     
 | /                       /      
 |/                       /       
 *-----------------------*        

Positions:
   0 Li     1.617037    1.617037   10.000000    ( 0.0000,  0.0000,  0.0000)
   1 Li     4.851111    1.617037   10.000000    ( 0.0000,  0.0000,  0.0000)
   2 Li     8.085185    1.617037   10.000000    ( 0.0000,  0.0000,  0.0000)
   3 Li     1.617037    4.851111   10.000000    ( 0.0000,  0.0000,  0.0000)
   4 Li     4.851111    4.851111   10.000000    ( 0.0000,  0.0000,  0.0000)
   5 Li     8.085185    4.851111   10.000000    ( 0.0000,  0.0000,  0.0000)
   6 Li     1.617037    8.085185   10.000000    ( 0.0000,  0.0000,  0.0000)
   7 Li     4.851111    8.085185   10.000000    ( 0.0000,  0.0000,  0.0000)
   8 Li     8.085185    8.085185   10.000000    ( 0.0000,  0.0000,  0.0000)
   9 Li     0.000000    0.000000   11.617037    ( 0.0000,  0.0000,  0.0000)
  10 Li     3.234074    0.000000   11.617037    ( 0.0000,  0.0000,  0.0000)
  11 Li     6.468148    0.000000   11.617037    ( 0.0000,  0.0000,  0.0000)
  12 Li     0.000000    3.234074   11.617037    ( 0.0000,  0.0000,  0.0000)
  13 Li     3.234074    3.234074   11.617037    ( 0.0000,  0.0000,  0.0000)
  14 Li     6.468148    3.234074   11.617037    ( 0.0000,  0.0000,  0.0000)
  15 Li     0.000000    6.468148   11.617037    ( 0.0000,  0.0000,  0.0000)
  16 Li     3.234074    6.468148   11.617037    ( 0.0000,  0.0000,  0.0000)
  17 Li     6.468148    6.468148   11.617037    ( 0.0000,  0.0000,  0.0000)
  18 Li     1.617622    1.617038   13.469126    ( 0.0000,  0.0000,  0.0000)
  19 Li     4.851098    1.617038   13.470386    ( 0.0000,  0.0000,  0.0000)
  20 Li     8.084608    1.617038   13.469193    ( 0.0000,  0.0000,  0.0000)
  21 Li     1.616834    4.850864   13.470460    ( 0.0000,  0.0000,  0.0000)
  22 Li     4.851110    4.851267   13.470095    ( 0.0000,  0.0000,  0.0000)
  23 Li     8.085390    4.850868   13.470452    ( 0.0000,  0.0000,  0.0000)
  24 Li     1.616834    8.085431   13.470458    ( 0.0000,  0.0000,  0.0000)
  25 Li     4.851110    8.085028   13.470094    ( 0.0000,  0.0000,  0.0000)
  26 Li     8.085391    8.085426   13.470451    ( 0.0000,  0.0000,  0.0000)
  27 Li    -0.000010    0.001050   15.446453    ( 0.0000,  0.0000,  0.0000)
  28 Li     3.234504   -0.000231   15.445362    ( 0.0000,  0.0000,  0.0000)
  29 Li     6.467762   -0.000187   15.445366    ( 0.0000,  0.0000,  0.0000)
  30 Li    -0.000010    3.233024   15.446452    ( 0.0000,  0.0000,  0.0000)
  31 Li     3.234506    3.234308   15.445362    ( 0.0000,  0.0000,  0.0000)
  32 Li     6.467759    3.234263   15.445366    ( 0.0000,  0.0000,  0.0000)
  33 Li     0.000006    6.468148   15.445726    ( 0.0000,  0.0000,  0.0000)
  34 Li     3.233950    6.468146   15.445751    ( 0.0000,  0.0000,  0.0000)
  35 Li     6.468266    6.468146   15.445753    ( 0.0000,  0.0000,  0.0000)
  36 Br     0.003796    1.617040   20.565860    ( 0.0000,  0.0000,  0.0000)
  37 H     -1.420753    1.617037   20.442300    ( 0.0000,  0.0000,  0.0000)
  38 N      0.003597    1.616999   17.386694    ( 0.0000,  0.0000,  0.0000)
  39 N     -0.007990    1.617005   18.483964    ( 0.0000,  0.0000,  0.0000)

Unit cell:
           periodic     x           y           z      points  spacing
  1. axis:    yes    9.702222    0.000000    0.000000    60     0.1617
  2. axis:    yes    0.000000    9.702222    0.000000    60     0.1617
  3. axis:    no     0.000000    0.000000   26.851111   168     0.1598

  Lengths:   9.702222   9.702222  26.851111
  Angles:   90.000000  90.000000  90.000000

Effective grid spacing dv^(1/3) = 0.1611

     iter     time        total  log10-change:
                         energy  eigst   dens
iter:   1 06:24:19  -327.895577  -1.10
iter:   2 06:25:10  -327.807069  -0.87  -1.54
iter:   3 06:26:01  -327.784207  -1.81  -1.75
iter:   4 06:26:51  -327.778926  -1.06  -2.16
Writing to output.gpw (mode='')

iter:   5 06:27:44  -327.771126c -1.95  -2.01
iter:   6 06:28:35  -327.772032c -1.97  -2.34
iter:   7 06:29:26  -327.771219c -1.99  -2.50
iter:   8 06:30:16  -327.770930c -2.64  -2.52
iter:   9 06:31:07  -327.770807c -2.98  -2.57
Writing to output.gpw (mode='')

iter:  10 06:32:00  -327.770551c -2.64  -2.64
iter:  11 06:32:50  -327.770642c -2.97  -2.88
iter:  12 06:33:41  -327.770629c -3.48  -2.94
iter:  13 06:34:32  -327.770562c -3.34  -3.01
iter:  14 06:35:23  -327.770589c -3.70  -3.17
Writing to output.gpw (mode='')

iter:  15 06:36:16  -327.770595c -3.61  -3.24
iter:  16 06:37:06  -327.770594c -3.86  -3.51
iter:  17 06:37:57  -327.770606c -4.30  -3.59
iter:  18 06:38:48  -327.770612c -4.35  -3.63
iter:  19 06:39:39  -327.770624c -4.40  -3.74
Writing to output.gpw (mode='')

iter:  20 06:40:33  -327.770622c -4.44  -3.80
iter:  21 06:41:24  -327.770625c -4.76  -3.94
iter:  22 06:42:15  -327.770628c -4.94  -3.91
iter:  23 06:43:06  -327.770630c -4.86  -3.89
iter:  24 06:43:57  -327.770631c -5.03  -3.87
Writing to output.gpw (mode='')

iter:  25 06:44:50  -327.770632c -4.92  -3.86
iter:  26 06:45:42  -327.770634c -4.94  -3.82
iter:  27 06:46:32  -327.770634c -5.17  -3.86
iter:  28 06:47:23  -327.770631c -5.33  -3.94
iter:  29 06:48:14  -327.770629c -5.45  -4.06c
Writing to output.gpw (mode='')

iter:  30 06:49:07  -327.770630c -5.59  -4.19c
iter:  31 06:49:58  -327.770629c -5.83  -4.30c
iter:  32 06:50:49  -327.770630c -5.80  -4.39c
iter:  33 06:51:40  -327.770631c -5.85  -4.53c
iter:  34 06:52:31  -327.770631c -6.10  -4.76c
Writing to output.gpw (mode='')

iter:  35 06:53:23  -327.770631c -6.12  -4.84c
iter:  36 06:54:14  -327.770631c -6.14  -4.92c
iter:  37 06:55:05  -327.770631c -6.17  -5.03c
iter:  38 06:55:56  -327.770631c -6.32  -5.05c
iter:  39 06:56:47  -327.770631c -6.34  -5.04c
Writing to output.gpw (mode='')

iter:  40 06:57:40  -327.770631c -6.60  -5.00c
iter:  41 06:58:31  -327.770631c -6.64  -5.11c
iter:  42 06:59:21  -327.770631c -6.74  -5.27c
iter:  43 07:00:12  -327.770631c -6.55  -5.34c
iter:  44 07:01:03  -327.770631c -6.84  -5.40c
Writing to output.gpw (mode='')

iter:  45 07:01:56  -327.770631c -6.90  -5.42c
iter:  46 07:02:47  -327.770631c -6.79  -5.50c
iter:  47 07:03:38  -327.770631c -6.93  -5.53c
iter:  48 07:04:29  -327.770631c -7.04  -5.57c
iter:  49 07:05:20  -327.770631c -7.27  -5.63c
Writing to output.gpw (mode='')

iter:  50 07:06:13  -327.770631c -7.25  -5.74c
iter:  51 07:07:04  -327.770631c -7.38  -5.76c
iter:  52 07:07:55  -327.770631c -7.40c -5.86c

Converged after 52 iterations.

Dipole moment: (-13.418303, -3.694132, -0.202839) |e|*Ang

Energy contributions relative to reference atoms: (reference = -81178.542429)

Kinetic:       +129.209111
Potential:     -115.368552
External:        +0.000000
XC:            -341.763664
Entropy (-ST):   -0.144324
Local:           +0.224636
--------------------------
Free energy:   -327.842794
Extrapolated:  -327.770631

Dipole-layer corrected work functions: 3.393525, 3.783452 eV

Showing only first 2 kpts
 Kpt  Band  Eigenvalues  Occupancy
  0    25     -3.83619    1.98599
  0    26     -3.73109    1.89085
  0    27     -3.43163    0.08321
  0    28     -3.33295    0.01199

  1    25     -3.63584    1.44105
  1    26     -3.58222    0.93739
  1    27     -3.55950    0.71801
  1    28     -3.49484    0.26637


Fermi level: -3.58849

No gap
Writing to output.gpw (mode='')


Forces in eV/Ang:
  0 Li    0.01128    0.00000   -0.27181
  1 Li    0.00112    0.00000   -0.26699
  2 Li   -0.01214    0.00000   -0.27264
  3 Li    0.00292    0.00725   -0.27112
  4 Li   -0.00039    0.00016   -0.28149
  5 Li   -0.00263    0.00584   -0.27113
  6 Li    0.00292   -0.00725   -0.27112
  7 Li   -0.00039   -0.00016   -0.28149
  8 Li   -0.00263   -0.00584   -0.27113
  9 Li   -0.00002    0.01440    0.29492
 10 Li    0.01819   -0.00708    0.24979
 11 Li   -0.01844   -0.00638    0.24944
 12 Li   -0.00002   -0.01440    0.29492
 13 Li    0.01819    0.00708    0.24979
 14 Li   -0.01844    0.00638    0.24944
 15 Li    0.00031   -0.00000    0.24071
 16 Li   -0.02766   -0.00000    0.26407
 17 Li    0.02749   -0.00000    0.26609
 18 Li    0.04524   -0.00000   -0.04759
 19 Li   -0.00119   -0.00000    0.04946
 20 Li   -0.04465   -0.00000   -0.04181
 21 Li   -0.01597   -0.01818    0.05503
 22 Li   -0.00009    0.01114    0.02843
 23 Li    0.01621   -0.01796    0.05441
 24 Li   -0.01597    0.01818    0.05504
 25 Li   -0.00009   -0.01114    0.02844
 26 Li    0.01621    0.01796    0.05442
 27 Li   -0.00051    0.09250    0.05340
 28 Li    0.03168   -0.01697   -0.04217
 29 Li   -0.02797   -0.01309   -0.04187
 30 Li   -0.00051   -0.09247    0.05338
 31 Li    0.03167    0.01697   -0.04216
 32 Li   -0.02797    0.01309   -0.04186
 33 Li    0.00060   -0.00000   -0.01706
 34 Li   -0.00931    0.00000   -0.01468
 35 Li    0.00862    0.00000   -0.01458
 36 Br    0.33705    0.00019    9.17613
 37 H     0.02702   -0.00001   -0.26515
 38 N     0.23906    0.00037   -3.34665
 39 N    -0.63224   -0.00015   -5.60719

System changes: positions 

Initializing position-dependent things.

Density initialized from wave functions
       .-----------------------.  
      /|                       |  
     / |                       |  
    /  |                       |  
   /   |                       |  
  /    |                       |  
 *     |                       |  
 |     |                       |  
 |     |                       |  
 |     |                       |  
 |     |                       |  
 |     |                       |  
 |     |                       |  
 |Br   |              H        |  
 |     |       Li      Li      |  
 |     |                  N    |  
 |   Li|     Li      Li        |  
 |N    |  Li      Li      Li   |  
 |     |   Li      Li      Li  |  
 |     |Li      Li      Li     |  
 |     |                 Li    |  
 |   LLi     LLi     LLi       |  
 |     |  Li      Li      Li   |  
 | Li  |   Li      Li          |  
 |     |Li      Li      Li     |  
 Li    | Li      Li            |  
 |    Li      Li      Li       |  
 |     |                       |  
 |     |                       |  
 |     |                       |  
 |     |                       |  
 |     |                       |  
 |     |                       |  
 |     .-----------------------.  
 |    /                       /   
 |   /                       /    
 |  /                       /     
 | /                       /      
 |/                       /       
 *-----------------------*        

Positions:
   0 Li     1.617037    1.617037   10.000000    ( 0.0000,  0.0000,  0.0000)
   1 Li     4.851111    1.617037   10.000000    ( 0.0000,  0.0000,  0.0000)
   2 Li     8.085185    1.617037   10.000000    ( 0.0000,  0.0000,  0.0000)
   3 Li     1.617037    4.851111   10.000000    ( 0.0000,  0.0000,  0.0000)
   4 Li     4.851111    4.851111   10.000000    ( 0.0000,  0.0000,  0.0000)
   5 Li     8.085185    4.851111   10.000000    ( 0.0000,  0.0000,  0.0000)
   6 Li     1.617037    8.085185   10.000000    ( 0.0000,  0.0000,  0.0000)
   7 Li     4.851111    8.085185   10.000000    ( 0.0000,  0.0000,  0.0000)
   8 Li     8.085185    8.085185   10.000000    ( 0.0000,  0.0000,  0.0000)
   9 Li     0.000000    0.000000   11.617037    ( 0.0000,  0.0000,  0.0000)
  10 Li     3.234074    0.000000   11.617037    ( 0.0000,  0.0000,  0.0000)
  11 Li     6.468148    0.000000   11.617037    ( 0.0000,  0.0000,  0.0000)
  12 Li     0.000000    3.234074   11.617037    ( 0.0000,  0.0000,  0.0000)
  13 Li     3.234074    3.234074   11.617037    ( 0.0000,  0.0000,  0.0000)
  14 Li     6.468148    3.234074   11.617037    ( 0.0000,  0.0000,  0.0000)
  15 Li     0.000000    6.468148   11.617037    ( 0.0000,  0.0000,  0.0000)
  16 Li     3.234074    6.468148   11.617037    ( 0.0000,  0.0000,  0.0000)
  17 Li     6.468148    6.468148   11.617037    ( 0.0000,  0.0000,  0.0000)
  18 Li     1.618019    1.617038   13.468688    ( 0.0000,  0.0000,  0.0000)
  19 Li     4.851090    1.617038   13.470817    ( 0.0000,  0.0000,  0.0000)
  20 Li     8.084216    1.617038   13.468812    ( 0.0000,  0.0000,  0.0000)
  21 Li     1.616698    4.850697   13.470933    ( 0.0000,  0.0000,  0.0000)
  22 Li     4.851110    4.851373   13.470320    ( 0.0000,  0.0000,  0.0000)
  23 Li     8.085530    4.850701   13.470926    ( 0.0000,  0.0000,  0.0000)
  24 Li     1.616698    8.085598   13.470932    ( 0.0000,  0.0000,  0.0000)
  25 Li     4.851110    8.084922   13.470319    ( 0.0000,  0.0000,  0.0000)
  26 Li     8.085530    8.085594   13.470925    ( 0.0000,  0.0000,  0.0000)
  27 Li    -0.000002    0.001715   15.446674    ( 0.0000,  0.0000,  0.0000)
  28 Li     3.234808   -0.000394   15.444980    ( 0.0000,  0.0000,  0.0000)
  29 Li     6.467489   -0.000325   15.444961    ( 0.0000,  0.0000,  0.0000)
  30 Li    -0.000002    3.232359   15.446673    ( 0.0000,  0.0000,  0.0000)
  31 Li     3.234810    3.234471   15.444979    ( 0.0000,  0.0000,  0.0000)
  32 Li     6.467486    3.234401   15.444960    ( 0.0000,  0.0000,  0.0000)
  33 Li     0.000007    6.468148   15.445591    ( 0.0000,  0.0000,  0.0000)
  34 Li     3.233867    6.468146   15.445633    ( 0.0000,  0.0000,  0.0000)
  35 Li     6.468344    6.468146   15.445633    ( 0.0000,  0.0000,  0.0000)
  36 Br     0.003589    1.617040   20.605859    ( 0.0000,  0.0000,  0.0000)
  37 H     -1.418352    1.617037   20.441352    ( 0.0000,  0.0000,  0.0000)
  38 N      0.005239    1.617001   17.365402    ( 0.0000,  0.0000,  0.0000)
  39 N     -0.012213    1.617009   18.465883    ( 0.0000,  0.0000,  0.0000)

Unit cell:
           periodic     x           y           z      points  spacing
  1. axis:    yes    9.702222    0.000000    0.000000    60     0.1617
  2. axis:    yes    0.000000    9.702222    0.000000    60     0.1617
  3. axis:    no     0.000000    0.000000   26.851111   168     0.1598

  Lengths:   9.702222   9.702222  26.851111
  Angles:   90.000000  90.000000  90.000000

Effective grid spacing dv^(1/3) = 0.1611

     iter     time        total  log10-change:
                         energy  eigst   dens
iter:   1 07:09:09  -328.305721  -1.18
iter:   2 07:09:59  -328.284967  -1.48  -1.82
iter:   3 07:10:50  -328.278792c -2.37  -2.01
iter:   4 07:11:41  -328.276521c -1.53  -2.38
Writing to output.gpw (mode='')

iter:   5 07:12:34  -328.274190c -2.52  -2.29
iter:   6 07:13:25  -328.273965c -2.59  -2.56
iter:   7 07:14:16  -328.274235c -2.50  -2.80
iter:   8 07:15:07  -328.273847c -3.35  -2.72
iter:   9 07:15:58  -328.273670c -3.08  -2.88
Writing to output.gpw (mode='')

iter:  10 07:16:50  -328.273693c -3.89  -3.22
iter:  11 07:17:41  -328.273708c -3.87  -3.23
iter:  12 07:18:32  -328.273672c -3.75  -3.24
iter:  13 07:19:23  -328.273676c -4.44  -3.42
iter:  14 07:20:14  -328.273672c -4.42  -3.50
Writing to output.gpw (mode='')

iter:  15 07:21:06  -328.273678c -4.28  -3.65
iter:  16 07:21:57  -328.273687c -4.62  -3.60
iter:  17 07:22:48  -328.273690c -5.08  -3.90
iter:  18 07:23:39  -328.273691c -5.20  -3.91
iter:  19 07:24:30  -328.273691c -5.22  -3.94
Writing to output.gpw (mode='')

iter:  20 07:25:23  -328.273688c -5.36  -3.97
iter:  21 07:26:14  -328.273686c -5.37  -4.17c
iter:  22 07:27:05  -328.273686c -5.90  -4.44c
iter:  23 07:27:56  -328.273687c -6.02  -4.48c
iter:  24 07:28:47  -328.273686c -5.85  -4.56c
Writing to output.gpw (mode='')

iter:  25 07:29:39  -328.273686c -6.05  -4.83c
iter:  26 07:30:30  -328.273687c -6.24  -4.83c
iter:  27 07:31:21  -328.273686c -6.42  -4.86c
iter:  28 07:32:12  -328.273686c -6.39  -4.91c
iter:  29 07:33:03  -328.273687c -6.50  -4.97c
Writing to output.gpw (mode='')

iter:  30 07:33:55  -328.273687c -6.80  -5.15c
iter:  31 07:34:46  -328.273687c -6.75  -5.28c
iter:  32 07:35:37  -328.273687c -6.64  -5.34c
iter:  33 07:36:28  -328.273687c -6.69  -5.38c
iter:  34 07:37:20  -328.273687c -7.16  -5.36c
Writing to output.gpw (mode='')

iter:  35 07:38:12  -328.273687c -7.23  -5.36c
iter:  36 07:39:03  -328.273687c -7.22  -5.35c
iter:  37 07:39:54  -328.273687c -7.36  -5.33c
iter:  38 07:40:45  -328.273687c -7.51c -5.31c

Converged after 38 iterations.

Dipole moment: (-13.142485, -3.704459, -0.182188) |e|*Ang

Energy contributions relative to reference atoms: (reference = -81178.542429)

Kinetic:       +126.177604
Potential:     -113.226278
External:        +0.000000
XC:            -341.382538
Entropy (-ST):   -0.144203
Local:           +0.229627
--------------------------
Free energy:   -328.345788
Extrapolated:  -328.273687

Dipole-layer corrected work functions: 3.393578, 3.743805 eV

Showing only first 2 kpts
 Kpt  Band  Eigenvalues  Occupancy
  0    25     -3.81626    1.98595
  0    26     -3.71065    1.88951
  0    27     -3.41079    0.08155
  0    28     -3.31326    0.01202

  1    25     -3.61581    1.43912
  1    26     -3.56265    0.93966
  1    27     -3.54032    0.72367
  1    28     -3.47407    0.26194


Fermi level: -3.56869

No gap
Writing to output.gpw (mode='')


Forces in eV/Ang:
  0 Li    0.01140    0.00000   -0.27206
  1 Li    0.00113    0.00000   -0.26672
  2 Li   -0.01225    0.00000   -0.27270
  3 Li    0.00287    0.00729   -0.27115
  4 Li   -0.00040    0.00019   -0.28162
  5 Li   -0.00268    0.00589   -0.27114
  6 Li    0.00287   -0.00729   -0.27115
  7 Li   -0.00040   -0.00019   -0.28162
  8 Li   -0.00268   -0.00589   -0.27114
  9 Li   -0.00002    0.01453    0.29555
 10 Li    0.01860   -0.00732    0.24983
 11 Li   -0.01894   -0.00663    0.24944
 12 Li   -0.00002   -0.01453    0.29555
 13 Li    0.01860    0.00732    0.24983
 14 Li   -0.01894    0.00664    0.24944
 15 Li    0.00027   -0.00000    0.24084
 16 Li   -0.02794   -0.00000    0.26471
 17 Li    0.02797   -0.00000    0.26635
 18 Li    0.04581   -0.00000   -0.04946
 19 Li   -0.00117   -0.00000    0.04907
 20 Li   -0.04517   -0.00000   -0.04299
 21 Li   -0.01612   -0.01829    0.05451
 22 Li   -0.00003    0.01118    0.02781
 23 Li    0.01645   -0.01815    0.05410
 24 Li   -0.01612    0.01829    0.05451
 25 Li   -0.00003   -0.01118    0.02781
 26 Li    0.01645    0.01815    0.05410
 27 Li    0.00012    0.09358    0.05091
 28 Li    0.03228   -0.01723   -0.04187
 29 Li   -0.02833   -0.01340   -0.04262
 30 Li    0.00012   -0.09356    0.05089
 31 Li    0.03227    0.01723   -0.04187
 32 Li   -0.02832    0.01339   -0.04262
 33 Li    0.00056   -0.00000   -0.01693
 34 Li   -0.00919    0.00000   -0.01445
 35 Li    0.00844    0.00000   -0.01451
 36 Br    0.24742    0.00013    7.83420
 37 H     0.07461   -0.00000   -0.20819
 38 N     0.24400    0.00010   -2.68867
 39 N    -0.59881   -0.00015   -4.99417

System changes: positions 

Initializing position-dependent things.

Density initialized from wave functions
       .-----------------------.  
      /|                       |  
     / |                       |  
    /  |                       |  
   /   |                       |  
  /    |                       |  
 *     |                       |  
 |     |                       |  
 |     |                       |  
 |     |                       |  
 |     |                       |  
 |     |                       |  
 |     |                       |  
 |Br   |              H        |  
 |     |       Li      Li      |  
 |     |                  N    |  
 |   Li|     Li      Li        |  
 |N    |  Li      Li      Li   |  
 | Li  |   Li      Li          |  
 |     |Li      Li      Li     |  
 Li    |                       |  
 |   LLi     LLi     LLi       |  
 |     |  Li      Li      Li   |  
 | Li  |   Li      Li          |  
 |     |Li      Li      Li     |  
 Li    | Li      Li            |  
 |    Li      Li      Li       |  
 |     |                       |  
 |     |                       |  
 |     |                       |  
 |     |                       |  
 |     |                       |  
 |     |                       |  
 |     .-----------------------.  
 |    /                       /   
 |   /                       /    
 |  /                       /     
 | /                       /      
 |/                       /       
 *-----------------------*        

Positions:
   0 Li     1.617037    1.617037   10.000000    ( 0.0000,  0.0000,  0.0000)
   1 Li     4.851111    1.617037   10.000000    ( 0.0000,  0.0000,  0.0000)
   2 Li     8.085185    1.617037   10.000000    ( 0.0000,  0.0000,  0.0000)
   3 Li     1.617037    4.851111   10.000000    ( 0.0000,  0.0000,  0.0000)
   4 Li     4.851111    4.851111   10.000000    ( 0.0000,  0.0000,  0.0000)
   5 Li     8.085185    4.851111   10.000000    ( 0.0000,  0.0000,  0.0000)
   6 Li     1.617037    8.085185   10.000000    ( 0.0000,  0.0000,  0.0000)
   7 Li     4.851111    8.085185   10.000000    ( 0.0000,  0.0000,  0.0000)
   8 Li     8.085185    8.085185   10.000000    ( 0.0000,  0.0000,  0.0000)
   9 Li     0.000000    0.000000   11.617037    ( 0.0000,  0.0000,  0.0000)
  10 Li     3.234074    0.000000   11.617037    ( 0.0000,  0.0000,  0.0000)
  11 Li     6.468148    0.000000   11.617037    ( 0.0000,  0.0000,  0.0000)
  12 Li     0.000000    3.234074   11.617037    ( 0.0000,  0.0000,  0.0000)
  13 Li     3.234074    3.234074   11.617037    ( 0.0000,  0.0000,  0.0000)
  14 Li     6.468148    3.234074   11.617037    ( 0.0000,  0.0000,  0.0000)
  15 Li     0.000000    6.468148   11.617037    ( 0.0000,  0.0000,  0.0000)
  16 Li     3.234074    6.468148   11.617037    ( 0.0000,  0.0000,  0.0000)
  17 Li     6.468148    6.468148   11.617037    ( 0.0000,  0.0000,  0.0000)
  18 Li     1.618540    1.617038   13.468102    ( 0.0000,  0.0000,  0.0000)
  19 Li     4.851081    1.617038   13.471366    ( 0.0000,  0.0000,  0.0000)
  20 Li     8.083704    1.617038   13.468306    ( 0.0000,  0.0000,  0.0000)
  21 Li     1.616519    4.850481   13.471537    ( 0.0000,  0.0000,  0.0000)
  22 Li     4.851111    4.851508   13.470606    ( 0.0000,  0.0000,  0.0000)
  23 Li     8.085714    4.850485   13.471533    ( 0.0000,  0.0000,  0.0000)
  24 Li     1.616519    8.085814   13.471536    ( 0.0000,  0.0000,  0.0000)
  25 Li     4.851111    8.084786   13.470605    ( 0.0000,  0.0000,  0.0000)
  26 Li     8.085715    8.085810   13.471532    ( 0.0000,  0.0000,  0.0000)
  27 Li     0.000014    0.002614   15.446964    ( 0.0000,  0.0000,  0.0000)
  28 Li     3.235203   -0.000605   15.444493    ( 0.0000,  0.0000,  0.0000)
  29 Li     6.467138   -0.000502   15.444435    ( 0.0000,  0.0000,  0.0000)
  30 Li     0.000014    3.231461   15.446963    ( 0.0000,  0.0000,  0.0000)
  31 Li     3.235205    3.234681   15.444492    ( 0.0000,  0.0000,  0.0000)
  32 Li     6.467135    3.234579   15.444434    ( 0.0000,  0.0000,  0.0000)
  33 Li     0.000009    6.468148   15.445416    ( 0.0000,  0.0000,  0.0000)
  34 Li     3.233763    6.468146   15.445483    ( 0.0000,  0.0000,  0.0000)
  35 Li     6.468442    6.468146   15.445478    ( 0.0000,  0.0000,  0.0000)
  36 Br     0.002670    1.617040   20.645849    ( 0.0000,  0.0000,  0.0000)
  37 H     -1.415046    1.617037   20.440711    ( 0.0000,  0.0000,  0.0000)
  38 N      0.007556    1.617000   17.344869    ( 0.0000,  0.0000,  0.0000)
  39 N     -0.017462    1.617014   18.446477    ( 0.0000,  0.0000,  0.0000)

Unit cell:
           periodic     x           y           z      points  spacing
  1. axis:    yes    9.702222    0.000000    0.000000    60     0.1617
  2. axis:    yes    0.000000    9.702222    0.000000    60     0.1617
  3. axis:    no     0.000000    0.000000   26.851111   168     0.1598

  Lengths:   9.702222   9.702222  26.851111
  Angles:   90.000000  90.000000  90.000000

Effective grid spacing dv^(1/3) = 0.1611

     iter     time        total  log10-change:
                         energy  eigst   dens
iter:   1 07:41:59  -328.751172  -1.14
iter:   2 07:43:07  -328.720886  -1.34  -1.75
iter:   3 07:45:29  -328.712771  -2.28  -1.96
iter:   4 07:47:57  -328.710307c -1.49  -2.36
Writing to output.gpw (mode='')

iter:   5 07:50:32  -328.707841c -2.47  -2.26
iter:   6 07:53:00  -328.707731c -2.52  -2.55
iter:   7 07:55:29  -328.707876c -2.47  -2.83
iter:   8 07:57:55  -328.707550c -3.25  -2.72
