
  ___ ___ ___ _ _ _  
 |   |   |_  | | | | 
 | | | | | . | | | | 
 |__ |  _|___|_____|  22.8.0
 |___|_|             

User:   vazumah@c03.hercules
Date:   Thu Mar  9 04:42:47 2023
Arch:   x86_64
Pid:    12916
CWD:    /home/vazumah/Python_projects/LiNRR/Li_adsorb_studies/proton_donors/N2_with_proton_donor/Li_BCC_100/adsorbates/BH3_retest/bridge/0.0_1.617/N2_z
Python: 3.10.8
gpaw:   /home/vazumah/.conda/envs/GPAW/lib/python3.10/site-packages/gpaw
_gpaw:  /home/vazumah/.conda/envs/GPAW/lib/python3.10/site-packages/
        _gpaw.cpython-310-x86_64-linux-gnu.so
ase:    /home/vazumah/.conda/envs/GPAW/lib/python3.10/site-packages/ase (version 3.22.1)
numpy:  /home/vazumah/.conda/envs/GPAW/lib/python3.10/site-packages/numpy (version 1.24.1)
scipy:  /home/vazumah/.conda/envs/GPAW/lib/python3.10/site-packages/scipy (version 1.10.0)
libxc:  5.2.3
units:  Angstrom and eV
cores: 24
OpenMP: True
OMP_NUM_THREADS: 1

Input parameters:
  h: 0.16
  kpts: {size: [4, 4, 1]}
  occupations: {name: fermi-dirac,
                width: 0.05}
  poissonsolver: {dipolelayer: xy}
  xc: BEEF-vdW

System changes: positions, numbers, cell, pbc, initial_charges, initial_magmoms 

Initialize ...

species:
  Li:
    name: Lithium
    id: 830b4218f175192f93f959cfc0aad614
    Z: 3.0
    valence: 1
    core: 2
    charge: 0.0
    file: /home/vazumah/.conda/envs/GPAW/share/gpaw/Li.PBE.gz
    compensation charges: {type: gauss,
                           rc: 0.33,
                           lmax: 2}
    cutoffs: {filter: 1.91,
              core: 2.55}
    valence states:
      #              energy  rcut
      - 2s(1.00)    -2.874   1.058
      - 2p(0.00)    -1.090   1.058
      -  s          24.337   1.058
  
    # Using partial waves for Li as LCAO basis

  B:
    name: Boron
    id: 6e91439235a05fd7549e31636e8f777c
    Z: 5.0
    valence: 3
    core: 2
    charge: 0.0
    file: /home/vazumah/.conda/envs/GPAW/share/gpaw/B.PBE.gz
    compensation charges: {type: gauss,
                           rc: 0.20,
                           lmax: 2}
    cutoffs: {filter: 1.14,
              core: 1.38}
    valence states:
      #              energy  rcut
      - 2s(2.00)    -9.443   0.635
      - 2p(1.00)    -3.606   0.635
      -  s          17.768   0.635
      -  p          23.605   0.635
      -  d           0.000   0.635
  
    # Using partial waves for B as LCAO basis

  H:
    name: Hydrogen
    id: d65de229564ff8ea4db303e23b6d1ecf
    Z: 1.0
    valence: 1
    core: 0
    charge: 0.0
    file: /home/vazumah/.conda/envs/GPAW/share/gpaw/H.PBE.gz
    compensation charges: {type: gauss,
                           rc: 0.15,
                           lmax: 2}
    cutoffs: {filter: 0.85,
              core: 0.53}
    valence states:
      #              energy  rcut
      - 1s(1.00)    -6.494   0.476
      -  s          20.717   0.476
      -  p           0.000   0.476
  
    # Using partial waves for H as LCAO basis

  N:
    name: Nitrogen
    id: f7500608b86eaa90eef8b1d9a670dc53
    Z: 7.0
    valence: 5
    core: 2
    charge: 0.0
    file: /home/vazumah/.conda/envs/GPAW/share/gpaw/N.PBE.gz
    compensation charges: {type: gauss,
                           rc: 0.18,
                           lmax: 2}
    cutoffs: {filter: 1.11,
              core: 0.96}
    valence states:
      #              energy  rcut
      - 2s(2.00)   -18.583   0.603
      - 2p(3.00)    -7.089   0.529
      -  s           8.629   0.603
      -  p          20.123   0.529
      -  d           0.000   0.577
  
    # Using partial waves for N as LCAO basis

Reference energy: -10970.764591  # eV

Spin-paired calculation

Convergence criteria:
 Maximum [total energy] change in last 3 cyles: 0.0005 eV / electron
 Maximum integral of absolute [dens]ity change: 0.0001 electrons / valence electron
 Maximum integral of absolute [eigenst]ate change: 4e-08 eV^2 / valence electron
 Maximum number of scf [iter]ations: 333
 (Square brackets indicate name in SCF output, whereas a 'c' in
 the SCF output indicates the quantity has converged.)

Symmetries present (total): 1

  ( 1  0  0)
  ( 0  1  0)
  ( 0  0  1)

16 k-points: 4 x 4 x 1 Monkhorst-Pack grid
8 k-points in the irreducible part of the Brillouin zone
       k-points in crystal coordinates                weights
   0:     0.12500000   -0.37500000    0.00000000          2/16
   1:     0.12500000   -0.12500000    0.00000000          2/16
   2:     0.12500000    0.12500000    0.00000000          2/16
   3:     0.12500000    0.37500000    0.00000000          2/16
   4:     0.37500000   -0.37500000    0.00000000          2/16
   5:     0.37500000   -0.12500000    0.00000000          2/16
   6:     0.37500000    0.12500000    0.00000000          2/16
   7:     0.37500000    0.37500000    0.00000000          2/16

Wave functions: Uniform real-space grid
  Kinetic energy operator: 6*3+1=19 point O(h^6) finite-difference Laplacian
  ScaLapack parameters: grid=1x1, blocksize=None
  Wavefunction extrapolation:
    Improved wavefunction reuse through dual PAW basis 

Occupation numbers: Fermi-Dirac:
  width: 0.0500  # eV
 

Eigensolver
   Davidson(niter=2) 

Densities:
  Coarse grid: 60*60*168 grid
  Fine grid: 120*120*336 grid
  Total Charge: 0.000000 

Density mixing:
  Method: separate
  Backend: pulay
  Linear mixing parameter: 0.05
  old densities: 5
  Damping of long wavelength oscillations: 50 

Hamiltonian:
  XC and Coulomb potentials evaluated on a 120*120*336 grid
  Using the BEEF-vdW Exchange-Correlation functional
  Interpolation: tri-quintic (5. degree polynomial)
  Poisson solver: FastPoissonSolver using
    Stencil: 6*3+1=19 point O(h^6) finite-difference Laplacian
    FFT axes: [0, 1]
    FST axes: [2]

Dipole correction along z-axis 

XC parameters: BEEF-vdW with 2 nearest neighbor stencil

Memory estimate:
  Process memory now: 226.82 MiB
  Calculator: 388.41 MiB
    Density: 121.02 MiB
      Arrays: 39.61 MiB
      Localized functions: 66.31 MiB
      Mixer: 15.11 MiB
    Hamiltonian: 31.15 MiB
      Arrays: 25.90 MiB
      XC: 0.00 MiB
      Poisson: 0.00 MiB
      vbar: 5.25 MiB
    Wavefunctions: 236.24 MiB
      Arrays psit_nG: 108.76 MiB
      Eigensolver: 124.07 MiB
      Projections: 0.04 MiB
      Projectors: 3.37 MiB

Total number of cores used: 24
Parallelization over k-points: 8
Domain decomposition: 1 x 1 x 3

Number of atoms: 42
Number of atomic orbitals: 159
Number of bands in calculation: 36
Number of valence electrons: 52
Bands to converge: occupied

... initialized

Initializing position-dependent things.

Density initialized from atomic densities
Creating initial wave functions:
  36 bands from LCAO basis set

       .-----------------------.  
      /|                       |  
     / |                       |  
    /  |                       |  
   /   |                       |  
  /    |                       |  
 *     |                       |  
 |     |                       |  
 |     |                       |  
 |     |                       |  
 |     |                       |  
 |     |                       |  
 |     |                       |  
 |   H |                H      |  
 HB    |                       |  
 |N    |                       |  
 |   Li|     Li      Li        |  
 |N    |  Li      Li      Li   |  
 | Li  |   Li      Li          |  
 |     |Li      Li      Li     |  
 Li    | Li      Li            |  
 |   LLi     LLi     LLi       |  
 |     |  Li      Li      Li   |  
 | Li  |   Li      Li          |  
 |     |Li      Li      Li     |  
 Li    | Li      Li            |  
 |    Li      Li      Li       |  
 |     |                       |  
 |     |                       |  
 |     |                       |  
 |     |                       |  
 |     |                       |  
 |     |                       |  
 |     .-----------------------.  
 |    /                       /   
 |   /                       /    
 |  /                       /     
 | /                       /      
 |/                       /       
 *-----------------------*        

Positions:
   0 Li     1.617037    1.617037   10.000000    ( 0.0000,  0.0000,  0.0000)
   1 Li     4.851111    1.617037   10.000000    ( 0.0000,  0.0000,  0.0000)
   2 Li     8.085185    1.617037   10.000000    ( 0.0000,  0.0000,  0.0000)
   3 Li     1.617037    4.851111   10.000000    ( 0.0000,  0.0000,  0.0000)
   4 Li     4.851111    4.851111   10.000000    ( 0.0000,  0.0000,  0.0000)
   5 Li     8.085185    4.851111   10.000000    ( 0.0000,  0.0000,  0.0000)
   6 Li     1.617037    8.085185   10.000000    ( 0.0000,  0.0000,  0.0000)
   7 Li     4.851111    8.085185   10.000000    ( 0.0000,  0.0000,  0.0000)
   8 Li     8.085185    8.085185   10.000000    ( 0.0000,  0.0000,  0.0000)
   9 Li     0.000000    0.000000   11.617037    ( 0.0000,  0.0000,  0.0000)
  10 Li     3.234074    0.000000   11.617037    ( 0.0000,  0.0000,  0.0000)
  11 Li     6.468148    0.000000   11.617037    ( 0.0000,  0.0000,  0.0000)
  12 Li     0.000000    3.234074   11.617037    ( 0.0000,  0.0000,  0.0000)
  13 Li     3.234074    3.234074   11.617037    ( 0.0000,  0.0000,  0.0000)
  14 Li     6.468148    3.234074   11.617037    ( 0.0000,  0.0000,  0.0000)
  15 Li     0.000000    6.468148   11.617037    ( 0.0000,  0.0000,  0.0000)
  16 Li     3.234074    6.468148   11.617037    ( 0.0000,  0.0000,  0.0000)
  17 Li     6.468148    6.468148   11.617037    ( 0.0000,  0.0000,  0.0000)
  18 Li     1.617038    1.617038   13.469728    ( 0.0000,  0.0000,  0.0000)
  19 Li     4.851111    1.617038   13.469729    ( 0.0000,  0.0000,  0.0000)
  20 Li     8.085184    1.617038   13.469728    ( 0.0000,  0.0000,  0.0000)
  21 Li     1.617038    4.851111   13.469729    ( 0.0000,  0.0000,  0.0000)
  22 Li     4.851111    4.851111   13.469730    ( 0.0000,  0.0000,  0.0000)
  23 Li     8.085184    4.851111   13.469729    ( 0.0000,  0.0000,  0.0000)
  24 Li     1.617038    8.085184   13.469728    ( 0.0000,  0.0000,  0.0000)
  25 Li     4.851111    8.085184   13.469729    ( 0.0000,  0.0000,  0.0000)
  26 Li     8.085184    8.085184   13.469728    ( 0.0000,  0.0000,  0.0000)
  27 Li    -0.000000   -0.000000   15.445939    ( 0.0000,  0.0000,  0.0000)
  28 Li     3.234074    0.000000   15.445939    ( 0.0000,  0.0000,  0.0000)
  29 Li     6.468148    0.000000   15.445939    ( 0.0000,  0.0000,  0.0000)
  30 Li     0.000000    3.234074   15.445939    ( 0.0000,  0.0000,  0.0000)
  31 Li     3.234076    3.234076   15.445938    ( 0.0000,  0.0000,  0.0000)
  32 Li     6.468146    3.234076   15.445938    ( 0.0000,  0.0000,  0.0000)
  33 Li     0.000000    6.468148   15.445939    ( 0.0000,  0.0000,  0.0000)
  34 Li     3.234076    6.468146   15.445938    ( 0.0000,  0.0000,  0.0000)
  35 Li     6.468146    6.468146   15.445938    ( 0.0000,  0.0000,  0.0000)
  36 B      0.000000    1.617037   19.645939    ( 0.0000,  0.0000,  0.0000)
  37 H      1.032569    2.209323   19.645939    ( 0.0000,  0.0000,  0.0000)
  38 H     -1.029909    2.213996   19.645939    ( 0.0000,  0.0000,  0.0000)
  39 H      0.000086    0.428437   19.645939    ( 0.0000,  0.0000,  0.0000)
  40 N      0.000000    1.617000   17.195939    ( 0.0000,  0.0000,  0.0000)
  41 N      0.000000    1.617000   18.292561    ( 0.0000,  0.0000,  0.0000)

Unit cell:
           periodic     x           y           z      points  spacing
  1. axis:    yes    9.702222    0.000000    0.000000    60     0.1617
  2. axis:    yes    0.000000    9.702222    0.000000    60     0.1617
  3. axis:    no     0.000000    0.000000   26.601111   168     0.1583

  Lengths:   9.702222   9.702222  26.601111
  Angles:   90.000000  90.000000  90.000000

Effective grid spacing dv^(1/3) = 0.1606

     iter     time        total  log10-change:
                         energy  eigst   dens
iter:   1 04:46:09  -348.494537
iter:   2 04:48:35  -176.258863  +2.27  -0.10
iter:   3 04:50:58  -135.407807  +3.07  -0.26
iter:   4 04:53:31  -180.784810  +3.06  -0.28
Writing to output.gpw (mode='')

iter:   5 04:56:20  -196.965439  +2.45  -0.39
iter:   6 04:58:50  -217.601904  +2.37  -0.61
iter:   7 05:01:24  -240.728590  +2.37  -0.63
iter:   8 05:03:59  -253.440027  +2.22  -0.65
iter:   9 05:06:34  -274.060376  +2.01  -0.84
Writing to output.gpw (mode='')

iter:  10 05:09:12  -260.961340  +1.50  -0.62
iter:  11 05:11:39  -262.757166  +0.95  -0.76
iter:  12 05:14:15  -267.952240  +0.96  -0.75
iter:  13 05:16:44  -260.019456  +0.69  -0.77
iter:  14 05:19:11  -259.305543  +1.05  -0.81
Writing to output.gpw (mode='')

iter:  15 05:21:36  -257.582003  +0.68  -0.74
iter:  16 05:24:06  -255.887784  +0.81  -0.78
iter:  17 05:26:35  -255.796709  +0.31  -0.90
iter:  18 05:29:00  -254.415645  +0.64  -0.92
iter:  19 05:31:23  -254.377551  +0.56  -1.20
Writing to output.gpw (mode='')

iter:  20 05:33:50  -254.317828  -0.04  -1.20
iter:  21 05:36:19  -254.201677  -0.31  -1.35
iter:  22 05:38:54  -254.228229  -0.38  -1.49
iter:  23 05:41:22  -254.224877  -0.62  -1.53
iter:  24 05:43:40  -254.261353  -0.44  -1.65
Writing to output.gpw (mode='')

iter:  25 05:46:09  -254.271045  -0.89  -1.72
iter:  26 05:48:38  -254.277915c -0.97  -1.74
iter:  27 05:51:01  -254.281290c -1.05  -1.83
iter:  28 05:53:24  -254.283406c -1.12  -1.98
iter:  29 05:55:57  -254.291515c -0.92  -2.12
Writing to output.gpw (mode='')

iter:  30 05:58:32  -254.299855c -1.30  -2.23
iter:  31 06:01:07  -254.306807c -1.18  -2.33
iter:  32 06:03:31  -254.313452c -1.58  -2.43
iter:  33 06:05:56  -254.317812c -1.70  -2.45
iter:  34 06:08:28  -254.323500c -1.41  -2.44
Writing to output.gpw (mode='')

iter:  35 06:11:05  -254.327023c -1.65  -2.35
iter:  36 06:13:37  -254.330981c -1.54  -2.56
iter:  37 06:16:07  -254.334227c -1.75  -2.70
iter:  38 06:18:37  -254.337329c -1.75  -2.67
iter:  39 06:21:12  -254.339810c -1.91  -2.68
Writing to output.gpw (mode='')

iter:  40 06:23:43  -254.342308c -1.89  -2.65
iter:  41 06:26:17  -254.344792c -1.82  -2.61
iter:  42 06:28:39  -254.346704c -2.11  -2.57
iter:  43 06:31:14  -254.348473c -2.05  -2.58
iter:  44 06:33:42  -254.350472c -1.97  -2.54
Writing to output.gpw (mode='')

iter:  45 06:36:16  -254.352014c -2.17  -2.52
iter:  46 06:38:38  -254.353110c -2.05  -2.51
iter:  47 06:41:07  -254.354931c -2.23  -2.48
iter:  48 06:43:34  -254.356275c -2.29  -2.52
iter:  49 06:46:08  -254.356294c -2.45  -2.42
Writing to output.gpw (mode='')

iter:  50 06:48:43  -254.356969c -2.33  -2.47
iter:  51 06:51:21  -254.357363c -2.56  -2.52
iter:  52 06:53:47  -254.357938c -2.38  -2.50
iter:  53 06:56:19  -254.358381c -2.41  -2.51
iter:  54 06:58:51  -254.358742c -2.46  -2.56
Writing to output.gpw (mode='')

iter:  55 07:01:10  -254.359012c -2.73  -2.63
iter:  56 07:03:39  -254.359266c -2.66  -2.67
iter:  57 07:06:04  -254.359621c -2.66  -2.73
iter:  58 07:08:26  -254.359880c -2.80  -2.83
iter:  59 07:10:48  -254.360041c -2.76  -2.90
Writing to output.gpw (mode='')

iter:  60 07:13:07  -254.360199c -3.04  -3.10
iter:  61 07:15:42  -254.360343c -3.01  -3.15
iter:  62 07:18:09  -254.360477c -3.05  -3.19
iter:  63 07:20:36  -254.360586c -3.15  -3.30
iter:  64 07:23:01  -254.360696c -3.21  -3.55
Writing to output.gpw (mode='')

iter:  65 07:25:32  -254.360818c -3.18  -3.59
iter:  66 07:28:01  -254.360900c -3.34  -3.78
iter:  67 07:30:26  -254.360969c -3.41  -3.85
iter:  68 07:32:55  -254.361036c -3.44  -3.85
iter:  69 07:35:21  -254.361112c -3.30  -3.79
Writing to output.gpw (mode='')

iter:  70 07:37:47  -254.361162c -3.68  -3.94
iter:  71 07:40:19  -254.361210c -3.64  -3.93
iter:  72 07:42:44  -254.361253c -3.66  -3.97
iter:  73 07:45:08  -254.361295c -3.58  -4.03c
iter:  74 07:47:24  -254.361341c -3.51  -4.03c
Writing to output.gpw (mode='')

iter:  75 07:49:58  -254.361376c -3.80  -3.96
iter:  76 07:52:32  -254.361416c -3.80  -3.98
iter:  77 07:55:01  -254.361442c -3.92  -4.02c
iter:  78 07:57:25  -254.361465c -3.88  -3.97
iter:  79 07:59:56  -254.361493c -3.68  -4.00c
Writing to output.gpw (mode='')

iter:  80 08:02:34  -254.361518c -3.85  -4.04c
iter:  81 08:05:12  -254.361537c -3.99  -3.91
iter:  82 08:07:44  -254.361559c -3.75  -3.98
iter:  83 08:10:11  -254.361575c -4.08  -4.06c
iter:  84 08:12:33  -254.361588c -4.00  -4.03c
Writing to output.gpw (mode='')

iter:  85 08:15:09  -254.361609c -3.88  -4.07c
iter:  86 08:17:35  -254.361622c -3.79  -4.02c
iter:  87 08:19:58  -254.361629c -4.19  -4.04c
iter:  88 08:22:23  -254.361647c -3.84  -4.04c
iter:  89 08:24:53  -254.361654c -4.40  -4.07c
Writing to output.gpw (mode='')

iter:  90 08:27:23  -254.361661c -4.11  -4.10c
iter:  91 08:29:50  -254.361667c -4.27  -4.22c
iter:  92 08:32:21  -254.361674c -4.13  -4.26c
iter:  93 08:34:49  -254.361682c -4.31  -4.35c
iter:  94 08:37:21  -254.361685c -4.40  -4.45c
Writing to output.gpw (mode='')

iter:  95 08:39:46  -254.361690c -4.24  -4.50c
iter:  96 08:42:18  -254.361696c -4.40  -4.67c
iter:  97 08:44:43  -254.361700c -4.38  -4.83c
iter:  98 08:47:13  -254.361702c -4.85  -4.89c
iter:  99 08:49:44  -254.361704c -4.92  -4.84c
Writing to output.gpw (mode='')

iter: 100 08:52:27  -254.361706c -5.06  -4.83c
iter: 101 08:54:59  -254.361709c -4.45  -4.80c
iter: 102 08:57:32  -254.361712c -4.65  -4.75c
iter: 103 09:00:01  -254.361713c -4.86  -4.68c
iter: 104 09:02:33  -254.361715c -5.07  -4.64c
Writing to output.gpw (mode='')

iter: 105 09:05:01  -254.361718c -4.69  -4.62c
iter: 106 09:07:33  -254.361719c -4.83  -4.60c
iter: 107 09:10:08  -254.361720c -5.12  -4.52c
iter: 108 09:12:37  -254.361721c -4.98  -4.52c
iter: 109 09:15:11  -254.361721c -5.38  -4.49c
Writing to output.gpw (mode='')

iter: 110 09:17:52  -254.361723c -5.01  -4.48c
iter: 111 09:20:26  -254.361724c -5.12  -4.47c
iter: 112 09:22:46  -254.361725c -5.31  -4.40c
iter: 113 09:25:08  -254.361725c -5.32  -4.43c
iter: 114 09:27:36  -254.361725c -5.13  -4.50c
Writing to output.gpw (mode='')

iter: 115 09:30:06  -254.361726c -5.16  -4.54c
iter: 116 09:32:28  -254.361726c -5.59  -4.61c
iter: 117 09:34:54  -254.361726c -5.59  -4.65c
iter: 118 09:37:22  -254.361727c -5.52  -4.84c
iter: 119 09:39:58  -254.361727c -5.74  -4.97c
Writing to output.gpw (mode='')

iter: 120 09:42:31  -254.361727c -5.93  -5.07c
iter: 121 09:44:58  -254.361727c -5.69  -5.18c
iter: 122 09:47:27  -254.361727c -6.14  -5.39c
iter: 123 09:49:58  -254.361727c -5.72  -5.42c
iter: 124 09:52:32  -254.361727c -5.90  -5.46c
Writing to output.gpw (mode='')

iter: 125 09:55:05  -254.361727c -5.98  -5.61c
iter: 126 09:57:31  -254.361727c -5.95  -5.66c
iter: 127 09:59:56  -254.361727c -6.13  -5.66c
iter: 128 10:02:29  -254.361727c -6.06  -5.79c
iter: 129 10:05:03  -254.361727c -6.04  -5.80c
Writing to output.gpw (mode='')

iter: 130 10:07:33  -254.361727c -6.08  -5.88c
iter: 131 10:10:02  -254.361727c -6.20  -5.93c
iter: 132 10:12:27  -254.361727c -6.11  -6.02c
iter: 133 10:14:45  -254.361727c -6.47  -6.01c
iter: 134 10:17:19  -254.361727c -6.19  -5.92c
Writing to output.gpw (mode='')

iter: 135 10:19:50  -254.361727c -6.20  -5.87c
iter: 136 10:22:22  -254.361727c -6.40  -5.79c
iter: 137 10:24:46  -254.361727c -6.65  -5.74c
iter: 138 10:27:16  -254.361727c -6.59  -5.71c
iter: 139 10:29:51  -254.361727c -6.61  -5.56c
Writing to output.gpw (mode='')

iter: 140 10:32:20  -254.361727c -6.63  -5.67c
iter: 141 10:34:47  -254.361727c -6.44  -5.68c
iter: 142 10:37:08  -254.361727c -6.75  -5.68c
iter: 143 10:39:36  -254.361727c -6.50  -5.60c
iter: 144 10:42:03  -254.361727c -6.81  -5.62c
Writing to output.gpw (mode='')

iter: 145 10:44:36  -254.361727c -6.75  -5.48c
iter: 146 10:47:02  -254.361727c -6.64  -5.65c
iter: 147 10:49:29  -254.361727c -6.74  -5.70c
iter: 148 10:51:56  -254.361727c -7.02  -5.76c
iter: 149 10:54:28  -254.361727c -6.88  -5.69c
Writing to output.gpw (mode='')

iter: 150 10:57:01  -254.361727c -7.09  -5.91c
iter: 151 10:59:32  -254.361727c -6.89  -5.94c
iter: 152 11:01:55  -254.361727c -6.86  -5.93c
iter: 153 11:04:22  -254.361727c -7.01  -5.94c
iter: 154 11:06:47  -254.361727c -6.98  -6.10c
Writing to output.gpw (mode='')

iter: 155 11:09:09  -254.361727c -7.00  -6.15c
iter: 156 11:11:37  -254.361727c -7.06  -6.25c
iter: 157 11:14:04  -254.361727c -7.18  -6.44c
iter: 158 11:16:28  -254.361727c -7.23  -6.47c
iter: 159 11:18:59  -254.361727c -7.13  -6.52c
Writing to output.gpw (mode='')

iter: 160 11:21:32  -254.361727c -7.28  -6.67c
iter: 161 11:24:07  -254.361726c -7.26  -6.76c
iter: 162 11:26:37  -254.361726c -7.14  -6.78c
iter: 163 11:29:12  -254.361726c -7.18  -6.85c
iter: 164 11:31:39  -254.361726c -7.42c -6.80c

Converged after 164 iterations.

Dipole moment: (-14.790202, -4.423140, -0.150122) |e|*Ang

Energy contributions relative to reference atoms: (reference = -10970.764591)

Kinetic:       +127.330280
Potential:     -115.147068
External:        +0.000000
XC:            -266.786699
Entropy (-ST):   -0.143540
Local:           +0.313530
--------------------------
Free energy:   -254.433497
Extrapolated:  -254.361726

Dipole-layer corrected work functions: 3.394716, 3.683301 eV

Showing only first 2 kpts
 Kpt  Band  Eigenvalues  Occupancy
  0    24     -3.78466    1.98541
  0    25     -3.67190    1.86899
  0    26     -3.38428    0.08667
  0    27     -3.28318    0.01192

  1    24     -3.59634    1.51777
  1    25     -3.53679    0.97786
  1    26     -3.50778    0.69745
  1    27     -3.43600    0.22604


Fermi level: -3.53901

No gap
Writing to output.gpw (mode='')


Forces in eV/Ang:
  0 Li    0.01160    0.00007   -0.27350
  1 Li   -0.00001    0.00024   -0.26558
  2 Li   -0.01159    0.00007   -0.27349
  3 Li    0.00346    0.00640   -0.27065
  4 Li   -0.00000    0.00038   -0.28141
  5 Li   -0.00346    0.00640   -0.27065
  6 Li    0.00316   -0.00660   -0.27073
  7 Li   -0.00000   -0.00096   -0.28063
  8 Li   -0.00316   -0.00660   -0.27073
  9 Li   -0.00000    0.01843    0.30315
 10 Li    0.01843   -0.00763    0.25203
 11 Li   -0.01843   -0.00762    0.25205
 12 Li    0.00000   -0.01832    0.30244
 13 Li    0.02027    0.00707    0.25159
 14 Li   -0.02027    0.00707    0.25159
 15 Li   -0.00001   -0.00047    0.24302
 16 Li   -0.03039    0.00065    0.26670
 17 Li    0.03040    0.00065    0.26670
 18 Li    0.05899    0.00071   -0.06949
 19 Li   -0.00000   -0.00064    0.04965
 20 Li   -0.05899    0.00072   -0.06950
 21 Li   -0.01844   -0.02067    0.05483
 22 Li   -0.00000    0.01312    0.02642
 23 Li    0.01845   -0.02068    0.05485
 24 Li   -0.01888    0.02023    0.05498
 25 Li    0.00000   -0.01197    0.02917
 26 Li    0.01888    0.02024    0.05498
 27 Li   -0.00001    0.13754    0.07862
 28 Li    0.03320   -0.01992   -0.03705
 29 Li   -0.03321   -0.01994   -0.03706
 30 Li    0.00004   -0.13653    0.08491
 31 Li    0.03228    0.02030   -0.03557
 32 Li   -0.03227    0.02033   -0.03558
 33 Li   -0.00001    0.00266   -0.01107
 34 Li   -0.01120    0.00021   -0.01238
 35 Li    0.01120    0.00020   -0.01237
 36 B     0.00615    0.15894    1.56366
 37 H     0.64695    0.34750    1.67174
 38 H    -0.64647    0.34577    1.67735
 39 H    -0.00625   -0.76253    1.58903
 40 N    -0.00056    0.00063   -4.56167
 41 N     0.00037   -0.09972   -2.03700

System changes: positions 

Initializing position-dependent things.

Density initialized from wave functions
       .-----------------------.  
      /|                       |  
     / |                       |  
    /  |                       |  
   /   |                       |  
  /    |                       |  
 *     |                       |  
 |     |                       |  
 |     |                       |  
 |     |                       |  
 |     |                       |  
 |     |                       |  
 |     |                       |  
 |   H |                H      |  
 HB    |       Li      Li      |  
 |N    |                       |  
 |     |     Li      Li      Li|  
 |     |  Li      Li      Ni   |  
 | Li  |   Li      Li          |  
 |     |Li      Li      Li     |  
 |     |                 Li    |  
 |   LLi     LLi     LLi       |  
 |     |  Li      Li      Li   |  
 | Li  |   Li      Li          |  
 |     |Li      Li      Li     |  
 Li    | Li      Li            |  
 |    Li      Li      Li       |  
 |     |                       |  
 |     |                       |  
 |     |                       |  
 |     |                       |  
 |     |                       |  
 |     |                       |  
 |     .-----------------------.  
 |    /                       /   
 |   /                       /    
 |  /                       /     
 | /                       /      
 |/                       /       
 *-----------------------*        

Positions:
   0 Li     1.617037    1.617037   10.000000    ( 0.0000,  0.0000,  0.0000)
   1 Li     4.851111    1.617037   10.000000    ( 0.0000,  0.0000,  0.0000)
   2 Li     8.085185    1.617037   10.000000    ( 0.0000,  0.0000,  0.0000)
   3 Li     1.617037    4.851111   10.000000    ( 0.0000,  0.0000,  0.0000)
   4 Li     4.851111    4.851111   10.000000    ( 0.0000,  0.0000,  0.0000)
   5 Li     8.085185    4.851111   10.000000    ( 0.0000,  0.0000,  0.0000)
   6 Li     1.617037    8.085185   10.000000    ( 0.0000,  0.0000,  0.0000)
   7 Li     4.851111    8.085185   10.000000    ( 0.0000,  0.0000,  0.0000)
   8 Li     8.085185    8.085185   10.000000    ( 0.0000,  0.0000,  0.0000)
   9 Li     0.000000    0.000000   11.617037    ( 0.0000,  0.0000,  0.0000)
  10 Li     3.234074    0.000000   11.617037    ( 0.0000,  0.0000,  0.0000)
  11 Li     6.468148    0.000000   11.617037    ( 0.0000,  0.0000,  0.0000)
  12 Li     0.000000    3.234074   11.617037    ( 0.0000,  0.0000,  0.0000)
  13 Li     3.234074    3.234074   11.617037    ( 0.0000,  0.0000,  0.0000)
  14 Li     6.468148    3.234074   11.617037    ( 0.0000,  0.0000,  0.0000)
  15 Li     0.000000    6.468148   11.617037    ( 0.0000,  0.0000,  0.0000)
  16 Li     3.234074    6.468148   11.617037    ( 0.0000,  0.0000,  0.0000)
  17 Li     6.468148    6.468148   11.617037    ( 0.0000,  0.0000,  0.0000)
  18 Li     1.617555    1.617044   13.469119    ( 0.0000,  0.0000,  0.0000)
  19 Li     4.851111    1.617033   13.470165    ( 0.0000,  0.0000,  0.0000)
  20 Li     8.084667    1.617044   13.469118    ( 0.0000,  0.0000,  0.0000)
  21 Li     1.616877    4.850930   13.470210    ( 0.0000,  0.0000,  0.0000)
  22 Li     4.851111    4.851226   13.469962    ( 0.0000,  0.0000,  0.0000)
  23 Li     8.085345    4.850930   13.470210    ( 0.0000,  0.0000,  0.0000)
  24 Li     1.616873    8.085361   13.470210    ( 0.0000,  0.0000,  0.0000)
  25 Li     4.851111    8.085079   13.469985    ( 0.0000,  0.0000,  0.0000)
  26 Li     8.085349    8.085361   13.470210    ( 0.0000,  0.0000,  0.0000)
  27 Li    -0.000000    0.001206   15.446629    ( 0.0000,  0.0000,  0.0000)
  28 Li     3.234365   -0.000175   15.445614    ( 0.0000,  0.0000,  0.0000)
  29 Li     6.467857   -0.000175   15.445614    ( 0.0000,  0.0000,  0.0000)
  30 Li     0.000000    3.232877   15.446683    ( 0.0000,  0.0000,  0.0000)
  31 Li     3.234360    3.234254   15.445626    ( 0.0000,  0.0000,  0.0000)
  32 Li     6.467863    3.234255   15.445626    ( 0.0000,  0.0000,  0.0000)
  33 Li    -0.000000    6.468172   15.445842    ( 0.0000,  0.0000,  0.0000)
  34 Li     3.233978    6.468147   15.445830    ( 0.0000,  0.0000,  0.0000)
  35 Li     6.468244    6.468147   15.445830    ( 0.0000,  0.0000,  0.0000)
  36 B      0.000054    1.618431   19.659651    ( 0.0000,  0.0000,  0.0000)
  37 H      1.038242    2.212370   19.660598    ( 0.0000,  0.0000,  0.0000)
  38 H     -1.035578    2.217028   19.660648    ( 0.0000,  0.0000,  0.0000)
  39 H      0.000031    0.421751   19.659873    ( 0.0000,  0.0000,  0.0000)
  40 N     -0.000005    1.617005   17.155939    ( 0.0000,  0.0000,  0.0000)
  41 N      0.000003    1.616126   18.274699    ( 0.0000,  0.0000,  0.0000)

Unit cell:
           periodic     x           y           z      points  spacing
  1. axis:    yes    9.702222    0.000000    0.000000    60     0.1617
  2. axis:    yes    0.000000    9.702222    0.000000    60     0.1617
  3. axis:    no     0.000000    0.000000   26.601111   168     0.1583

  Lengths:   9.702222   9.702222  26.601111
  Angles:   90.000000  90.000000  90.000000

Effective grid spacing dv^(1/3) = 0.1606

     iter     time        total  log10-change:
                         energy  eigst   dens
iter:   1 11:34:49  -255.927087  +0.14
iter:   2 11:37:22  -255.482106  +0.41  -1.00
iter:   3 11:39:47  -254.623798  -0.61  -1.08
iter:   4 11:42:23  -254.629229  -1.13  -1.98
Writing to output.gpw (mode='')

iter:   5 11:44:48  -254.628637c -1.17  -2.06
iter:   6 11:47:18  -254.630427c -1.39  -2.21
iter:   7 11:49:45  -254.633253c -1.91  -2.34
iter:   8 11:52:11  -254.631660c -1.84  -2.27
iter:   9 11:54:37  -254.632362c -1.85  -2.44
Writing to output.gpw (mode='')

iter:  10 11:57:04  -254.632026c -2.45  -2.58
iter:  11 11:59:31  -254.632201c -2.42  -2.77
iter:  12 12:01:57  -254.632329c -2.99  -2.91
iter:  13 12:04:31  -254.632419c -3.08  -2.91
iter:  14 12:07:06  -254.632507c -3.12  -2.92
Writing to output.gpw (mode='')

iter:  15 12:09:53  -254.632525c -3.50  -3.05
iter:  16 12:12:17  -254.632573c -3.31  -3.12
iter:  17 12:14:42  -254.632600c -3.66  -3.14
iter:  18 12:17:01  -254.632633c -3.62  -3.33
iter:  19 12:19:32  -254.632632c -4.02  -3.44
Writing to output.gpw (mode='')

iter:  20 12:22:07  -254.632647c -4.10  -3.57
iter:  21 12:24:43  -254.632652c -4.26  -3.55
iter:  22 12:27:13  -254.632658c -4.25  -3.58
iter:  23 12:29:40  -254.632666c -4.47  -3.63
iter:  24 12:32:04  -254.632673c -4.51  -3.82
Writing to output.gpw (mode='')

iter:  25 12:34:35  -254.632674c -4.82  -3.99
iter:  26 12:37:01  -254.632673c -4.77  -4.04c
iter:  27 12:39:25  -254.632679c -4.91  -4.12c
iter:  28 12:41:46  -254.632679c -5.04  -4.05c
iter:  29 12:44:10  -254.632678c -5.12  -4.25c
Writing to output.gpw (mode='')

iter:  30 12:46:41  -254.632678c -5.18  -4.40c
iter:  31 12:49:06  -254.632679c -5.26  -4.57c
iter:  32 12:51:36  -254.632679c -5.41  -4.70c
iter:  33 12:54:02  -254.632680c -5.48  -4.78c
iter:  34 12:56:34  -254.632680c -5.70  -4.89c
Writing to output.gpw (mode='')

iter:  35 12:59:03  -254.632680c -5.73  -4.89c
iter:  36 13:01:30  -254.632680c -5.74  -4.83c
iter:  37 13:03:49  -254.632681c -5.88  -4.71c
iter:  38 13:06:13  -254.632681c -5.70  -4.78c
iter:  39 13:08:36  -254.632681c -6.10  -4.97c
Writing to output.gpw (mode='')

iter:  40 13:11:12  -254.632682c -6.10  -4.85c
iter:  41 13:13:38  -254.632682c -6.25  -4.99c
iter:  42 13:16:01  -254.632682c -6.36  -4.88c
iter:  43 13:18:27  -254.632682c -6.47  -4.89c
iter:  44 13:20:53  -254.632682c -6.43  -4.86c
Writing to output.gpw (mode='')

iter:  45 13:23:23  -254.632682c -6.41  -4.87c
iter:  46 13:25:57  -254.632682c -6.64  -4.85c
iter:  47 13:28:26  -254.632682c -6.60  -4.82c
iter:  48 13:30:51  -254.632681c -6.46  -4.86c
iter:  49 13:33:25  -254.632682c -6.74  -4.81c
Writing to output.gpw (mode='')

iter:  50 13:35:58  -254.632682c -6.78  -4.74c
iter:  51 13:38:22  -254.632682c -6.80  -4.96c
iter:  52 13:40:41  -254.632682c -6.81  -5.06c
iter:  53 13:43:06  -254.632682c -6.98  -5.13c
iter:  54 13:45:35  -254.632682c -7.18  -5.25c
Writing to output.gpw (mode='')

iter:  55 13:48:07  -254.632682c -7.01  -5.33c
iter:  56 13:50:33  -254.632682c -7.17  -5.50c
iter:  57 13:53:02  -254.632682c -7.33  -5.64c
iter:  58 13:55:32  -254.632682c -7.27  -5.68c
iter:  59 13:58:05  -254.632682c -7.47c -5.73c

Converged after 59 iterations.

Dipole moment: (-14.819683, -4.394772, -0.183103) |e|*Ang

Energy contributions relative to reference atoms: (reference = -10970.764591)

Kinetic:       +121.718315
Potential:     -110.864641
External:        +0.000000
XC:            -265.728866
Entropy (-ST):   -0.143739
Local:           +0.314380
--------------------------
Free energy:   -254.704551
Extrapolated:  -254.632682

Dipole-layer corrected work functions: 3.396607, 3.748594 eV

Showing only first 2 kpts
 Kpt  Band  Eigenvalues  Occupancy
  0    24     -3.81754    1.98520
  0    25     -3.70214    1.86053
  0    26     -3.41928    0.08903
  0    27     -3.31794    0.01220

  1    24     -3.63146    1.52885
  1    25     -3.57007    0.97474
  1    26     -3.54176    0.70099
  1    27     -3.46594    0.21183


Fermi level: -3.57260

No gap
Writing to output.gpw (mode='')


Forces in eV/Ang:
  0 Li    0.01157    0.00006   -0.27386
  1 Li   -0.00001    0.00024   -0.26491
  2 Li   -0.01157    0.00006   -0.27385
  3 Li    0.00387    0.00656   -0.27100
  4 Li   -0.00000    0.00096   -0.28204
  5 Li   -0.00387    0.00656   -0.27100
  6 Li    0.00358   -0.00676   -0.27109
  7 Li   -0.00000   -0.00157   -0.28123
  8 Li   -0.00358   -0.00676   -0.27109
  9 Li   -0.00000    0.01860    0.30504
 10 Li    0.01853   -0.00782    0.25224
 11 Li   -0.01853   -0.00781    0.25225
 12 Li    0.00000   -0.01852    0.30430
 13 Li    0.02035    0.00725    0.25181
 14 Li   -0.02036    0.00725    0.25181
 15 Li   -0.00001   -0.00044    0.24287
 16 Li   -0.03075    0.00068    0.26653
 17 Li    0.03076    0.00067    0.26654
 18 Li    0.06064    0.00071   -0.07333
 19 Li   -0.00000   -0.00060    0.04886
 20 Li   -0.06064    0.00072   -0.07335
 21 Li   -0.01908   -0.02017    0.05307
 22 Li   -0.00000    0.01212    0.02661
 23 Li    0.01908   -0.02018    0.05308
 24 Li   -0.01947    0.01975    0.05320
 25 Li    0.00000   -0.01098    0.02934
 26 Li    0.01947    0.01976    0.05320
 27 Li   -0.00001    0.15632    0.09783
 28 Li    0.03199   -0.01911   -0.03441
 29 Li   -0.03200   -0.01913   -0.03443
 30 Li    0.00004   -0.15521    0.10430
 31 Li    0.03101    0.01949   -0.03292
 32 Li   -0.03100    0.01952   -0.03293
 33 Li   -0.00001    0.00257   -0.01227
 34 Li   -0.00964    0.00021   -0.01266
 35 Li    0.00965    0.00021   -0.01265
 36 B     0.00466    0.11913    0.38843
 37 H     0.50309    0.27280    1.58915
 38 H    -0.49890    0.26914    1.59401
 39 H    -0.00597   -0.57134    1.50675
 40 N    -0.00051   -0.00577   -1.81090
 41 N     0.00022   -0.09040   -3.40639

System changes: positions 

Initializing position-dependent things.

Density initialized from wave functions
       .-----------------------.  
      /|                       |  
     / |                       |  
    /  |                       |  
   /   |                       |  
  /    |                       |  
 *     |                       |  
 |     |                       |  
 |     |                       |  
 |     |                       |  
 |     |                       |  
 |     |                       |  
 |     |                       |  
 |   H |                H      |  
 |B    |       Li      LiH     |  
 |N    |                       |  
 |     |     Li      Li      Li|  
 |     |  Li      Li      Ni   |  
 | Li  |   Li      Li          |  
 |     |Li      Li      Li     |  
 |     |                 Li    |  
 |   LLi     LLi     LLi       |  
 |     |  Li      Li      Li   |  
 | Li  |   Li      Li          |  
 |     |Li      Li      Li     |  
 Li    | Li      Li            |  
 |    Li      Li      Li       |  
 |     |                       |  
 |     |                       |  
 |     |                       |  
 |     |                       |  
 |     |                       |  
 |     |                       |  
 |     .-----------------------.  
 |    /                       /   
 |   /                       /    
 |  /                       /     
 | /                       /      
 |/                       /       
 *-----------------------*        

Positions:
   0 Li     1.617037    1.617037   10.000000    ( 0.0000,  0.0000,  0.0000)
   1 Li     4.851111    1.617037   10.000000    ( 0.0000,  0.0000,  0.0000)
   2 Li     8.085185    1.617037   10.000000    ( 0.0000,  0.0000,  0.0000)
   3 Li     1.617037    4.851111   10.000000    ( 0.0000,  0.0000,  0.0000)
   4 Li     4.851111    4.851111   10.000000    ( 0.0000,  0.0000,  0.0000)
   5 Li     8.085185    4.851111   10.000000    ( 0.0000,  0.0000,  0.0000)
   6 Li     1.617037    8.085185   10.000000    ( 0.0000,  0.0000,  0.0000)
   7 Li     4.851111    8.085185   10.000000    ( 0.0000,  0.0000,  0.0000)
   8 Li     8.085185    8.085185   10.000000    ( 0.0000,  0.0000,  0.0000)
   9 Li     0.000000    0.000000   11.617037    ( 0.0000,  0.0000,  0.0000)
  10 Li     3.234074    0.000000   11.617037    ( 0.0000,  0.0000,  0.0000)
  11 Li     6.468148    0.000000   11.617037    ( 0.0000,  0.0000,  0.0000)
  12 Li     0.000000    3.234074   11.617037    ( 0.0000,  0.0000,  0.0000)
  13 Li     3.234074    3.234074   11.617037    ( 0.0000,  0.0000,  0.0000)
  14 Li     6.468148    3.234074   11.617037    ( 0.0000,  0.0000,  0.0000)
  15 Li     0.000000    6.468148   11.617037    ( 0.0000,  0.0000,  0.0000)
  16 Li     3.234074    6.468148   11.617037    ( 0.0000,  0.0000,  0.0000)
  17 Li     6.468148    6.468148   11.617037    ( 0.0000,  0.0000,  0.0000)
  18 Li     1.618334    1.617054   13.468183    ( 0.0000,  0.0000,  0.0000)
  19 Li     4.851111    1.617025   13.470798    ( 0.0000,  0.0000,  0.0000)
  20 Li     8.083888    1.617054   13.468183    ( 0.0000,  0.0000,  0.0000)
  21 Li     1.616632    4.850668   13.470901    ( 0.0000,  0.0000,  0.0000)
  22 Li     4.851111    4.851385   13.470305    ( 0.0000,  0.0000,  0.0000)
  23 Li     8.085590    4.850668   13.470901    ( 0.0000,  0.0000,  0.0000)
  24 Li     1.616623    8.085618   13.470902    ( 0.0000,  0.0000,  0.0000)
  25 Li     4.851111    8.084934   13.470364    ( 0.0000,  0.0000,  0.0000)
  26 Li     8.085599    8.085618   13.470902    ( 0.0000,  0.0000,  0.0000)
  27 Li    -0.000000    0.003170   15.447836    ( 0.0000,  0.0000,  0.0000)
  28 Li     3.234781   -0.000424   15.445162    ( 0.0000,  0.0000,  0.0000)
  29 Li     6.467440   -0.000424   15.445162    ( 0.0000,  0.0000,  0.0000)
  30 Li     0.000001    3.230927   15.447973    ( 0.0000,  0.0000,  0.0000)
  31 Li     3.234764    3.234509   15.445193    ( 0.0000,  0.0000,  0.0000)
  32 Li     6.467459    3.234509   15.445193    ( 0.0000,  0.0000,  0.0000)
  33 Li    -0.000000    6.468205   15.445687    ( 0.0000,  0.0000,  0.0000)
  34 Li     3.233849    6.468150   15.445667    ( 0.0000,  0.0000,  0.0000)
  35 Li     6.468373    6.468150   15.445667    ( 0.0000,  0.0000,  0.0000)
  36 B      0.000118    1.620085   19.668103    ( 0.0000,  0.0000,  0.0000)
  37 H      1.045159    2.216111   19.681361    ( 0.0000,  0.0000,  0.0000)
  38 H     -1.042452    2.220727   19.681475    ( 0.0000,  0.0000,  0.0000)
  39 H     -0.000047    0.413814   19.679570    ( 0.0000,  0.0000,  0.0000)
  40 N     -0.000012    1.616950   17.124511    ( 0.0000,  0.0000,  0.0000)
  41 N      0.000007    1.614931   18.234717    ( 0.0000,  0.0000,  0.0000)

Unit cell:
           periodic     x           y           z      points  spacing
  1. axis:    yes    9.702222    0.000000    0.000000    60     0.1617
  2. axis:    yes    0.000000    9.702222    0.000000    60     0.1617
  3. axis:    no     0.000000    0.000000   26.601111   168     0.1583

  Lengths:   9.702222   9.702222  26.601111
  Angles:   90.000000  90.000000  90.000000

Effective grid spacing dv^(1/3) = 0.1606

     iter     time        total  log10-change:
                         energy  eigst   dens
iter:   1 14:01:20  -254.917694  -0.78
iter:   2 14:03:47  -254.907378  -1.38  -1.90
iter:   3 14:06:12  -254.899603c -1.99  -1.95
iter:   4 14:08:41  -254.889627c -1.54  -2.26
Writing to output.gpw (mode='')

iter:   5 14:11:09  -254.889511c -2.61  -2.37
iter:   6 14:13:40  -254.887600c -2.45  -2.40
iter:   7 14:16:03  -254.887121c -2.29  -2.54
iter:   8 14:18:32  -254.886425c -2.96  -2.79
iter:   9 14:21:02  -254.886534c -3.10  -2.94
Writing to output.gpw (mode='')

iter:  10 14:23:30  -254.886550c -3.65  -3.05
iter:  11 14:25:58  -254.886485c -3.89  -3.18
iter:  12 14:28:28  -254.886479c -4.11  -3.25
iter:  13 14:30:52  -254.886467c -4.12  -3.39
iter:  14 14:33:20  -254.886475c -4.48  -3.42
Writing to output.gpw (mode='')

iter:  15 14:35:49  -254.886471c -4.79  -3.46
iter:  16 14:38:11  -254.886474c -4.80  -3.60
iter:  17 14:40:44  -254.886472c -5.49  -3.87
iter:  18 14:43:09  -254.886472c -5.57  -3.91
iter:  19 14:45:43  -254.886470c -5.41  -3.96
Writing to output.gpw (mode='')

iter:  20 14:48:10  -254.886470c -5.79  -4.02c
iter:  21 14:50:37  -254.886470c -5.88  -4.14c
iter:  22 14:53:06  -254.886471c -5.86  -4.19c
iter:  23 14:55:27  -254.886471c -6.06  -4.48c
iter:  24 14:57:58  -254.886471c -6.25  -4.71c
Writing to output.gpw (mode='')

iter:  25 15:00:29  -254.886471c -6.60  -4.77c
iter:  26 15:03:00  -254.886471c -6.63  -4.80c
iter:  27 15:05:23  -254.886471c -6.80  -4.83c
iter:  28 15:07:45  -254.886471c -7.00  -4.92c
iter:  29 15:10:07  -254.886471c -7.05  -4.93c
Writing to output.gpw (mode='')

iter:  30 15:12:27  -254.886470c -7.00  -5.00c
iter:  31 15:15:03  -254.886470c -7.31  -5.16c
iter:  32 15:17:36  -254.886471c -7.15  -5.26c
iter:  33 15:20:06  -254.886471c -7.26  -5.42c
iter:  34 15:22:33  -254.886471c -7.45c -5.49c

Converged after 34 iterations.

Dipole moment: (-14.833981, -4.436188, -0.206670) |e|*Ang

Energy contributions relative to reference atoms: (reference = -10970.764591)

Kinetic:       +120.085618
Potential:     -109.868109
External:        +0.000000
XC:            -265.346310
Entropy (-ST):   -0.143168
Local:           +0.313914
--------------------------
Free energy:   -254.958054
Extrapolated:  -254.886471

Dipole-layer corrected work functions: 3.397355, 3.794647 eV

Showing only first 2 kpts
 Kpt  Band  Eigenvalues  Occupancy
  0    24     -3.84051    1.98507
  0    25     -3.72392    1.85627
  0    26     -3.44261    0.08892
  0    27     -3.34158    0.01226

  1    24     -3.65591    1.53641
  1    25     -3.59297    0.96972
  1    26     -3.56544    0.70354
  1    27     -3.48708    0.20341


Fermi level: -3.59600

No gap
Writing to output.gpw (mode='')


Forces in eV/Ang:
  0 Li    0.01159    0.00005   -0.27367
  1 Li   -0.00001    0.00020   -0.26432
  2 Li   -0.01158    0.00005   -0.27367
  3 Li    0.00406    0.00670   -0.27113
  4 Li   -0.00000    0.00151   -0.28246
  5 Li   -0.00406    0.00670   -0.27113
  6 Li    0.00380   -0.00688   -0.27122
  7 Li   -0.00000   -0.00205   -0.28173
  8 Li   -0.00380   -0.00689   -0.27122
  9 Li   -0.00000    0.01902    0.30581
 10 Li    0.01924   -0.00827    0.25192
 11 Li   -0.01924   -0.00826    0.25193
 12 Li    0.00000   -0.01894    0.30510
 13 Li    0.02089    0.00775    0.25154
 14 Li   -0.02089    0.00775    0.25154
 15 Li   -0.00001   -0.00041    0.24277
 16 Li   -0.03164    0.00063    0.26689
 17 Li    0.03164    0.00062    0.26689
 18 Li    0.06138    0.00066   -0.07208
 19 Li    0.00000   -0.00051    0.04708
 20 Li   -0.06138    0.00066   -0.07210
 21 Li   -0.01976   -0.02051    0.05283
 22 Li   -0.00000    0.01201    0.02588
 23 Li    0.01976   -0.02052    0.05284
 24 Li   -0.02008    0.02014    0.05292
 25 Li    0.00000   -0.01100    0.02838
 26 Li    0.02008    0.02014    0.05292
 27 Li   -0.00001    0.14878    0.07153
 28 Li    0.03124   -0.01846   -0.03441
 29 Li   -0.03125   -0.01848   -0.03442
 30 Li    0.00004   -0.14781    0.07776
 31 Li    0.03018    0.01878   -0.03280
 32 Li   -0.03017    0.01881   -0.03282
 33 Li   -0.00001    0.00226   -0.01176
 34 Li   -0.00902    0.00021   -0.01207
 35 Li    0.00902    0.00021   -0.01206
 36 B     0.00360    0.05160   -0.81165
 37 H     0.28277    0.14713    1.43771
 38 H    -0.27908    0.14450    1.44079
 39 H    -0.00558   -0.28025    1.35929
 40 N    -0.00048   -0.01062   -2.68816
 41 N     0.00026   -0.05212   -0.67777

System changes: positions 

Initializing position-dependent things.

Density initialized from wave functions
       .-----------------------.  
      /|                       |  
     / |                       |  
    /  |                       |  
   /   |                       |  
  /    |                       |  
 *     |                       |  
 |     |                       |  
 |     |                       |  
 |     |                       |  
 |     |                       |  
 |     |                       |  
 |     |                       |  
 |   H |                H      |  
 |B    |       Li      LiH     |  
 |N    |                       |  
 |     |     Li      Li      Li|  
 |     |  Li      Li      Ni   |  
 | Li  |   Li      Li          |  
 |     |Li      Li      Li     |  
 |     |                 Li    |  
 |   LLi     LLi     LLi       |  
 |     |  Li      Li      Li   |  
 | Li  |   Li      Li          |  
 |     |Li      Li      Li     |  
 Li    | Li      Li            |  
 |    Li      Li      Li       |  
 |     |                       |  
 |     |                       |  
 |     |                       |  
 |     |                       |  
 |     |                       |  
 |     |                       |  
 |     .-----------------------.  
 |    /                       /   
 |   /                       /    
 |  /                       /     
 | /                       /      
 |/                       /       
 *-----------------------*        

Positions:
   0 Li     1.617037    1.617037   10.000000    ( 0.0000,  0.0000,  0.0000)
   1 Li     4.851111    1.617037   10.000000    ( 0.0000,  0.0000,  0.0000)
   2 Li     8.085185    1.617037   10.000000    ( 0.0000,  0.0000,  0.0000)
   3 Li     1.617037    4.851111   10.000000    ( 0.0000,  0.0000,  0.0000)
   4 Li     4.851111    4.851111   10.000000    ( 0.0000,  0.0000,  0.0000)
   5 Li     8.085185    4.851111   10.000000    ( 0.0000,  0.0000,  0.0000)
   6 Li     1.617037    8.085185   10.000000    ( 0.0000,  0.0000,  0.0000)
   7 Li     4.851111    8.085185   10.000000    ( 0.0000,  0.0000,  0.0000)
   8 Li     8.085185    8.085185   10.000000    ( 0.0000,  0.0000,  0.0000)
   9 Li     0.000000    0.000000   11.617037    ( 0.0000,  0.0000,  0.0000)
  10 Li     3.234074    0.000000   11.617037    ( 0.0000,  0.0000,  0.0000)
  11 Li     6.468148    0.000000   11.617037    ( 0.0000,  0.0000,  0.0000)
  12 Li     0.000000    3.234074   11.617037    ( 0.0000,  0.0000,  0.0000)
  13 Li     3.234074    3.234074   11.617037    ( 0.0000,  0.0000,  0.0000)
  14 Li     6.468148    3.234074   11.617037    ( 0.0000,  0.0000,  0.0000)
  15 Li     0.000000    6.468148   11.617037    ( 0.0000,  0.0000,  0.0000)
  16 Li     3.234074    6.468148   11.617037    ( 0.0000,  0.0000,  0.0000)
  17 Li     6.468148    6.468148   11.617037    ( 0.0000,  0.0000,  0.0000)
  18 Li     1.619357    1.617065   13.466968    ( 0.0000,  0.0000,  0.0000)
  19 Li     4.851111    1.617016   13.471598    ( 0.0000,  0.0000,  0.0000)
  20 Li     8.082865    1.617065   13.466968    ( 0.0000,  0.0000,  0.0000)
  21 Li     1.616306    4.850326   13.471787    ( 0.0000,  0.0000,  0.0000)
  22 Li     4.851111    4.851588   13.470743    ( 0.0000,  0.0000,  0.0000)
  23 Li     8.085917    4.850326   13.471788    ( 0.0000,  0.0000,  0.0000)
  24 Li     1.616290    8.085953   13.471791    ( 0.0000,  0.0000,  0.0000)
  25 Li     4.851111    8.084750   13.470845    ( 0.0000,  0.0000,  0.0000)
  26 Li     8.085932    8.085953   13.471791    ( 0.0000,  0.0000,  0.0000)
  27 Li    -0.000000    0.005706   15.449195    ( 0.0000,  0.0000,  0.0000)
  28 Li     3.235310   -0.000737   15.444585    ( 0.0000,  0.0000,  0.0000)
  29 Li     6.466912   -0.000738   15.444584    ( 0.0000,  0.0000,  0.0000)
  30 Li     0.000002    3.228407   15.449439    ( 0.0000,  0.0000,  0.0000)
  31 Li     3.235275    3.234828   15.444643    ( 0.0000,  0.0000,  0.0000)
  32 Li     6.466948    3.234829   15.444642    ( 0.0000,  0.0000,  0.0000)
  33 Li    -0.000000    6.468245   15.445487    ( 0.0000,  0.0000,  0.0000)
  34 Li     3.233694    6.468154   15.445461    ( 0.0000,  0.0000,  0.0000)
  35 Li     6.468528    6.468154   15.445461    ( 0.0000,  0.0000,  0.0000)
  36 B      0.000186    1.621377   19.662182    ( 0.0000,  0.0000,  0.0000)
  37 H      1.051294    2.219372   19.706405    ( 0.0000,  0.0000,  0.0000)
  38 H     -1.048523    2.223938   19.706582    ( 0.0000,  0.0000,  0.0000)
  39 H     -0.000143    0.407272   19.703276    ( 0.0000,  0.0000,  0.0000)
  40 N     -0.000020    1.616803   17.084512    ( 0.0000,  0.0000,  0.0000)
  41 N      0.000011    1.613817   18.206552    ( 0.0000,  0.0000,  0.0000)

Unit cell:
           periodic     x           y           z      points  spacing
  1. axis:    yes    9.702222    0.000000    0.000000    60     0.1617
  2. axis:    yes    0.000000    9.702222    0.000000    60     0.1617
  3. axis:    no     0.000000    0.000000   26.601111   168     0.1583

  Lengths:   9.702222   9.702222  26.601111
  Angles:   90.000000  90.000000  90.000000

Effective grid spacing dv^(1/3) = 0.1606

     iter     time        total  log10-change:
                         energy  eigst   dens
iter:   1 15:25:37  -255.333813  -0.60
iter:   2 15:28:04  -255.372867  -0.23  -1.32
iter:   3 15:30:29  -255.106363  -1.10  -1.30
iter:   4 15:32:53  -255.104510  -1.82  -2.02
Writing to output.gpw (mode='')

iter:   5 15:35:25  -255.104259c -1.55  -2.19
iter:   6 15:37:53  -255.105315c -1.71  -2.29
iter:   7 15:40:12  -255.104668c -2.25  -2.34
iter:   8 15:42:44  -255.104746c -2.26  -2.58
iter:   9 15:45:05  -255.104387c -2.54  -2.62
Writing to output.gpw (mode='')

iter:  10 15:47:29  -255.104480c -2.68  -2.84
iter:  11 15:49:57  -255.104539c -3.00  -2.91
iter:  12 15:52:23  -255.104579c -3.41  -2.95
iter:  13 15:54:55  -255.104556c -3.56  -2.97
iter:  14 15:57:20  -255.104591c -3.24  -3.15
Writing to output.gpw (mode='')

iter:  15 15:59:50  -255.104586c -3.90  -3.18
iter:  16 16:02:20  -255.104581c -4.05  -3.31
iter:  17 16:04:53  -255.104586c -4.16  -3.37
iter:  18 16:07:28  -255.104587c -4.38  -3.51
iter:  19 16:09:57  -255.104605c -4.29  -3.60
Writing to output.gpw (mode='')

iter:  20 16:12:23  -255.104609c -4.63  -3.61
iter:  21 16:14:50  -255.104621c -4.58  -3.66
iter:  22 16:17:13  -255.104623c -5.00  -3.95
iter:  23 16:19:51  -255.104625c -5.07  -4.03c
iter:  24 16:22:20  -255.104626c -4.90  -4.06c
Writing to output.gpw (mode='')

iter:  25 16:24:50  -255.104627c -4.72  -4.12c
iter:  26 16:27:17  -255.104626c -5.18  -4.17c
iter:  27 16:29:48  -255.104626c -5.21  -4.36c
iter:  28 16:32:13  -255.104627c -5.35  -4.52c
iter:  29 16:34:41  -255.104627c -5.48  -4.56c
Writing to output.gpw (mode='')

iter:  30 16:37:17  -255.104629c -5.54  -4.50c
iter:  31 16:39:43  -255.104629c -5.87  -4.57c
iter:  32 16:42:10  -255.104629c -5.92  -4.57c
iter:  33 16:44:39  -255.104630c -5.92  -4.53c
iter:  34 16:47:04  -255.104630c -6.05  -4.48c
Writing to output.gpw (mode='')

iter:  35 16:49:45  -255.104630c -5.83  -4.45c
iter:  36 16:52:13  -255.104630c -6.03  -4.41c
iter:  37 16:54:42  -255.104630c -5.73  -4.38c
iter:  38 16:57:05  -255.104630c -6.33  -4.40c
iter:  39 16:59:30  -255.104630c -6.49  -4.37c
Writing to output.gpw (mode='')

iter:  40 17:01:57  -255.104631c -6.41  -4.39c
iter:  41 17:04:28  -255.104631c -6.62  -4.36c
iter:  42 17:07:05  -255.104631c -6.47  -4.55c
iter:  43 17:09:38  -255.104632c -6.59  -4.63c
iter:  44 17:11:52  -255.104634c -6.52  -4.63c
Writing to output.gpw (mode='')

iter:  45 17:14:27  -255.104634c -6.74  -4.63c
iter:  46 17:16:53  -255.104634c -6.71  -4.78c
iter:  47 17:19:24  -255.104633c -6.60  -4.82c
iter:  48 17:21:54  -255.104633c -6.79  -5.00c
iter:  49 17:24:18  -255.104633c -6.98  -5.08c
Writing to output.gpw (mode='')

iter:  50 17:26:43  -255.104634c -6.89  -5.11c
iter:  51 17:29:15  -255.104634c -7.26  -5.34c
iter:  52 17:31:45  -255.104633c -7.19  -5.41c
iter:  53 17:34:12  -255.104633c -7.15  -5.48c
iter:  54 17:36:36  -255.104634c -7.25  -5.50c
Writing to output.gpw (mode='')

iter:  55 17:39:10  -255.104634c -7.53c -5.57c

Converged after 55 iterations.

Dipole moment: (-14.851775, -4.430382, -0.243468) |e|*Ang

Energy contributions relative to reference atoms: (reference = -10970.764591)

Kinetic:       +116.815850
Potential:     -107.412670
External:        +0.000000
XC:            -264.751974
Entropy (-ST):   -0.143481
Local:           +0.315901
--------------------------
Free energy:   -255.176374
Extrapolated:  -255.104634

Dipole-layer corrected work functions: 3.399128, 3.867157 eV

Showing only first 2 kpts
 Kpt  Band  Eigenvalues  Occupancy
  0    24     -3.87693    1.98486
  0    25     -3.75777    1.84725
  0    26     -3.48104    0.09112
  0    27     -3.38114    0.01286

  1    24     -3.69468    1.54789
  1    25     -3.62966    0.96518
  1    26     -3.60268    0.70447
  1    27     -3.52082    0.19130


Fermi level: -3.63314

No gap

Forces in eV/Ang:
  0 Li    0.01154    0.00005   -0.27394
  1 Li   -0.00001    0.00019   -0.26362
  2 Li   -0.01154    0.00005   -0.27394
  3 Li    0.00442    0.00687   -0.27150
  4 Li   -0.00000    0.00218   -0.28310
  5 Li   -0.00441    0.00687   -0.27150
  6 Li    0.00417   -0.00705   -0.27160
  7 Li   -0.00000   -0.00272   -0.28236
  8 Li   -0.00416   -0.00706   -0.27160
  9 Li   -0.00000    0.01914    0.30743
 10 Li    0.01960   -0.00868    0.25210
 11 Li   -0.01960   -0.00867    0.25211
 12 Li    0.00000   -0.01908    0.30668
 13 Li    0.02119    0.00816    0.25174
 14 Li   -0.02119    0.00816    0.25174
 15 Li   -0.00000   -0.00039    0.24286
 16 Li   -0.03219    0.00063    0.26714
 17 Li    0.03220    0.00063    0.26714
 18 Li    0.06223    0.00065   -0.07390
 19 Li    0.00000   -0.00045    0.04526
 20 Li   -0.06223    0.00065   -0.07393
 21 Li   -0.02039   -0.02010    0.05087
 22 Li   -0.00000    0.01106    0.02541
 23 Li    0.02040   -0.02011    0.05089
 24 Li   -0.02067    0.01975    0.05093
 25 Li    0.00000   -0.01011    0.02782
 26 Li    0.02067    0.01976    0.05093
 27 Li   -0.00001    0.15937    0.07604
 28 Li    0.02992   -0.01746   -0.03199
 29 Li   -0.02994   -0.01749   -0.03201
 30 Li    0.00004   -0.15829    0.08221
 31 Li    0.02878    0.01777   -0.03028
 32 Li   -0.02877    0.01779   -0.03029
 33 Li   -0.00001    0.00210   -0.01208
 34 Li   -0.00749    0.00022   -0.01182
 35 Li    0.00750    0.00022   -0.01181
 36 B     0.00276    0.02562   -1.07110
 37 H     0.09319    0.03997    1.24899
 38 H    -0.09197    0.03635    1.25197
 39 H    -0.00500   -0.04118    1.17821
 40 N    -0.00046   -0.01819   -1.49426
 41 N     0.00041   -0.07334   -1.23990

System changes: positions 

Initializing position-dependent things.

Density initialized from wave functions
       .-----------------------.  
      /|                       |  
     / |                       |  
    /  |                       |  
   /   |                       |  
  /    |                       |  
 *     |                       |  
 |     |                       |  
 |     |                       |  
 |     |                       |  
 |     |                       |  
 |     |                       |  
 |     |                       |  
 |   H |                H      |  
 |B    |       Li      LiH     |  
 |N    |                       |  
 |     |     Li      Li      Li|  
 |     |  Li      Li      Ni   |  
 | Li  |   Li      Li          |  
 |     |Li      Li      Li     |  
 |     |                 Li    |  
 |   LLi     LLi     LLi       |  
 |     |  Li      Li      Li   |  
 | Li  |   Li      Li          |  
 |     |Li      Li      Li     |  
 Li    | Li      Li            |  
 |    Li      Li      Li       |  
 |     |                       |  
 |     |                       |  
 |     |                       |  
 |     |                       |  
 |     |                       |  
 |     |                       |  
 |     .-----------------------.  
 |    /                       /   
 |   /                       /    
 |  /                       /     
 | /                       /      
 |/                       /       
 *-----------------------*        

Positions:
   0 Li     1.617037    1.617037   10.000000    ( 0.0000,  0.0000,  0.0000)
   1 Li     4.851111    1.617037   10.000000    ( 0.0000,  0.0000,  0.0000)
   2 Li     8.085185    1.617037   10.000000    ( 0.0000,  0.0000,  0.0000)
   3 Li     1.617037    4.851111   10.000000    ( 0.0000,  0.0000,  0.0000)
   4 Li     4.851111    4.851111   10.000000    ( 0.0000,  0.0000,  0.0000)
   5 Li     8.085185    4.851111   10.000000    ( 0.0000,  0.0000,  0.0000)
   6 Li     1.617037    8.085185   10.000000    ( 0.0000,  0.0000,  0.0000)
   7 Li     4.851111    8.085185   10.000000    ( 0.0000,  0.0000,  0.0000)
   8 Li     8.085185    8.085185   10.000000    ( 0.0000,  0.0000,  0.0000)
   9 Li     0.000000    0.000000   11.617037    ( 0.0000,  0.0000,  0.0000)
  10 Li     3.234074    0.000000   11.617037    ( 0.0000,  0.0000,  0.0000)
  11 Li     6.468148    0.000000   11.617037    ( 0.0000,  0.0000,  0.0000)
  12 Li     0.000000    3.234074   11.617037    ( 0.0000,  0.0000,  0.0000)
  13 Li     3.234074    3.234074   11.617037    ( 0.0000,  0.0000,  0.0000)
  14 Li     6.468148    3.234074   11.617037    ( 0.0000,  0.0000,  0.0000)
  15 Li     0.000000    6.468148   11.617037    ( 0.0000,  0.0000,  0.0000)
  16 Li     3.234074    6.468148   11.617037    ( 0.0000,  0.0000,  0.0000)
  17 Li     6.468148    6.468148   11.617037    ( 0.0000,  0.0000,  0.0000)
  18 Li     1.620656    1.617079   13.465422    ( 0.0000,  0.0000,  0.0000)
  19 Li     4.851111    1.617005   13.472573    ( 0.0000,  0.0000,  0.0000)
  20 Li     8.081566    1.617079   13.465422    ( 0.0000,  0.0000,  0.0000)
  21 Li     1.615884    4.849901   13.472876    ( 0.0000,  0.0000,  0.0000)
  22 Li     4.851111    4.851829   13.471285    ( 0.0000,  0.0000,  0.0000)
  23 Li     8.086338    4.849900   13.472877    ( 0.0000,  0.0000,  0.0000)
  24 Li     1.615862    8.086370   13.472881    ( 0.0000,  0.0000,  0.0000)
  25 Li     4.851111    8.084530   13.471439    ( 0.0000,  0.0000,  0.0000)
  26 Li     8.086360    8.086371   13.472881    ( 0.0000,  0.0000,  0.0000)
  27 Li    -0.000001    0.009004   15.450870    ( 0.0000,  0.0000,  0.0000)
  28 Li     3.235954   -0.001116   15.443891    ( 0.0000,  0.0000,  0.0000)
  29 Li     6.466267   -0.001118   15.443890    ( 0.0000,  0.0000,  0.0000)
  30 Li     0.000002    3.225132   15.451245    ( 0.0000,  0.0000,  0.0000)
  31 Li     3.235896    3.235214   15.443984    ( 0.0000,  0.0000,  0.0000)
  32 Li     6.466326    3.235215   15.443983    ( 0.0000,  0.0000,  0.0000)
  33 Li    -0.000000    6.468292   15.445234    ( 0.0000,  0.0000,  0.0000)
  34 Li     3.233521    6.468158   15.445208    ( 0.0000,  0.0000,  0.0000)
  35 Li     6.468702    6.468158   15.445209    ( 0.0000,  0.0000,  0.0000)
  36 B      0.000258    1.622529   19.650712    ( 0.0000,  0.0000,  0.0000)
  37 H      1.055813    2.221647   19.734738    ( 0.0000,  0.0000,  0.0000)
  38 H     -1.053010    2.226141   19.734991    ( 0.0000,  0.0000,  0.0000)
  39 H     -0.000254    0.403084   19.730057    ( 0.0000,  0.0000,  0.0000)
  40 N     -0.000030    1.616501   17.044513    ( 0.0000,  0.0000,  0.0000)
  41 N      0.000019    1.612140   18.171778    ( 0.0000,  0.0000,  0.0000)

Unit cell:
           periodic     x           y           z      points  spacing
  1. axis:    yes    9.702222    0.000000    0.000000    60     0.1617
  2. axis:    yes    0.000000    9.702222    0.000000    60     0.1617
  3. axis:    no     0.000000    0.000000   26.601111   168     0.1583

  Lengths:   9.702222   9.702222  26.601111
  Angles:   90.000000  90.000000  90.000000

Effective grid spacing dv^(1/3) = 0.1606

     iter     time        total  log10-change:
                         energy  eigst   dens
iter:   1 17:42:14  -255.332185  -0.84
iter:   2 17:45:00  -255.329936  -1.09  -1.75
iter:   3 17:47:25  -255.302243  -1.68  -1.71
iter:   4 17:49:59  -255.299728  -2.25  -2.17
Writing to output.gpw (mode='')

iter:   5 17:52:31  -255.300789c -2.20  -2.33
iter:   6 17:55:09  -255.299433c -1.95  -2.30
iter:   7 17:57:37  -255.298989c -2.65  -2.52
iter:   8 18:00:12  -255.298764c -3.03  -2.62
iter:   9 18:02:42  -255.298744c -2.86  -2.71
Writing to output.gpw (mode='')

iter:  10 18:05:11  -255.298748c -3.43  -2.96
iter:  11 18:07:47  -255.298663c -3.56  -2.99
iter:  12 18:10:20  -255.298714c -3.45  -3.22
iter:  13 18:12:53  -255.298668c -3.73  -3.24
iter:  14 18:15:24  -255.298713c -4.13  -3.33
Writing to output.gpw (mode='')

iter:  15 18:18:02  -255.298679c -4.20  -3.38
iter:  16 18:20:29  -255.298678c -4.64  -3.50
iter:  17 18:22:55  -255.298695c -4.62  -3.51
iter:  18 18:25:26  -255.298703c -4.69  -3.54
iter:  19 18:27:54  -255.298717c -4.65  -3.78
Writing to output.gpw (mode='')

iter:  20 18:30:26  -255.298713c -5.27  -3.94
iter:  21 18:32:53  -255.298713c -5.13  -4.04c
iter:  22 18:35:29  -255.298716c -5.33  -4.12c
iter:  23 18:37:57  -255.298709c -5.22  -4.10c
iter:  24 18:40:27  -255.298710c -5.53  -4.41c
Writing to output.gpw (mode='')

iter:  25 18:42:55  -255.298714c -5.59  -4.48c
iter:  26 18:45:28  -255.298712c -5.63  -4.62c
iter:  27 18:48:00  -255.298713c -5.94  -4.60c
iter:  28 18:50:29  -255.298713c -6.01  -4.57c
iter:  29 18:52:58  -255.298713c -6.07  -4.57c
Writing to output.gpw (mode='')

iter:  30 18:55:26  -255.298713c -5.89  -4.52c
iter:  31 18:57:54  -255.298712c -5.91  -4.54c
iter:  32 19:00:32  -255.298715c -6.23  -4.42c
iter:  33 19:03:00  -255.298716c -6.32  -4.60c
iter:  34 19:05:33  -255.298716c -6.29  -4.62c
Writing to output.gpw (mode='')

iter:  35 19:08:11  -255.298716c -6.50  -4.51c
iter:  36 19:10:47  -255.298720c -6.34  -4.64c
iter:  37 19:13:23  -255.298719c -6.69  -4.66c
iter:  38 19:15:48  -255.298719c -6.42  -4.72c
iter:  39 19:18:21  -255.298720c -6.41  -4.70c
Writing to output.gpw (mode='')

iter:  40 19:21:02  -255.298718c -6.68  -4.68c
iter:  41 19:23:34  -255.298720c -6.80  -4.52c
iter:  42 19:26:02  -255.298719c -6.77  -4.88c
iter:  43 19:28:34  -255.298719c -7.11  -4.86c
iter:  44 19:31:04  -255.298719c -7.15  -5.06c
Writing to output.gpw (mode='')

iter:  45 19:33:30  -255.298720c -6.89  -5.07c
iter:  46 19:36:00  -255.298720c -6.95  -5.20c
iter:  47 19:38:24  -255.298720c -7.13  -5.22c
iter:  48 19:40:54  -255.298720c -7.19  -5.30c
iter:  49 19:43:21  -255.298720c -7.58c -5.60c

Converged after 49 iterations.

Dipole moment: (-14.864621, -4.434796, -0.280011) |e|*Ang

Energy contributions relative to reference atoms: (reference = -10970.764591)

Kinetic:       +114.675846
Potential:     -105.846310
External:        +0.000000
XC:            -264.370431
Entropy (-ST):   -0.143792
Local:           +0.314071
--------------------------
Free energy:   -255.370616
Extrapolated:  -255.298720

Dipole-layer corrected work functions: 3.400681, 3.938958 eV

Showing only first 2 kpts
 Kpt  Band  Eigenvalues  Occupancy
  0    24     -3.91292    1.98465
  0    25     -3.79137    1.83833
  0    26     -3.51878    0.09298
  0    27     -3.42160    0.01387

  1    24     -3.73293    1.55884
  1    25     -3.66577    0.95953
  1    26     -3.63935    0.70438
  1    27     -3.55432    0.18058


Fermi level: -3.66982

No gap
Writing to output.gpw (mode='')


Forces in eV/Ang:
  0 Li    0.01148    0.00004   -0.27410
  1 Li   -0.00001    0.00016   -0.26291
  2 Li   -0.01148    0.00004   -0.27409
  3 Li    0.00471    0.00704   -0.27188
  4 Li   -0.00000    0.00290   -0.28373
  5 Li   -0.00471    0.00704   -0.27188
  6 Li    0.00448   -0.00722   -0.27199
  7 Li   -0.00000   -0.00340   -0.28302
  8 Li   -0.00448   -0.00722   -0.27198
  9 Li   -0.00000    0.01927    0.30882
 10 Li    0.02013   -0.00922    0.25220
 11 Li   -0.02013   -0.00921    0.25221
 12 Li    0.00000   -0.01921    0.30804
 13 Li    0.02163    0.00872    0.25188
 14 Li   -0.02163    0.00872    0.25188
 15 Li   -0.00000   -0.00037    0.24305
 16 Li   -0.03287    0.00062    0.26761
 17 Li    0.03287    0.00061    0.26762
 18 Li    0.06262    0.00062   -0.07428
 19 Li    0.00000   -0.00038    0.04293
 20 Li   -0.06263    0.00063   -0.07430
 21 Li   -0.02103   -0.01984    0.04902
 22 Li   -0.00000    0.01023    0.02455
 23 Li    0.02103   -0.01985    0.04903
 24 Li   -0.02125    0.01952    0.04904
 25 Li    0.00000   -0.00937    0.02683
 26 Li    0.02125    0.01952    0.04904
 27 Li   -0.00001    0.16217    0.06793
 28 Li    0.02866   -0.01643   -0.03002
 29 Li   -0.02869   -0.01646   -0.03003
 30 Li    0.00003   -0.16119    0.07411
 31 Li    0.02739    0.01670   -0.02813
 32 Li   -0.02739    0.01672   -0.02814
 33 Li   -0.00001    0.00186   -0.01186
 34 Li   -0.00609    0.00023   -0.01125
 35 Li    0.00610    0.00023   -0.01124
 36 B     0.00165    0.01494   -1.18360
 37 H    -0.08890   -0.06325    1.01179
 38 H     0.09242   -0.06793    1.01257
 39 H    -0.00434    0.17011    0.96173
 40 N    -0.00024   -0.02259   -0.92991
 41 N     0.00014    0.02858   -0.91031

System changes: positions 

Initializing position-dependent things.

Density initialized from wave functions
       .-----------------------.  
      /|                       |  
     / |                       |  
    /  |                       |  
   /   |                       |  
  /    |                       |  
 *     |                       |  
 |     |                       |  
 |     |                       |  
 |     |                       |  
 |     |                       |  
 |     |                       |  
 |     |                       |  
 |   H |                H      |  
 |B    |       Li      LiH     |  
 |     |                       |  
 |N    |     Li      Li      Li|  
 |     |  Li      Li      Ni   |  
 | Li  |   Li      Li          |  
 |     |Li      Li      Li     |  
 |     |                 Li    |  
 |   LLi     LLi     LLi       |  
 |     |  Li      Li      Li   |  
 | Li  |   Li      Li          |  
 |     |Li      Li      Li     |  
 Li    | Li      Li            |  
 |    Li      Li      Li       |  
 |     |                       |  
 |     |                       |  
 |     |                       |  
 |     |                       |  
 |     |                       |  
 |     |                       |  
 |     .-----------------------.  
 |    /                       /   
 |   /                       /    
 |  /                       /     
 | /                       /      
 |/                       /       
 *-----------------------*        

Positions:
   0 Li     1.617037    1.617037   10.000000    ( 0.0000,  0.0000,  0.0000)
   1 Li     4.851111    1.617037   10.000000    ( 0.0000,  0.0000,  0.0000)
   2 Li     8.085185    1.617037   10.000000    ( 0.0000,  0.0000,  0.0000)
   3 Li     1.617037    4.851111   10.000000    ( 0.0000,  0.0000,  0.0000)
   4 Li     4.851111    4.851111   10.000000    ( 0.0000,  0.0000,  0.0000)
   5 Li     8.085185    4.851111   10.000000    ( 0.0000,  0.0000,  0.0000)
   6 Li     1.617037    8.085185   10.000000    ( 0.0000,  0.0000,  0.0000)
   7 Li     4.851111    8.085185   10.000000    ( 0.0000,  0.0000,  0.0000)
   8 Li     8.085185    8.085185   10.000000    ( 0.0000,  0.0000,  0.0000)
   9 Li     0.000000    0.000000   11.617037    ( 0.0000,  0.0000,  0.0000)
  10 Li     3.234074    0.000000   11.617037    ( 0.0000,  0.0000,  0.0000)
  11 Li     6.468148    0.000000   11.617037    ( 0.0000,  0.0000,  0.0000)
  12 Li     0.000000    3.234074   11.617037    ( 0.0000,  0.0000,  0.0000)
  13 Li     3.234074    3.234074   11.617037    ( 0.0000,  0.0000,  0.0000)
  14 Li     6.468148    3.234074   11.617037    ( 0.0000,  0.0000,  0.0000)
  15 Li     0.000000    6.468148   11.617037    ( 0.0000,  0.0000,  0.0000)
  16 Li     3.234074    6.468148   11.617037    ( 0.0000,  0.0000,  0.0000)
  17 Li     6.468148    6.468148   11.617037    ( 0.0000,  0.0000,  0.0000)
  18 Li     1.622275    1.617096   13.463500    ( 0.0000,  0.0000,  0.0000)
  19 Li     4.851111    1.616994   13.473738    ( 0.0000,  0.0000,  0.0000)
  20 Li     8.079947    1.617096   13.463498    ( 0.0000,  0.0000,  0.0000)
  21 Li     1.615349    4.849378   13.474191    ( 0.0000,  0.0000,  0.0000)
  22 Li     4.851111    4.852112   13.471940    ( 0.0000,  0.0000,  0.0000)
  23 Li     8.086873    4.849377   13.474192    ( 0.0000,  0.0000,  0.0000)
  24 Li     1.615320    8.086884   13.474197    ( 0.0000,  0.0000,  0.0000)
  25 Li     4.851111    8.084270   13.472157    ( 0.0000,  0.0000,  0.0000)
  26 Li     8.086902    8.086884   13.474197    ( 0.0000,  0.0000,  0.0000)
  27 Li    -0.000001    0.013141   15.452777    ( 0.0000,  0.0000,  0.0000)
  28 Li     3.236730   -0.001566   15.443068    ( 0.0000,  0.0000,  0.0000)
  29 Li     6.465490   -0.001569   15.443067    ( 0.0000,  0.0000,  0.0000)
  30 Li     0.000003    3.221021   15.453314    ( 0.0000,  0.0000,  0.0000)
  31 Li     3.236641    3.235672   15.443207    ( 0.0000,  0.0000,  0.0000)
  32 Li     6.465582    3.235674   15.443206    ( 0.0000,  0.0000,  0.0000)
  33 Li    -0.000001    6.468345   15.444925    ( 0.0000,  0.0000,  0.0000)
  34 Li     3.233333    6.468164   15.444905    ( 0.0000,  0.0000,  0.0000)
  35 Li     6.468890    6.468164   15.444906    ( 0.0000,  0.0000,  0.0000)
  36 B      0.000326    1.623726   19.634063    ( 0.0000,  0.0000,  0.0000)
  37 H      1.057878    2.222459   19.765327    ( 0.0000,  0.0000,  0.0000)
  38 H     -1.054996    2.226845   19.765630    ( 0.0000,  0.0000,  0.0000)
  39 H     -0.000379    0.402012   19.759111    ( 0.0000,  0.0000,  0.0000)
  40 N     -0.000038    1.616042   17.004515    ( 0.0000,  0.0000,  0.0000)
  41 N      0.000024    1.611978   18.136480    ( 0.0000,  0.0000,  0.0000)

Unit cell:
           periodic     x           y           z      points  spacing
  1. axis:    yes    9.702222    0.000000    0.000000    60     0.1617
  2. axis:    yes    0.000000    9.702222    0.000000    60     0.1617
  3. axis:    no     0.000000    0.000000   26.601111   168     0.1583

  Lengths:   9.702222   9.702222  26.601111
  Angles:   90.000000  90.000000  90.000000

Effective grid spacing dv^(1/3) = 0.1606

     iter     time        total  log10-change:
                         energy  eigst   dens
iter:   1 19:46:25  -255.468887  -0.86
iter:   2 19:48:50  -255.469399  -1.25  -1.91
iter:   3 19:51:20  -255.458642c -1.95  -1.89
iter:   4 19:53:50  -255.456950c -2.40  -2.22
Writing to output.gpw (mode='')

iter:   5 19:56:21  -255.459166c -2.19  -2.38
iter:   6 19:58:56  -255.456608c -2.17  -2.29
iter:   7 20:01:27  -255.455992c -2.80  -2.59
iter:   8 20:04:01  -255.455861c -3.08  -2.72
iter:   9 20:06:35  -255.456073c -3.09  -2.83
Writing to output.gpw (mode='')

iter:  10 20:09:15  -255.456053c -3.62  -3.01
iter:  11 20:11:54  -255.455942c -3.80  -3.03
iter:  12 20:14:32  -255.456046c -3.69  -3.25
iter:  13 20:17:03  -255.455995c -4.17  -3.28
iter:  14 20:19:40  -255.455945c -4.04  -3.52
Writing to output.gpw (mode='')

iter:  15 20:22:22  -255.455961c -4.76  -3.56
iter:  16 20:24:59  -255.455971c -4.85  -3.58
iter:  17 20:27:34  -255.455980c -4.97  -3.67
iter:  18 20:30:02  -255.455981c -5.08  -3.83
iter:  19 20:32:31  -255.455986c -5.34  -3.86
Writing to output.gpw (mode='')

iter:  20 20:35:09  -255.455988c -5.37  -3.89
iter:  21 20:37:39  -255.455989c -5.59  -3.95
iter:  22 20:40:08  -255.455989c -5.43  -4.03c
iter:  23 20:42:37  -255.455991c -5.61  -4.17c
iter:  24 20:45:09  -255.455987c -5.70  -4.18c
Writing to output.gpw (mode='')

iter:  25 20:47:43  -255.455985c -5.87  -4.25c
iter:  26 20:50:06  -255.455986c -6.28  -4.42c
iter:  27 20:52:31  -255.455987c -5.97  -4.61c
iter:  28 20:55:00  -255.455988c -6.33  -4.70c
iter:  29 20:57:30  -255.455989c -6.16  -4.79c
Writing to output.gpw (mode='')

iter:  30 21:00:01  -255.455989c -6.58  -4.86c
iter:  31 21:02:28  -255.455989c -6.64  -4.84c
iter:  32 21:04:55  -255.455989c -6.66  -4.84c
iter:  33 21:07:26  -255.455988c -6.55  -4.82c
iter:  34 21:09:56  -255.455988c -6.68  -4.80c
Writing to output.gpw (mode='')

iter:  35 21:12:36  -255.455989c -6.69  -4.77c
iter:  36 21:15:15  -255.455988c -7.09  -4.80c
iter:  37 21:17:44  -255.455989c -7.35  -4.77c
iter:  38 21:20:21  -255.455988c -6.91  -4.78c
iter:  39 21:22:56  -255.455989c -7.15  -4.78c
Writing to output.gpw (mode='')

iter:  40 21:25:29  -255.455990c -7.00  -4.81c
iter:  41 21:27:59  -255.455989c -7.39  -4.74c
iter:  42 21:30:26  -255.455989c -7.38  -4.79c
iter:  43 21:33:01  -255.455990c -7.55c -4.80c

Converged after 43 iterations.

Dipole moment: (-14.873622, -4.435357, -0.317811) |e|*Ang

Energy contributions relative to reference atoms: (reference = -10970.764591)

Kinetic:       +112.936991
Potential:     -104.547349
External:        +0.000000
XC:            -264.086324
Entropy (-ST):   -0.144399
Local:           +0.312892
--------------------------
Free energy:   -255.528189
Extrapolated:  -255.455990

Dipole-layer corrected work functions: 3.402236, 4.013178 eV

Showing only first 2 kpts
 Kpt  Band  Eigenvalues  Occupancy
  0    24     -3.95012    1.98444
  0    25     -3.82611    1.82871
  0    26     -3.55773    0.09490
  0    27     -3.46633    0.01589

  1    24     -3.77231    1.56897
  1    25     -3.70304    0.95336
  1    26     -3.67710    0.70311
  1    27     -3.58915    0.17080


Fermi level: -3.70771

No gap
Writing to output.gpw (mode='')


Forces in eV/Ang:
  0 Li    0.01139    0.00004   -0.27421
  1 Li   -0.00001    0.00014   -0.26222
  2 Li   -0.01139    0.00004   -0.27421
  3 Li    0.00501    0.00722   -0.27231
  4 Li   -0.00000    0.00366   -0.28443
  5 Li   -0.00501    0.00723   -0.27231
  6 Li    0.00479   -0.00740   -0.27243
  7 Li   -0.00000   -0.00417   -0.28373
  8 Li   -0.00479   -0.00741   -0.27243
  9 Li   -0.00000    0.01936    0.31018
 10 Li    0.02072   -0.00986    0.25243
 11 Li   -0.02072   -0.00986    0.25244
 12 Li    0.00000   -0.01931    0.30934
 13 Li    0.02215    0.00939    0.25211
 14 Li   -0.02214    0.00939    0.25211
 15 Li   -0.00000   -0.00038    0.24344
 16 Li   -0.03355    0.00061    0.26829
 17 Li    0.03355    0.00061    0.26829
 18 Li    0.06245    0.00061   -0.07400
 19 Li    0.00000   -0.00029    0.04018
 20 Li   -0.06245    0.00061   -0.07403
 21 Li   -0.02158   -0.01950    0.04684
 22 Li   -0.00000    0.00930    0.02350
 23 Li    0.02158   -0.01951    0.04685
 24 Li   -0.02175    0.01920    0.04678
 25 Li   -0.00000   -0.00850    0.02556
 26 Li    0.02175    0.01921    0.04678
 27 Li   -0.00001    0.16168    0.05652
 28 Li    0.02721   -0.01523   -0.02783
 29 Li   -0.02724   -0.01526   -0.02784
 30 Li    0.00003   -0.16020    0.06210
 31 Li    0.02593    0.01547   -0.02589
 32 Li   -0.02593    0.01550   -0.02590
 33 Li   -0.00001    0.00172   -0.01138
 34 Li   -0.00460    0.00022   -0.01063
 35 Li    0.00461    0.00022   -0.01062
 36 B     0.00109    0.00509   -1.10545
 37 H    -0.23133   -0.14614    0.78364
 38 H     0.23564   -0.15339    0.78498
 39 H    -0.00356    0.33555    0.72542
 40 N    -0.00021   -0.02430   -0.58155
 41 N     0.00053   -0.02454   -0.64647

System changes: positions 

Initializing position-dependent things.

Density initialized from wave functions
       .-----------------------.  
      /|                       |  
     / |                       |  
    /  |                       |  
   /   |                       |  
  /    |                       |  
 *     |                       |  
 |     |                       |  
 |     |                       |  
 |     |                       |  
 |     |                       |  
 |     |                       |  
 |     |                       |  
 |   H |                H      |  
 |B    |       Li      LiH     |  
 |     |                       |  
 |N    |     Li      Li      Li|  
 |     |  Li      Li      Ni   |  
 | Li  |   Li      Li          |  
 |     |Li      Li      Li     |  
 |     |                 Li    |  
 |   LLi     LLi     LLi       |  
 |     |  Li      Li      Li   |  
 | Li  |   Li      Li          |  
 |     |Li      Li      Li     |  
 Li    | Li      Li            |  
 |    Li      Li      Li       |  
 |     |                       |  
 |     |                       |  
 |     |                       |  
 |     |                       |  
 |     |                       |  
 |     |                       |  
 |     .-----------------------.  
 |    /                       /   
 |   /                       /    
 |  /                       /     
 | /                       /      
 |/                       /       
 *-----------------------*        

Positions:
   0 Li     1.617037    1.617037   10.000000    ( 0.0000,  0.0000,  0.0000)
   1 Li     4.851111    1.617037   10.000000    ( 0.0000,  0.0000,  0.0000)
   2 Li     8.085185    1.617037   10.000000    ( 0.0000,  0.0000,  0.0000)
   3 Li     1.617037    4.851111   10.000000    ( 0.0000,  0.0000,  0.0000)
   4 Li     4.851111    4.851111   10.000000    ( 0.0000,  0.0000,  0.0000)
   5 Li     8.085185    4.851111   10.000000    ( 0.0000,  0.0000,  0.0000)
   6 Li     1.617037    8.085185   10.000000    ( 0.0000,  0.0000,  0.0000)
   7 Li     4.851111    8.085185   10.000000    ( 0.0000,  0.0000,  0.0000)
   8 Li     8.085185    8.085185   10.000000    ( 0.0000,  0.0000,  0.0000)
   9 Li     0.000000    0.000000   11.617037    ( 0.0000,  0.0000,  0.0000)
  10 Li     3.234074    0.000000   11.617037    ( 0.0000,  0.0000,  0.0000)
  11 Li     6.468148    0.000000   11.617037    ( 0.0000,  0.0000,  0.0000)
  12 Li     0.000000    3.234074   11.617037    ( 0.0000,  0.0000,  0.0000)
  13 Li     3.234074    3.234074   11.617037    ( 0.0000,  0.0000,  0.0000)
  14 Li     6.468148    3.234074   11.617037    ( 0.0000,  0.0000,  0.0000)
  15 Li     0.000000    6.468148   11.617037    ( 0.0000,  0.0000,  0.0000)
  16 Li     3.234074    6.468148   11.617037    ( 0.0000,  0.0000,  0.0000)
  17 Li     6.468148    6.468148   11.617037    ( 0.0000,  0.0000,  0.0000)
  18 Li     1.624203    1.617116   13.461212    ( 0.0000,  0.0000,  0.0000)
  19 Li     4.851111    1.616982   13.475069    ( 0.0000,  0.0000,  0.0000)
  20 Li     8.078019    1.617116   13.461210    ( 0.0000,  0.0000,  0.0000)
  21 Li     1.614700    4.848762   13.475714    ( 0.0000,  0.0000,  0.0000)
  22 Li     4.851111    4.852431   13.472699    ( 0.0000,  0.0000,  0.0000)
  23 Li     8.087522    4.848761   13.475715    ( 0.0000,  0.0000,  0.0000)
  24 Li     1.614664    8.087490   13.475720    ( 0.0000,  0.0000,  0.0000)
  25 Li     4.851111    8.083979   13.472986    ( 0.0000,  0.0000,  0.0000)
  26 Li     8.087558    8.087490   13.475720    ( 0.0000,  0.0000,  0.0000)
  27 Li    -0.000001    0.018069   15.454814    ( 0.0000,  0.0000,  0.0000)
  28 Li     3.237625   -0.002078   15.442131    ( 0.0000,  0.0000,  0.0000)
  29 Li     6.464595   -0.002081   15.442130    ( 0.0000,  0.0000,  0.0000)
  30 Li     0.000004    3.216134   15.455534    ( 0.0000,  0.0000,  0.0000)
  31 Li     3.237498    3.236192   15.442328    ( 0.0000,  0.0000,  0.0000)
  32 Li     6.464725    3.236195   15.442326    ( 0.0000,  0.0000,  0.0000)
  33 Li    -0.000001    6.468406   15.444567    ( 0.0000,  0.0000,  0.0000)
  34 Li     3.233139    6.468171   15.444557    ( 0.0000,  0.0000,  0.0000)
  35 Li     6.469084    6.468171   15.444559    ( 0.0000,  0.0000,  0.0000)
  36 B      0.000395    1.624890   19.614403    ( 0.0000,  0.0000,  0.0000)
  37 H      1.057190    2.221603   19.797018    ( 0.0000,  0.0000,  0.0000)
  38 H     -1.054198    2.225810   19.797389    ( 0.0000,  0.0000,  0.0000)
  39 H     -0.000513    0.404430   19.788848    ( 0.0000,  0.0000,  0.0000)
  40 N     -0.000048    1.615449   16.964520    ( 0.0000,  0.0000,  0.0000)
  41 N      0.000037    1.610906   18.101062    ( 0.0000,  0.0000,  0.0000)

Unit cell:
           periodic     x           y           z      points  spacing
  1. axis:    yes    9.702222    0.000000    0.000000    60     0.1617
  2. axis:    yes    0.000000    9.702222    0.000000    60     0.1617
  3. axis:    no     0.000000    0.000000   26.601111   168     0.1583

  Lengths:   9.702222   9.702222  26.601111
  Angles:   90.000000  90.000000  90.000000

Effective grid spacing dv^(1/3) = 0.1606

     iter     time        total  log10-change:
                         energy  eigst   dens
iter:   1 21:36:13  -255.582085  -0.87
iter:   2 21:38:54  -255.584324  -1.30  -1.95
[...]
  Angles:   90.000000  90.000000  90.000000

Effective grid spacing dv^(1/3) = 0.1606

     iter     time        total  log10-change:
                         energy  eigst   dens
iter:   1 14:27:54  -255.750467  -2.94
iter:   2 14:30:24  -255.750849  -3.52  -2.54
iter:   3 14:32:48  -255.750219c -4.44  -2.78
iter:   4 14:35:12  -255.750058c -4.71  -3.22
Writing to output.gpw (mode='')

iter:   5 14:37:40  -255.750109c -4.80  -3.38
iter:   6 14:40:06  -255.750097c -4.24  -3.56
iter:   7 14:42:30  -255.750053c -5.36  -3.73
iter:   8 14:44:56  -255.750029c -5.18  -3.91
iter:   9 14:47:18  -255.750054c -5.40  -3.89
Writing to output.gpw (mode='')

iter:  10 14:49:52  -255.750037c -5.87  -4.05c
iter:  11 14:52:33  -255.750052c -5.85  -4.07c
iter:  12 14:54:58  -255.750041c -6.02  -4.28c
iter:  13 14:57:25  -255.750048c -6.59  -4.42c
iter:  14 14:59:53  -255.750047c -6.40  -4.57c
Writing to output.gpw (mode='')

iter:  15 15:02:27  -255.750049c -6.38  -4.70c
iter:  16 15:05:01  -255.750050c -6.66  -4.73c
iter:  17 15:07:39  -255.750048c -7.07  -4.71c
iter:  18 15:10:12  -255.750048c -7.26  -4.87c
iter:  19 15:12:39  -255.750049c -7.32  -4.95c
Writing to output.gpw (mode='')

iter:  20 15:15:11  -255.750048c -7.46c -5.16c

Converged after 20 iterations.

Dipole moment: (-15.079375, -5.839231, -0.430670) |e|*Ang

Energy contributions relative to reference atoms: (reference = -10970.764591)

Kinetic:       +112.405146
Potential:     -103.831489
External:        +0.000000
XC:            -264.568123
Entropy (-ST):   -0.143127
Local:           +0.315982
--------------------------
Free energy:   -255.821611
Extrapolated:  -255.750048

Dipole-layer corrected work functions: 3.407871, 4.235765 eV

Showing only first 2 kpts
 Kpt  Band  Eigenvalues  Occupancy
  0    24     -4.06704    1.98528
  0    25     -3.93810    1.82195
  0    26     -3.67269    0.09643
  0    27     -3.60254    0.02460

  1    24     -3.89809    1.64266
  1    25     -3.81294    0.91146
  1    26     -3.78587    0.65525
  1    27     -3.69296    0.14124


Fermi level: -3.82182

No gap

Forces in eV/Ang:
  0 Li    0.01494    0.00029   -0.27761
  1 Li   -0.00000    0.00005   -0.25010
  2 Li   -0.01493    0.00029   -0.27761
  3 Li    0.00582    0.00454   -0.27347
  4 Li    0.00000    0.00914   -0.29280
  5 Li   -0.00582    0.00455   -0.27346
  6 Li    0.00557   -0.00516   -0.27350
  7 Li   -0.00000   -0.01065   -0.29198
  8 Li   -0.00556   -0.00516   -0.27350
  9 Li    0.00000    0.02078    0.31430
 10 Li    0.04254   -0.04545    0.23622
 11 Li   -0.04256   -0.04547    0.23619
 12 Li    0.00000   -0.01929    0.31239
 13 Li    0.04454    0.04655    0.23434
 14 Li   -0.04455    0.04657    0.23432
 15 Li   -0.00001   -0.00116    0.26597
 16 Li   -0.05806    0.00098    0.30263
 17 Li    0.05805    0.00097    0.30265
 18 Li   -0.00253    0.00058   -0.00473
 19 Li    0.00000   -0.00038   -0.00263
 20 Li    0.00250    0.00058   -0.00470
 21 Li    0.00435    0.00966   -0.00416
 22 Li    0.00001   -0.00454    0.00026
 23 Li   -0.00438    0.00967   -0.00415
 24 Li    0.00324   -0.00675   -0.00265
 25 Li    0.00002    0.00489    0.00079
 26 Li   -0.00326   -0.00676   -0.00265
 27 Li   -0.00001    0.00542    0.01622
 28 Li   -0.00385    0.00446   -0.00185
 29 Li    0.00381    0.00446   -0.00188
 30 Li    0.00005    0.00300    0.01645
 31 Li   -0.00373   -0.00438   -0.00239
 32 Li    0.00371   -0.00439   -0.00242
 33 Li   -0.00000    0.00322    0.01224
 34 Li    0.00291   -0.00028   -0.00376
 35 Li   -0.00291   -0.00028   -0.00377
 36 B    -0.00011    0.00049    0.00976
 37 H    -0.00015   -0.00128   -0.00941
 38 H    -0.00044   -0.00086   -0.01415
 39 H    -0.00189    0.01530    0.02562
 40 N    -0.00051   -0.02472    0.00683
 41 N     0.00204    0.05296    0.00869

System changes: positions 

Initializing position-dependent things.

Density initialized from wave functions
       .-----------------------.  
      /|                       |  
     / |                       |  
    /  |                       |  
   /   |                       |  
  /    |                       |  
 *     |                       |  
 |     |                       |  
 |     |                       |  
 |     |                       |  
 |     |                       |  
 |     |                       |  
 |     |                       |  
 |   H |                H      |  
 HB    |       Li      Li      |  
 |     |                       |  
 |N    |     Li      Li      Li|  
 |N    |  Li      Li      Li   |  
 |     |   Li      Li      Li  |  
 |     |Li      Li      Li     |  
 |     |                 Li    |  
 |   LLi     LLi     LLi       |  
 |     |  Li      Li      Li   |  
 | Li  |   Li      Li          |  
 |     |Li      Li      Li     |  
 Li    | Li      Li            |  
 |    Li      Li      Li       |  
 |     |                       |  
 |     |                       |  
 |     |                       |  
 |     |                       |  
 |     |                       |  
 |     |                       |  
 |     .-----------------------.  
 |    /                       /   
 |   /                       /    
 |  /                       /     
 | /                       /      
 |/                       /       
 *-----------------------*        

Positions:
   0 Li     1.617037    1.617037   10.000000    ( 0.0000,  0.0000,  0.0000)
   1 Li     4.851111    1.617037   10.000000    ( 0.0000,  0.0000,  0.0000)
   2 Li     8.085185    1.617037   10.000000    ( 0.0000,  0.0000,  0.0000)
   3 Li     1.617037    4.851111   10.000000    ( 0.0000,  0.0000,  0.0000)
   4 Li     4.851111    4.851111   10.000000    ( 0.0000,  0.0000,  0.0000)
   5 Li     8.085185    4.851111   10.000000    ( 0.0000,  0.0000,  0.0000)
   6 Li     1.617037    8.085185   10.000000    ( 0.0000,  0.0000,  0.0000)
   7 Li     4.851111    8.085185   10.000000    ( 0.0000,  0.0000,  0.0000)
   8 Li     8.085185    8.085185   10.000000    ( 0.0000,  0.0000,  0.0000)
   9 Li     0.000000    0.000000   11.617037    ( 0.0000,  0.0000,  0.0000)
  10 Li     3.234074    0.000000   11.617037    ( 0.0000,  0.0000,  0.0000)
  11 Li     6.468148    0.000000   11.617037    ( 0.0000,  0.0000,  0.0000)
  12 Li     0.000000    3.234074   11.617037    ( 0.0000,  0.0000,  0.0000)
  13 Li     3.234074    3.234074   11.617037    ( 0.0000,  0.0000,  0.0000)
  14 Li     6.468148    3.234074   11.617037    ( 0.0000,  0.0000,  0.0000)
  15 Li     0.000000    6.468148   11.617037    ( 0.0000,  0.0000,  0.0000)
  16 Li     3.234074    6.468148   11.617037    ( 0.0000,  0.0000,  0.0000)
  17 Li     6.468148    6.468148   11.617037    ( 0.0000,  0.0000,  0.0000)
  18 Li     1.684905    1.618949   13.386480    ( 0.0000,  0.0000,  0.0000)
  19 Li     4.851112    1.617545   13.480142    ( 0.0000,  0.0000,  0.0000)
  20 Li     8.017285    1.618945   13.386415    ( 0.0000,  0.0000,  0.0000)
  21 Li     1.588722    4.831034   13.512818    ( 0.0000,  0.0000,  0.0000)
  22 Li     4.851100    4.855263   13.478370    ( 0.0000,  0.0000,  0.0000)
  23 Li     8.113487    4.831031   13.512812    ( 0.0000,  0.0000,  0.0000)
  24 Li     1.588386    8.106596   13.512304    ( 0.0000,  0.0000,  0.0000)
  25 Li     4.851103    8.081815   13.478514    ( 0.0000,  0.0000,  0.0000)
  26 Li     8.113824    8.106601   13.512302    ( 0.0000,  0.0000,  0.0000)
  27 Li    -0.000084    0.188172   15.407741    ( 0.0000,  0.0000,  0.0000)
  28 Li     3.249225   -0.000468   15.420578    ( 0.0000,  0.0000,  0.0000)
  29 Li     6.452996   -0.000472   15.420630    ( 0.0000,  0.0000,  0.0000)
  30 Li    -0.000107    3.068224   15.408084    ( 0.0000,  0.0000,  0.0000)
  31 Li     3.249913    3.235126   15.421534    ( 0.0000,  0.0000,  0.0000)
  32 Li     6.452289    3.235135   15.421575    ( 0.0000,  0.0000,  0.0000)
  33 Li    -0.000009    6.473639   15.470697    ( 0.0000,  0.0000,  0.0000)
  34 Li     3.244723    6.468123   15.438763    ( 0.0000,  0.0000,  0.0000)
  35 Li     6.457520    6.468121   15.438777    ( 0.0000,  0.0000,  0.0000)
  36 B      0.001689    1.652157   19.575303    ( 0.0000,  0.0000,  0.0000)
  37 H      1.020496    2.209908   19.916023    ( 0.0000,  0.0000,  0.0000)
  38 H     -1.014520    2.214131   19.916597    ( 0.0000,  0.0000,  0.0000)
  39 H      0.000024    0.470818   19.858174    ( 0.0000,  0.0000,  0.0000)
  40 N      0.000281    1.616008   16.927343    ( 0.0000,  0.0000,  0.0000)
  41 N      0.000846    1.642229   18.070438    ( 0.0000,  0.0000,  0.0000)

Unit cell:
           periodic     x           y           z      points  spacing
  1. axis:    yes    9.702222    0.000000    0.000000    60     0.1617
  2. axis:    yes    0.000000    9.702222    0.000000    60     0.1617
  3. axis:    no     0.000000    0.000000   26.601111   168     0.1583

  Lengths:   9.702222   9.702222  26.601111
  Angles:   90.000000  90.000000  90.000000

Effective grid spacing dv^(1/3) = 0.1606

     iter     time        total  log10-change:
                         energy  eigst   dens
iter:   1 15:18:34  -255.750573  -3.08
iter:   2 15:21:05  -255.750825  -3.75  -2.64
iter:   3 15:23:34  -255.750440c -4.46  -2.95
iter:   4 15:26:03  -255.750250c -4.68  -3.28
Writing to output.gpw (mode='')

iter:   5 15:28:31  -255.750277c -4.85  -3.45
iter:   6 15:30:54  -255.750256c -4.47  -3.64
iter:   7 15:33:19  -255.750233c -5.35  -3.79
iter:   8 15:35:54  -255.750227c -5.33  -3.97
iter:   9 15:38:36  -255.750242c -5.38  -3.99
Writing to output.gpw (mode='')

iter:  10 15:41:02  -255.750228c -5.95  -4.10c
iter:  11 15:43:41  -255.750227c -5.80  -4.10c
iter:  12 15:46:25  -255.750225c -6.19  -4.37c
iter:  13 15:48:56  -255.750231c -6.40  -4.58c
iter:  14 15:51:26  -255.750228c -6.63  -4.60c
Writing to output.gpw (mode='')

iter:  15 15:54:12  -255.750231c -6.81  -4.77c
iter:  16 15:56:35  -255.750231c -6.96  -4.82c
iter:  17 15:58:59  -255.750230c -7.26  -4.88c
iter:  18 16:01:28  -255.750230c -7.38  -5.02c
iter:  19 16:03:59  -255.750230c -7.63c -5.17c

Converged after 19 iterations.

Dipole moment: (-15.076022, -5.849384, -0.429921) |e|*Ang

Energy contributions relative to reference atoms: (reference = -10970.764591)

Kinetic:       +112.457323
Potential:     -103.872646
External:        +0.000000
XC:            -264.579310
Entropy (-ST):   -0.143083
Local:           +0.315944
--------------------------
Free energy:   -255.821772
Extrapolated:  -255.750230

Dipole-layer corrected work functions: 3.407856, 4.234311 eV

Showing only first 2 kpts
 Kpt  Band  Eigenvalues  Occupancy
  0    24     -4.06646    1.98533
  0    25     -3.93756    1.82258
  0    26     -3.67197    0.09648
  0    27     -3.60149    0.02445

  1    24     -3.89727    1.64219
  1    25     -3.81214    0.91077
  1    26     -3.78513    0.65518
  1    27     -3.69229    0.14143


Fermi level: -3.82108

No gap
Writing to output.gpw (mode='')


Forces in eV/Ang:
  0 Li    0.01491    0.00030   -0.27756
  1 Li   -0.00001    0.00004   -0.25010
  2 Li   -0.01490    0.00030   -0.27756
  3 Li    0.00585    0.00458   -0.27340
  4 Li    0.00000    0.00905   -0.29275
  5 Li   -0.00584    0.00458   -0.27340
  6 Li    0.00559   -0.00522   -0.27341
  7 Li    0.00000   -0.01062   -0.29193
  8 Li   -0.00558   -0.00523   -0.27341
  9 Li    0.00000    0.02054    0.31420
 10 Li    0.04202   -0.04516    0.23596
 11 Li   -0.04204   -0.04519    0.23593
 12 Li    0.00000   -0.01897    0.31226
 13 Li    0.04407    0.04631    0.23405
 14 Li   -0.04408    0.04633    0.23402
 15 Li   -0.00001   -0.00116    0.26506
 16 Li   -0.05751    0.00105    0.30194
 17 Li    0.05749    0.00104    0.30196
 18 Li   -0.00170    0.00059   -0.00552
 19 Li    0.00000   -0.00041   -0.00089
 20 Li    0.00167    0.00059   -0.00549
 21 Li    0.00360    0.00900   -0.00277
 22 Li    0.00001   -0.00410    0.00115
 23 Li   -0.00362    0.00900   -0.00276
 24 Li    0.00248   -0.00609   -0.00132
 25 Li    0.00001    0.00449    0.00174
 26 Li   -0.00250   -0.00609   -0.00132
 27 Li   -0.00001    0.00758    0.01820
 28 Li   -0.00292    0.00357   -0.00233
 29 Li    0.00288    0.00357   -0.00236
 30 Li    0.00005    0.00088    0.01915
 31 Li   -0.00283   -0.00348   -0.00296
 32 Li    0.00280   -0.00348   -0.00299
 33 Li   -0.00000    0.00328    0.01047
 34 Li    0.00244   -0.00027   -0.00392
 35 Li   -0.00244   -0.00026   -0.00393
 36 B     0.00086    0.00485   -0.01248
 37 H     0.01023    0.00852   -0.00066
 38 H    -0.01235    0.00991   -0.00489
 39 H    -0.00188   -0.00954    0.03440
 40 N    -0.00012   -0.02245    0.01632
 41 N     0.00169    0.03957   -0.01600

Timing:                                      incl.     excl.
-------------------------------------------------------------------
Density initialized from wave functions:    45.397    45.396   0.0% |
 Symmetrize density:                         0.001     0.001   0.0% |
Forces:                                    184.319   184.319   0.1% |
Hamiltonian:                              2148.237     0.006   0.0% |
 Atomic:                                     3.426     0.056   0.0% |
  XC Correction:                             3.370     3.370   0.0% |
 Calculate atomic Hamiltonians:             12.261    12.261   0.0% |
 Communicate:                               11.207    11.207   0.0% |
 Hartree integrate/restrict:                 5.224     5.224   0.0% |
 Initialize Hamiltonian:                     0.000     0.000   0.0% |
 Poisson:                                  105.220    48.359   0.0% |
  Communicate from 1D:                       7.112     7.112   0.0% |
  Communicate from 2D:                      12.035    12.035   0.0% |
  Communicate to 1D:                         3.270     3.270   0.0% |
  Communicate to 2D:                        11.882    11.882   0.0% |
  FFT 1D:                                   10.664    10.664   0.0% |
  FFT 2D:                                   11.899    11.899   0.0% |
 XC 3D grid:                              2009.540   257.129   0.2% |
  VdW-DF integral:                        1752.411     5.131   0.0% |
   Convolution:                            149.748   149.748   0.1% |
   FFT:                                     26.840    26.840   0.0% |
   gather:                                1278.819  1278.819   1.0% |
   hmm1:                                    27.171    27.171   0.0% |
   hmm2:                                    35.780    35.780   0.0% |
   iFFT:                                    26.623    26.623   0.0% |
   potential:                              189.330     2.466   0.0% |
    collect:                                17.352    17.352   0.0% |
    p1:                                     76.555    76.555   0.1% |
    p2:                                     52.419    52.419   0.0% |
    sum:                                    40.539    40.539   0.0% |
   splines:                                 12.969    12.969   0.0% |
 vbar:                                       1.354     1.354   0.0% |
LCAO initialization:                        10.989     0.676   0.0% |
 LCAO eigensolver:                           4.248     0.001   0.0% |
  Calculate projections:                     0.000     0.000   0.0% |
  DenseAtomicCorrection:                     0.000     0.000   0.0% |
  Distribute overlap matrix:                 4.058     4.058   0.0% |
  Orbital Layouts:                           0.083     0.083   0.0% |
  Potential matrix:                          0.102     0.102   0.0% |
  Sum over cells:                            0.004     0.004   0.0% |
 LCAO to grid:                               4.161     4.161   0.0% |
 Set positions (LCAO WFS):                   1.903     1.598   0.0% |
  Basic WFS set positions:                   0.017     0.017   0.0% |
  Basis functions set positions:             0.001     0.001   0.0% |
  P tci:                                     0.000     0.000   0.0% |
  ST tci:                                    0.190     0.190   0.0% |
  mktci:                                     0.097     0.097   0.0% |
Redistribute:                                0.026     0.026   0.0% |
SCF-cycle:                               124277.071  1544.287   1.2% |
 Davidson:                               37497.623 15623.356  12.3% |----|
  Apply hamiltonian:                      2416.778  2416.778   1.9% ||
  Subspace diag:                          5236.669     0.300   0.0% |
   calc_h_matrix:                         3259.568   894.955   0.7% |
    Apply hamiltonian:                    2364.613  2364.613   1.9% ||
   diagonalize:                            159.160   159.160   0.1% |
   rotate_psi:                            1817.642  1817.642   1.4% ||
  calc. matrices:                        10836.060  6464.862   5.1% |-|
   Apply hamiltonian:                     4371.198  4371.198   3.4% ||
  diagonalize:                              13.040    13.040   0.0% |
  rotate_psi:                             3371.721  3371.721   2.6% ||
 Density:                                  857.749     0.091   0.0% |
  Atomic density matrices:                 176.627   176.627   0.1% |
  Mix:                                     328.387   328.387   0.3% |
  Multipole moments:                         3.341     3.341   0.0% |
  Pseudo density:                          349.304   349.253   0.3% |
   Symmetrize density:                       0.051     0.051   0.0% |
 Hamiltonian:                            84304.765     0.253   0.0% |
  Atomic:                                  144.384     1.898   0.0% |
   XC Correction:                          142.486   142.486   0.1% |
  Calculate atomic Hamiltonians:           489.806   489.806   0.4% |
  Communicate:                             406.889   406.889   0.3% |
  Hartree integrate/restrict:              187.658   187.658   0.1% |
  Poisson:                                4063.708  1839.030   1.4% ||
   Communicate from 1D:                    296.275   296.275   0.2% |
   Communicate from 2D:                    468.613   468.613   0.4% |
   Communicate to 1D:                      127.107   127.107   0.1% |
   Communicate to 2D:                      457.721   457.721   0.4% |
   FFT 1D:                                 421.335   421.335   0.3% |
   FFT 2D:                                 453.629   453.629   0.4% |
  XC 3D grid:                            78964.724  9873.702   7.8% |--|
   VdW-DF integral:                      69091.022   198.311   0.2% |
    Convolution:                          5670.193  5670.193   4.5% |-|
    FFT:                                   993.619   993.619   0.8% |
    gather:                              51504.257 51504.257  40.5% |---------------|
    hmm1:                                 1028.795  1028.795   0.8% |
    hmm2:                                 1367.829  1367.829   1.1% |
    iFFT:                                 1023.684  1023.684   0.8% |
    potential:                            7304.320    91.646   0.1% |
     collect:                              652.901   652.901   0.5% |
     p1:                                  2947.453  2947.453   2.3% ||
     p2:                                  2010.990  2010.990   1.6% ||
     sum:                                 1601.330  1601.330   1.3% ||
    splines:                                 0.012     0.012   0.0% |
  vbar:                                     47.342    47.342   0.0% |
 Orthonormalize:                            72.646     0.019   0.0% |
  calc_s_matrix:                            10.974    10.974   0.0% |
  inverse-cholesky:                          1.448     1.448   0.0% |
  projections:                              35.108    35.108   0.0% |
  rotate_psi_s:                             25.096    25.096   0.0% |
Set symmetry:                                0.002     0.002   0.0% |
Other:                                     615.179   615.179   0.5% |
-------------------------------------------------------------------
Total:                                             127281.219 100.0%

Memory usage: 1.61 GiB
Date: Fri Mar 10 16:04:08 2023
