
  ___ ___ ___ _ _ _  
 |   |   |_  | | | | 
 | | | | | . | | | | 
 |__ |  _|___|_____|  22.8.0
 |___|_|             

User:   vazumah@r380.ib.bridges2.psc.edu
Date:   Wed Mar  8 21:56:32 2023
Arch:   x86_64
Pid:    86338
CWD:    /jet/home/vazumah/Calcs/N2_with_proton_donor/CH3CH2OH_y/ontop/9.702_9.702/N2_z
Python: 3.11.0
gpaw:   /jet/home/vazumah/.conda/envs/GPAW_mpich/lib/python3.11/site-packages/gpaw
_gpaw:  /jet/home/vazumah/.conda/envs/GPAW_mpich/lib/python3.11/site-packages/
        _gpaw.cpython-311-x86_64-linux-gnu.so
ase:    /jet/home/vazumah/.conda/envs/GPAW_mpich/lib/python3.11/site-packages/ase (version 3.22.1)
numpy:  /jet/home/vazumah/.conda/envs/GPAW_mpich/lib/python3.11/site-packages/numpy (version 1.24.2)
scipy:  /jet/home/vazumah/.conda/envs/GPAW_mpich/lib/python3.11/site-packages/scipy (version 1.10.1)
libxc:  5.2.3
units:  Angstrom and eV
cores: 128
OpenMP: True
OMP_NUM_THREADS: 1

Input parameters:
  h: 0.16
  kpts: {size: [4, 4, 1]}
  occupations: {name: fermi-dirac,
                width: 0.05}
  poissonsolver: {dipolelayer: xy}
  xc: BEEF-vdW

System changes: positions, numbers, cell, pbc, initial_charges, initial_magmoms 

Initialize ...

species:
  Li:
    name: Lithium
    id: 830b4218f175192f93f959cfc0aad614
    Z: 3.0
    valence: 1
    core: 2
    charge: 0.0
    file: /jet/home/vazumah/datasets/gpaw-setups-0.9.20000/Li.PBE.gz
    compensation charges: {type: gauss,
                           rc: 0.33,
                           lmax: 2}
    cutoffs: {filter: 1.91,
              core: 2.55}
    valence states:
      #              energy  rcut
      - 2s(1.00)    -2.874   1.058
      - 2p(0.00)    -1.090   1.058
      -  s          24.337   1.058
  
    # Using partial waves for Li as LCAO basis

  O:
    name: Oxygen
    id: 32ecd46bf208036f09c70b0ec9a88b78
    Z: 8.0
    valence: 6
    core: 2
    charge: 0.0
    file: /jet/home/vazumah/datasets/gpaw-setups-0.9.20000/O.PBE.gz
    compensation charges: {type: gauss,
                           rc: 0.21,
                           lmax: 2}
    cutoffs: {filter: 1.17,
              core: 0.83}
    valence states:
      #              energy  rcut
      - 2s(2.00)   -23.961   0.688
      - 2p(4.00)    -9.029   0.598
      -  s           3.251   0.688
      -  p          18.182   0.598
      -  d           0.000   0.619
  
    # Using partial waves for O as LCAO basis

  C:
    name: Carbon
    id: 4aa54d4b901d75f77cc0ea3eec22967b
    Z: 6.0
    valence: 4
    core: 2
    charge: 0.0
    file: /jet/home/vazumah/datasets/gpaw-setups-0.9.20000/C.PBE.gz
    compensation charges: {type: gauss,
                           rc: 0.20,
                           lmax: 2}
    cutoffs: {filter: 1.14,
              core: 1.14}
    valence states:
      #              energy  rcut
      - 2s(2.00)   -13.751   0.635
      - 2p(2.00)    -5.284   0.635
      -  s          13.461   0.635
      -  p          21.927   0.635
      -  d           0.000   0.635
  
    # Using partial waves for C as LCAO basis

  H:
    name: Hydrogen
    id: d65de229564ff8ea4db303e23b6d1ecf
    Z: 1.0
    valence: 1
    core: 0
    charge: 0.0
    file: /jet/home/vazumah/datasets/gpaw-setups-0.9.20000/H.PBE.gz
    compensation charges: {type: gauss,
                           rc: 0.15,
                           lmax: 2}
    cutoffs: {filter: 0.85,
              core: 0.53}
    valence states:
      #              energy  rcut
      - 1s(1.00)    -6.494   0.476
      -  s          20.717   0.476
      -  p           0.000   0.476
  
    # Using partial waves for H as LCAO basis

  N:
    name: Nitrogen
    id: f7500608b86eaa90eef8b1d9a670dc53
    Z: 7.0
    valence: 5
    core: 2
    charge: 0.0
    file: /jet/home/vazumah/datasets/gpaw-setups-0.9.20000/N.PBE.gz
    compensation charges: {type: gauss,
                           rc: 0.18,
                           lmax: 2}
    cutoffs: {filter: 1.11,
              core: 0.96}
    valence states:
      #              energy  rcut
      - 2s(2.00)   -18.583   0.603
      - 2p(3.00)    -7.089   0.529
      -  s           8.629   0.603
      -  p          20.123   0.529
      -  d           0.000   0.577
  
    # Using partial waves for N as LCAO basis

Reference energy: -14434.854043  # eV

Spin-paired calculation

Convergence criteria:
 Maximum [total energy] change in last 3 cyles: 0.0005 eV / electron
 Maximum integral of absolute [dens]ity change: 0.0001 electrons / valence electron
 Maximum integral of absolute [eigenst]ate change: 4e-08 eV^2 / valence electron
 Maximum number of scf [iter]ations: 333
 (Square brackets indicate name in SCF output, whereas a 'c' in
 the SCF output indicates the quantity has converged.)

Symmetries present (total): 1

  ( 1  0  0)
  ( 0  1  0)
  ( 0  0  1)

16 k-points: 4 x 4 x 1 Monkhorst-Pack grid
8 k-points in the irreducible part of the Brillouin zone
       k-points in crystal coordinates                weights
   0:     0.12500000   -0.37500000    0.00000000          2/16
   1:     0.12500000   -0.12500000    0.00000000          2/16
   2:     0.12500000    0.12500000    0.00000000          2/16
   3:     0.12500000    0.37500000    0.00000000          2/16
   4:     0.37500000   -0.37500000    0.00000000          2/16
   5:     0.37500000   -0.12500000    0.00000000          2/16
   6:     0.37500000    0.12500000    0.00000000          2/16
   7:     0.37500000    0.37500000    0.00000000          2/16

Wave functions: Uniform real-space grid
  Kinetic energy operator: 6*3+1=19 point O(h^6) finite-difference Laplacian
  ScaLapack parameters: grid=1x1, blocksize=None
  Wavefunction extrapolation:
    Improved wavefunction reuse through dual PAW basis 

Occupation numbers: Fermi-Dirac:
  width: 0.0500  # eV
 

Eigensolver
   Davidson(niter=2) 

Densities:
  Coarse grid: 60*60*164 grid
  Fine grid: 120*120*328 grid
  Total Charge: 0.000000 

Density mixing:
  Method: separate
  Backend: pulay
  Linear mixing parameter: 0.05
  old densities: 5
  Damping of long wavelength oscillations: 50 

Hamiltonian:
  XC and Coulomb potentials evaluated on a 120*120*328 grid
  Using the BEEF-vdW Exchange-Correlation functional
  Interpolation: tri-quintic (5. degree polynomial)
  Poisson solver: FastPoissonSolver using
    Stencil: 6*3+1=19 point O(h^6) finite-difference Laplacian
    FFT axes: [0, 1]
    FST axes: [2]

Dipole correction along z-axis 

XC parameters: BEEF-vdW with 2 nearest neighbor stencil

Memory estimate:
  Process memory now: 126.65 MiB
  Calculator: 80.22 MiB
    Density: 22.47 MiB
      Arrays: 7.22 MiB
      Localized functions: 12.50 MiB
      Mixer: 2.75 MiB
    Hamiltonian: 5.71 MiB
      Arrays: 4.72 MiB
      XC: 0.00 MiB
      Poisson: 0.00 MiB
      vbar: 0.99 MiB
    Wavefunctions: 52.04 MiB
      Arrays psit_nG: 24.17 MiB
      Eigensolver: 27.21 MiB
      Projections: 0.01 MiB
      Projectors: 0.65 MiB

Total number of cores used: 128
Parallelization over k-points: 8
Domain decomposition: 2 x 2 x 4

Number of atoms: 47
Number of atomic orbitals: 170
Number of bands in calculation: 44
Number of valence electrons: 66
Bands to converge: occupied

... initialized

Initializing position-dependent things.

Density initialized from atomic densities
Creating initial wave functions:
  44 bands from LCAO basis set

       .-----------------------.  
      /|                       |  
     / |                       |  
    /  |                       |  
   /   |                       |  
  /    |                       |  
 *     |                       |  
 |     |                       |  
 |     |                       |  
 |     |                       |  
 |     |                       N  
 |     |                       N  
 |   H |                 H     |  
 |  C  |                H  C   |  
 O     |                 H     |  
 |   Hi|     Li      Li        |  
 |     |                       |  
 | Li  |  LLi     LLi     Li   |  
 |     |                       |  
 Li    |LLi     LLi     Li     |  
 |   Li|     Li      Li        |  
 |    Li  Li  Li  Li  Li  Li   |  
 | Li  |   Li      Li          |  
 |     |Li      Li      Li     |  
 Li    | Li      Li            |  
 |    Li      Li      Li       |  
 |     |                       |  
 |     |                       |  
 |     |                       |  
 |     |                       |  
 |     |                       |  
 |     |                       |  
 |     .-----------------------.  
 |    /                       /   
 |   /                       /    
 |  /                       /     
 | /                       /      
 |/                       /       
 *-----------------------*        

Positions:
   0 Li     1.617037    1.617037   10.000000    ( 0.0000,  0.0000,  0.0000)
   1 Li     4.851111    1.617037   10.000000    ( 0.0000,  0.0000,  0.0000)
   2 Li     8.085185    1.617037   10.000000    ( 0.0000,  0.0000,  0.0000)
   3 Li     1.617037    4.851111   10.000000    ( 0.0000,  0.0000,  0.0000)
   4 Li     4.851111    4.851111   10.000000    ( 0.0000,  0.0000,  0.0000)
   5 Li     8.085185    4.851111   10.000000    ( 0.0000,  0.0000,  0.0000)
   6 Li     1.617037    8.085185   10.000000    ( 0.0000,  0.0000,  0.0000)
   7 Li     4.851111    8.085185   10.000000    ( 0.0000,  0.0000,  0.0000)
   8 Li     8.085185    8.085185   10.000000    ( 0.0000,  0.0000,  0.0000)
   9 Li     0.000000    0.000000   11.617037    ( 0.0000,  0.0000,  0.0000)
  10 Li     3.234074    0.000000   11.617037    ( 0.0000,  0.0000,  0.0000)
  11 Li     6.468148    0.000000   11.617037    ( 0.0000,  0.0000,  0.0000)
  12 Li     0.000000    3.234074   11.617037    ( 0.0000,  0.0000,  0.0000)
  13 Li     3.234074    3.234074   11.617037    ( 0.0000,  0.0000,  0.0000)
  14 Li     6.468148    3.234074   11.617037    ( 0.0000,  0.0000,  0.0000)
  15 Li     0.000000    6.468148   11.617037    ( 0.0000,  0.0000,  0.0000)
  16 Li     3.234074    6.468148   11.617037    ( 0.0000,  0.0000,  0.0000)
  17 Li     6.468148    6.468148   11.617037    ( 0.0000,  0.0000,  0.0000)
  18 Li     1.617038    1.617038   13.469728    ( 0.0000,  0.0000,  0.0000)
  19 Li     4.851111    1.617038   13.469729    ( 0.0000,  0.0000,  0.0000)
  20 Li     8.085184    1.617038   13.469728    ( 0.0000,  0.0000,  0.0000)
  21 Li     1.617038    4.851111   13.469729    ( 0.0000,  0.0000,  0.0000)
  22 Li     4.851111    4.851111   13.469730    ( 0.0000,  0.0000,  0.0000)
  23 Li     8.085184    4.851111   13.469729    ( 0.0000,  0.0000,  0.0000)
  24 Li     1.617038    8.085184   13.469728    ( 0.0000,  0.0000,  0.0000)
  25 Li     4.851111    8.085184   13.469729    ( 0.0000,  0.0000,  0.0000)
  26 Li     8.085184    8.085184   13.469728    ( 0.0000,  0.0000,  0.0000)
  27 Li    -0.000000   -0.000000   15.445939    ( 0.0000,  0.0000,  0.0000)
  28 Li     3.234074    0.000000   15.445939    ( 0.0000,  0.0000,  0.0000)
  29 Li     6.468148    0.000000   15.445939    ( 0.0000,  0.0000,  0.0000)
  30 Li     0.000000    3.234074   15.445939    ( 0.0000,  0.0000,  0.0000)
  31 Li     3.234076    3.234076   15.445938    ( 0.0000,  0.0000,  0.0000)
  32 Li     6.468146    3.234076   15.445938    ( 0.0000,  0.0000,  0.0000)
  33 Li     0.000000    6.468148   15.445939    ( 0.0000,  0.0000,  0.0000)
  34 Li     3.234076    6.468146   15.445938    ( 0.0000,  0.0000,  0.0000)
  35 Li     6.468146    6.468146   15.445938    ( 0.0000,  0.0000,  0.0000)
  36 O      9.702222    9.702222   19.645939    ( 0.0000,  0.0000,  0.0000)
  37 C     10.518979   10.884630   19.650238    ( 0.0000,  0.0000,  0.0000)
  38 C      9.699361   12.168844   19.635704    ( 0.0000,  0.0000,  0.0000)
  39 H     11.202515   10.876006   20.510398    ( 0.0000,  0.0000,  0.0000)
  40 H     11.128705   10.809241   18.747442    ( 0.0000,  0.0000,  0.0000)
  41 H     10.353307   13.045771   19.620269    ( 0.0000,  0.0000,  0.0000)
  42 H      9.050338   12.203555   18.758886    ( 0.0000,  0.0000,  0.0000)
  43 H      9.070873   12.239032   20.528265    ( 0.0000,  0.0000,  0.0000)
  44 H      9.119245    9.741389   20.414164    ( 0.0000,  0.0000,  0.0000)
  45 N      9.702000    9.702000   16.945939    ( 0.0000,  0.0000,  0.0000)
  46 N      9.702000    9.702000   18.042561    ( 0.0000,  0.0000,  0.0000)

Unit cell:
           periodic     x           y           z      points  spacing
  1. axis:    yes    9.702222    0.000000    0.000000    60     0.1617
  2. axis:    yes    0.000000    9.702222    0.000000    60     0.1617
  3. axis:    no     0.000000    0.000000   26.351111   164     0.1607

  Lengths:   9.702222   9.702222  26.351111
  Angles:   90.000000  90.000000  90.000000

Effective grid spacing dv^(1/3) = 0.1614

     iter     time        total  log10-change:
                         energy  eigst   dens
iter:   1 21:56:47  -571.955271
iter:   2 21:56:54   -77.230276  +2.55  -0.02
iter:   3 21:57:01    -7.749373  +3.27  -0.16
iter:   4 21:57:08  -159.143329  +3.11  -0.22
Writing to output.gpw (mode='')

iter:   5 21:57:15  -215.185968  +2.85  -0.26
iter:   6 21:57:22  -290.549026  +2.65  -0.57
iter:   7 21:57:29  -318.657899  +2.26  -0.60
iter:   8 21:57:36  -327.175659  +2.00  -0.56
iter:   9 21:57:43  -399.634633  +2.29  -0.58
Writing to output.gpw (mode='')

iter:  10 21:57:51  -311.985724  +1.50  -0.40
iter:  11 21:57:58  -319.727575  +1.31  -0.72
iter:  12 21:58:05  -334.754760  +1.62  -0.73
iter:  13 21:58:12  -314.706003  +1.44  -0.64
iter:  14 21:58:19  -309.390067  +0.88  -0.65
Writing to output.gpw (mode='')

iter:  15 21:58:26  -306.747910  +0.86  -0.75
iter:  16 21:58:33  -305.727641  +0.54  -0.78
iter:  17 21:58:40  -304.658746  +0.82  -0.82
iter:  18 21:58:47  -304.186707  +0.15  -0.91
iter:  19 21:58:55  -303.702489  +0.26  -0.98
Writing to output.gpw (mode='')

iter:  20 21:59:02  -303.281895  +0.57  -1.01
iter:  21 21:59:09  -302.751451  -0.11  -1.04
iter:  22 21:59:16  -302.527981  -0.24  -1.18
iter:  23 21:59:23  -302.445697  -0.14  -1.26
iter:  24 21:59:30  -302.416616  -0.24  -1.45
Writing to output.gpw (mode='')

iter:  25 21:59:37  -302.449381c -0.51  -1.57
iter:  26 21:59:50  -302.409497  -0.70  -1.57
iter:  27 21:59:57  -302.386632  -1.14  -1.70
iter:  28 22:00:05  -302.385917c -1.19  -1.87
iter:  29 22:00:12  -302.389795c -1.51  -1.98
Writing to output.gpw (mode='')

iter:  30 22:00:25  -302.389707c -1.45  -2.02
iter:  31 22:00:34  -302.391032c -1.51  -2.23
iter:  32 22:00:42  -302.392412c -1.86  -2.38
iter:  33 22:00:49  -302.394178c -1.70  -2.44
iter:  34 22:00:56  -302.395837c -1.97  -2.50
Writing to output.gpw (mode='')

iter:  35 22:01:03  -302.397016c -2.17  -2.56
iter:  36 22:01:10  -302.398316c -2.12  -2.60
iter:  37 22:01:17  -302.399114c -2.39  -2.69
iter:  38 22:01:24  -302.399805c -2.36  -2.71
iter:  39 22:01:31  -302.400272c -2.53  -2.74
Writing to output.gpw (mode='')

iter:  40 22:01:39  -302.400696c -2.57  -2.84
iter:  41 22:01:46  -302.401027c -2.81  -3.04
iter:  42 22:01:53  -302.401420c -2.55  -3.09
iter:  43 22:02:00  -302.401692c -3.00  -3.16
iter:  44 22:02:07  -302.402014c -2.89  -3.27
Writing to output.gpw (mode='')

iter:  45 22:02:14  -302.402190c -3.23  -3.42
iter:  46 22:02:21  -302.402375c -2.90  -3.43
iter:  47 22:02:28  -302.402536c -3.31  -3.48
iter:  48 22:02:35  -302.402642c -3.31  -3.64
iter:  49 22:02:42  -302.402741c -3.27  -3.67
Writing to output.gpw (mode='')

iter:  50 22:02:49  -302.402829c -3.38  -3.67
iter:  51 22:02:57  -302.402906c -3.67  -3.72
iter:  52 22:03:04  -302.402963c -3.68  -3.93
iter:  53 22:03:11  -302.403010c -3.78  -4.09c
iter:  54 22:03:18  -302.403050c -3.76  -4.07c
Writing to output.gpw (mode='')

iter:  55 22:03:25  -302.403085c -4.01  -3.93
iter:  56 22:03:32  -302.403111c -4.12  -4.00
iter:  57 22:03:39  -302.403138c -4.00  -3.95
iter:  58 22:03:46  -302.403163c -4.02  -3.94
iter:  59 22:03:53  -302.403182c -4.29  -3.86
Writing to output.gpw (mode='')

iter:  60 22:04:00  -302.403200c -4.16  -3.90
iter:  61 22:04:08  -302.403220c -4.07  -3.90
iter:  62 22:04:15  -302.403232c -4.42  -4.00c
iter:  63 22:04:22  -302.403243c -4.38  -3.95
iter:  64 22:04:29  -302.403254c -4.56  -3.86
Writing to output.gpw (mode='')

iter:  65 22:04:36  -302.403262c -4.27  -3.91
iter:  66 22:04:49  -302.403267c -4.72  -3.89
iter:  67 22:04:57  -302.403273c -4.67  -3.85
iter:  68 22:05:04  -302.403278c -4.87  -3.81
iter:  69 22:05:11  -302.403282c -5.01  -3.96
Writing to output.gpw (mode='')

iter:  70 22:05:18  -302.403286c -4.79  -3.95
iter:  71 22:05:25  -302.403288c -5.02  -3.83
iter:  72 22:05:32  -302.403292c -4.85  -3.87
iter:  73 22:05:39  -302.403293c -5.10  -3.87
iter:  74 22:05:47  -302.403296c -5.11  -3.85
Writing to output.gpw (mode='')

iter:  75 22:05:54  -302.403297c -5.17  -3.98
iter:  76 22:06:01  -302.403298c -5.06  -4.03c
iter:  77 22:06:08  -302.403299c -5.05  -4.09c
iter:  78 22:06:15  -302.403298c -5.23  -4.22c
iter:  79 22:06:22  -302.403298c -5.26  -4.30c
Writing to output.gpw (mode='')

iter:  80 22:06:30  -302.403299c -5.34  -4.42c
iter:  81 22:06:37  -302.403300c -5.45  -4.49c
iter:  82 22:06:44  -302.403301c -5.48  -4.51c
iter:  83 22:06:51  -302.403301c -5.66  -4.54c
iter:  84 22:06:58  -302.403301c -5.70  -4.68c
Writing to output.gpw (mode='')

iter:  85 22:07:05  -302.403302c -5.51  -4.76c
iter:  86 22:07:12  -302.403302c -5.68  -4.80c
iter:  87 22:07:20  -302.403302c -5.91  -4.84c
iter:  88 22:07:27  -302.403302c -6.13  -5.01c
iter:  89 22:07:34  -302.403303c -6.02  -5.06c
Writing to output.gpw (mode='')

iter:  90 22:07:41  -302.403303c -6.25  -5.25c
iter:  91 22:07:48  -302.403303c -6.11  -5.33c
iter:  92 22:07:55  -302.403303c -6.34  -5.52c
iter:  93 22:08:02  -302.403303c -6.19  -5.60c
iter:  94 22:08:10  -302.403303c -6.25  -5.62c
Writing to output.gpw (mode='')

iter:  95 22:08:17  -302.403303c -6.25  -5.61c
iter:  96 22:08:24  -302.403303c -6.34  -5.56c
iter:  97 22:08:31  -302.403303c -6.49  -5.66c
iter:  98 22:08:38  -302.403303c -6.50  -5.79c
iter:  99 22:08:45  -302.403303c -6.50  -5.81c
Writing to output.gpw (mode='')

iter: 100 22:08:53  -302.403303c -6.62  -5.77c
iter: 101 22:09:00  -302.403303c -6.63  -5.70c
iter: 102 22:09:07  -302.403303c -6.53  -5.67c
iter: 103 22:09:14  -302.403303c -6.83  -5.60c
iter: 104 22:09:21  -302.403303c -6.77  -5.57c
Writing to output.gpw (mode='')

iter: 105 22:09:28  -302.403303c -6.78  -5.54c
iter: 106 22:09:35  -302.403303c -6.90  -5.54c
iter: 107 22:09:47  -302.403303c -6.75  -5.54c
iter: 108 22:09:55  -302.403303c -7.05  -5.51c
iter: 109 22:10:05  -302.403303c -7.13  -5.44c
Writing to output.gpw (mode='')

iter: 110 22:10:13  -302.403303c -7.19  -5.50c
iter: 111 22:10:20  -302.403303c -7.22  -5.46c
iter: 112 22:10:27  -302.403303c -7.27  -5.37c
iter: 113 22:10:34  -302.403303c -7.10  -5.58c
iter: 114 22:10:41  -302.403303c -7.36  -5.58c
Writing to output.gpw (mode='')

iter: 115 22:10:48  -302.403303c -7.33  -5.63c
iter: 116 22:10:55  -302.403303c -7.41c -5.65c

Converged after 116 iterations.

Dipole moment: (-17.336765, -18.179376, 0.273532) |e|*Ang

Energy contributions relative to reference atoms: (reference = -14434.854043)

Kinetic:       +188.974175
Potential:     -172.388980
External:        +0.000000
XC:            -319.655320
Entropy (-ST):   -0.143663
Local:           +0.738653
--------------------------
Free energy:   -302.475135
Extrapolated:  -302.403303

Dipole-layer corrected work functions: 3.390384, 2.864563 eV

Showing only first 2 kpts
 Kpt  Band  Eigenvalues  Occupancy
  0    31     -3.37429    1.98574
  0    32     -3.30747    1.94681
  0    33     -2.94929    0.05510
  0    34     -2.88998    0.01716

  1    31     -3.16994    1.40086
  1    32     -3.11313    0.85752
  1    33     -3.10392    0.76876
  1    34     -3.02648    0.23425


Fermi level: -3.12747

No gap
Writing to output.gpw (mode='')


Forces in eV/Ang:
  0 Li    0.00667    0.00701   -0.26886
  1 Li   -0.00200   -0.00164   -0.26884
  2 Li   -0.00485    0.00850   -0.26834
  3 Li   -0.00166   -0.00195   -0.26847
  4 Li    0.00068    0.00112   -0.28664
  5 Li    0.00077   -0.00070   -0.26838
  6 Li    0.00831   -0.00516   -0.26836
  7 Li   -0.00074    0.00041   -0.26878
  8 Li   -0.00793   -0.00810   -0.26828
  9 Li   -0.00141   -0.00015    0.30664
 10 Li    0.01218    0.00033    0.25598
 11 Li   -0.01077    0.00016    0.26156
 12 Li    0.00108    0.01220    0.25600
 13 Li    0.00270    0.00158    0.25753
 14 Li   -0.00348    0.00527    0.25693
 15 Li   -0.00025   -0.01212    0.26001
 16 Li    0.00472   -0.00163    0.25676
 17 Li   -0.00394   -0.00495    0.25442
 18 Li    0.00149    0.00095    0.01645
 19 Li    0.00313    0.00027    0.04490
 20 Li   -0.00433    0.00627    0.00016
 21 Li    0.00141    0.00288    0.04607
 22 Li   -0.00169   -0.00034    0.02669
 23 Li    0.00045    0.00165    0.05034
 24 Li    0.00346   -0.00384   -0.00171
 25 Li    0.00280    0.00012    0.04882
 26 Li   -0.00524   -0.00732   -0.00850
 27 Li    0.01146    0.01340   -7.19015
 28 Li    0.02925    0.00707   -0.03677
 29 Li   -0.03230    0.00297   -0.03896
 30 Li    0.00724    0.03152   -0.04908
 31 Li    0.00169    0.00066   -0.02507
 32 Li   -0.00886    0.01245   -0.03211
 33 Li    0.00142   -0.03455   -0.03281
 34 Li    0.01066   -0.01021   -0.02960
 35 Li   -0.01350   -0.01600   -0.03420
 36 O    -0.86154    0.09106   11.97223
 37 C     0.63574    0.90969    1.29954
 38 C    -0.07734   -0.01793    0.10114
 39 H    -0.13868   -0.16720   -0.11241
 40 H     0.17907    0.14251    0.27667
 41 H     0.01277   -0.06869   -0.04915
 42 H    -0.02735    0.06360   -0.02938
 43 H     0.00652    0.00203   -0.04018
 44 H    -0.25834    0.08551    2.21777
 45 N    -1.26794   -0.37398    2.31953
 46 N     1.79548   -0.68120  -10.67583

System changes: positions 

Initializing position-dependent things.

Density initialized from wave functions
       .-----------------------.  
      /|                       |  
     / |                       |  
    /  |                       |  
   /   |                       |  
  /    |                       |  
 *     |                       |  
 |     |                       |  
 |     |                       |  
 |     |                       |  
 |     N                       |  
 |     |                       N  
 |   H |                 H     |  
 |  C  |                H  C   |  
 |     |                 O     |  
 |   Hi|     Li      Li        |  
 |     |                       |  
 | Li  |  LLi     LLi     Li   |  
 |     |                       |  
 Li    |LLi     LLi     Li     |  
 |   Li|     Li      Li        |  
 |    Li  Li  Li  Li  Li  Li   |  
 | Li  |   Li      Li          |  
 |     |Li      Li      Li     |  
 Li    | Li      Li            |  
 |    Li      Li      Li       |  
 |     |                       |  
 |     |                       |  
 |     |                       |  
 |     |                       |  
 |     |                       |  
 |     |                       |  
 |     .-----------------------.  
 |    /                       /   
 |   /                       /    
 |  /                       /     
 | /                       /      
 |/                       /       
 *-----------------------*        

Positions:
   0 Li     1.617037    1.617037   10.000000    ( 0.0000,  0.0000,  0.0000)
   1 Li     4.851111    1.617037   10.000000    ( 0.0000,  0.0000,  0.0000)
   2 Li     8.085185    1.617037   10.000000    ( 0.0000,  0.0000,  0.0000)
   3 Li     1.617037    4.851111   10.000000    ( 0.0000,  0.0000,  0.0000)
   4 Li     4.851111    4.851111   10.000000    ( 0.0000,  0.0000,  0.0000)
   5 Li     8.085185    4.851111   10.000000    ( 0.0000,  0.0000,  0.0000)
   6 Li     1.617037    8.085185   10.000000    ( 0.0000,  0.0000,  0.0000)
   7 Li     4.851111    8.085185   10.000000    ( 0.0000,  0.0000,  0.0000)
   8 Li     8.085185    8.085185   10.000000    ( 0.0000,  0.0000,  0.0000)
   9 Li     0.000000    0.000000   11.617037    ( 0.0000,  0.0000,  0.0000)
  10 Li     3.234074    0.000000   11.617037    ( 0.0000,  0.0000,  0.0000)
  11 Li     6.468148    0.000000   11.617037    ( 0.0000,  0.0000,  0.0000)
  12 Li     0.000000    3.234074   11.617037    ( 0.0000,  0.0000,  0.0000)
  13 Li     3.234074    3.234074   11.617037    ( 0.0000,  0.0000,  0.0000)
  14 Li     6.468148    3.234074   11.617037    ( 0.0000,  0.0000,  0.0000)
  15 Li     0.000000    6.468148   11.617037    ( 0.0000,  0.0000,  0.0000)
  16 Li     3.234074    6.468148   11.617037    ( 0.0000,  0.0000,  0.0000)
  17 Li     6.468148    6.468148   11.617037    ( 0.0000,  0.0000,  0.0000)
  18 Li     1.617043    1.617041   13.469783    ( 0.0000,  0.0000,  0.0000)
  19 Li     4.851121    1.617039   13.469879    ( 0.0000,  0.0000,  0.0000)
  20 Li     8.085169    1.617059   13.469728    ( 0.0000,  0.0000,  0.0000)
  21 Li     1.617043    4.851121   13.469883    ( 0.0000,  0.0000,  0.0000)
  22 Li     4.851105    4.851110   13.469819    ( 0.0000,  0.0000,  0.0000)
  23 Li     8.085185    4.851117   13.469897    ( 0.0000,  0.0000,  0.0000)
  24 Li     1.617050    8.085171   13.469722    ( 0.0000,  0.0000,  0.0000)
  25 Li     4.851120    8.085184   13.469892    ( 0.0000,  0.0000,  0.0000)
  26 Li     8.085166    8.085160   13.469700    ( 0.0000,  0.0000,  0.0000)
  27 Li     0.000038    0.000045   15.421979    ( 0.0000,  0.0000,  0.0000)
  28 Li     3.234171    0.000024   15.445816    ( 0.0000,  0.0000,  0.0000)
  29 Li     6.468041    0.000010   15.445809    ( 0.0000,  0.0000,  0.0000)
  30 Li     0.000024    3.234179   15.445775    ( 0.0000,  0.0000,  0.0000)
  31 Li     3.234082    3.234079   15.445855    ( 0.0000,  0.0000,  0.0000)
  32 Li     6.468116    3.234118   15.445831    ( 0.0000,  0.0000,  0.0000)
  33 Li     0.000005    6.468033   15.445829    ( 0.0000,  0.0000,  0.0000)
  34 Li     3.234112    6.468112   15.445839    ( 0.0000,  0.0000,  0.0000)
  35 Li     6.468101    6.468092   15.445824    ( 0.0000,  0.0000,  0.0000)
  36 O      9.699351    9.702525   19.685835    ( 0.0000,  0.0000,  0.0000)
  37 C     10.521098   10.887661   19.654568    ( 0.0000,  0.0000,  0.0000)
  38 C      9.699103   12.168784   19.636041    ( 0.0000,  0.0000,  0.0000)
  39 H     11.202053   10.875449   20.510023    ( 0.0000,  0.0000,  0.0000)
  40 H     11.129302   10.809716   18.748364    ( 0.0000,  0.0000,  0.0000)
  41 H     10.353350   13.045542   19.620105    ( 0.0000,  0.0000,  0.0000)
  42 H      9.050247   12.203767   18.758788    ( 0.0000,  0.0000,  0.0000)
  43 H      9.070895   12.239039   20.528132    ( 0.0000,  0.0000,  0.0000)
  44 H      9.118384    9.741674   20.421555    ( 0.0000,  0.0000,  0.0000)
  45 N      9.697775    9.700754   16.953669    ( 0.0000,  0.0000,  0.0000)
  46 N      9.707983    9.699730   18.006986    ( 0.0000,  0.0000,  0.0000)

Unit cell:
           periodic     x           y           z      points  spacing
  1. axis:    yes    9.702222    0.000000    0.000000    60     0.1617
  2. axis:    yes    0.000000    9.702222    0.000000    60     0.1617
  3. axis:    no     0.000000    0.000000   26.351111   164     0.1607

  Lengths:   9.702222   9.702222  26.351111
  Angles:   90.000000  90.000000  90.000000

Effective grid spacing dv^(1/3) = 0.1614

     iter     time        total  log10-change:
                         energy  eigst   dens
iter:   1 22:11:04  -304.280739  -0.58
iter:   2 22:11:11  -303.553492  -0.30  -1.18
iter:   3 22:11:19  -303.404252  -1.09  -1.40
iter:   4 22:11:26  -303.279453  -0.34  -1.75
Writing to output.gpw (mode='')

iter:   5 22:11:33  -303.284151  -1.24  -1.74
iter:   6 22:11:40  -303.291791c -1.13  -2.09
iter:   7 22:11:48  -303.266099c -0.77  -1.99
iter:   8 22:11:55  -303.249349  -1.62  -2.05
iter:   9 22:12:02  -303.251328c -1.65  -2.30
Writing to output.gpw (mode='')

iter:  10 22:12:09  -303.251434c -1.90  -2.30
iter:  11 22:12:17  -303.252266c -2.11  -2.44
iter:  12 22:12:24  -303.251642c -2.39  -2.46
iter:  13 22:12:31  -303.251737c -2.68  -2.50
iter:  14 22:12:38  -303.251464c -2.47  -2.53
Writing to output.gpw (mode='')

iter:  15 22:12:45  -303.251445c -2.86  -2.74
iter:  16 22:12:53  -303.251704c -2.86  -2.81
iter:  17 22:13:00  -303.251742c -3.09  -2.84
iter:  18 22:13:07  -303.251585c -3.18  -2.95
iter:  19 22:13:14  -303.251624c -3.64  -3.18
Writing to output.gpw (mode='')

iter:  20 22:13:21  -303.251648c -3.95  -3.24
iter:  21 22:13:29  -303.251662c -3.94  -3.46
iter:  22 22:13:36  -303.251692c -3.82  -3.50
iter:  23 22:13:43  -303.251703c -4.26  -3.50
iter:  24 22:13:50  -303.251729c -4.10  -3.64
Writing to output.gpw (mode='')

iter:  25 22:13:58  -303.251728c -4.37  -3.74
iter:  26 22:14:05  -303.251730c -4.39  -4.02c
iter:  27 22:14:12  -303.251731c -4.69  -4.06c
iter:  28 22:14:19  -303.251732c -4.78  -4.17c
iter:  29 22:14:26  -303.251734c -4.91  -4.32c
Writing to output.gpw (mode='')

iter:  30 22:14:34  -303.251736c -4.85  -4.42c
iter:  31 22:14:46  -303.251737c -5.13  -4.45c
iter:  32 22:14:54  -303.251738c -4.84  -4.49c
iter:  33 22:15:01  -303.251740c -5.03  -4.49c
iter:  34 22:15:08  -303.251740c -5.45  -4.42c
Writing to output.gpw (mode='')

iter:  35 22:15:16  -303.251740c -5.52  -4.51c
iter:  36 22:15:23  -303.251740c -5.66  -4.49c
iter:  37 22:15:30  -303.251741c -5.45  -4.48c
iter:  38 22:15:37  -303.251740c -5.73  -4.44c
iter:  39 22:15:44  -303.251741c -5.94  -4.43c
Writing to output.gpw (mode='')

iter:  40 22:15:52  -303.251741c -6.06  -4.35c
iter:  41 22:15:59  -303.251741c -5.99  -4.42c
iter:  42 22:16:06  -303.251740c -5.98  -4.43c
iter:  43 22:16:13  -303.251740c -6.24  -4.44c
iter:  44 22:16:20  -303.251740c -6.15  -4.41c
Writing to output.gpw (mode='')

iter:  45 22:16:28  -303.251740c -6.24  -4.46c
iter:  46 22:16:35  -303.251741c -6.35  -4.55c
iter:  47 22:16:42  -303.251741c -6.38  -4.77c
iter:  48 22:16:49  -303.251741c -6.39  -4.81c
iter:  49 22:16:56  -303.251740c -6.52  -4.86c
Writing to output.gpw (mode='')

iter:  50 22:17:04  -303.251741c -6.69  -4.92c
iter:  51 22:17:11  -303.251741c -6.79  -5.00c
iter:  52 22:17:18  -303.251741c -7.06  -5.14c
iter:  53 22:17:25  -303.251741c -7.09  -5.18c
iter:  54 22:17:32  -303.251741c -6.99  -5.33c
Writing to output.gpw (mode='')

iter:  55 22:17:40  -303.251741c -7.04  -5.49c
iter:  56 22:17:47  -303.251741c -7.28  -5.53c
iter:  57 22:17:54  -303.251741c -7.37  -5.59c
iter:  58 22:18:01  -303.251741c -7.33  -5.65c
iter:  59 22:18:09  -303.251741c -7.48c -5.76c

Converged after 59 iterations.

Dipole moment: (-17.159193, -17.853524, 0.313434) |e|*Ang

Energy contributions relative to reference atoms: (reference = -14434.854043)

Kinetic:       +193.236053
Potential:     -176.288448
External:        +0.000000
XC:            -320.870318
Entropy (-ST):   -0.143700
Local:           +0.742822
--------------------------
Free energy:   -303.323591
Extrapolated:  -303.251741

Dipole-layer corrected work functions: 3.387624, 2.785096 eV

Showing only first 2 kpts
 Kpt  Band  Eigenvalues  Occupancy
  0    31     -3.33533    1.98634
  0    32     -3.26624    1.94668
  0    33     -2.90875    0.05572
  0    34     -2.84260    0.01515

  1    31     -3.12842    1.39746
  1    32     -3.07180    0.85538
  1    33     -3.06200    0.76110
  1    34     -2.99066    0.25707


Fermi level: -3.08636

No gap
Writing to output.gpw (mode='')


Forces in eV/Ang:
  0 Li    0.00630    0.00679   -0.26902
  1 Li   -0.00161   -0.00182   -0.26847
  2 Li   -0.00476    0.00777   -0.26862
  3 Li   -0.00177   -0.00171   -0.26808
  4 Li    0.00052    0.00098   -0.28603
  5 Li    0.00112   -0.00058   -0.26790
  6 Li    0.00766   -0.00513   -0.26866
  7 Li   -0.00045    0.00069   -0.26833
  8 Li   -0.00752   -0.00750   -0.26860
  9 Li   -0.00100   -0.00007    0.30834
 10 Li    0.01200    0.00030    0.25638
 11 Li   -0.01096    0.00009    0.26062
 12 Li    0.00092    0.01198    0.25607
 13 Li    0.00292    0.00217    0.25743
 14 Li   -0.00374    0.00505    0.25728
 15 Li   -0.00037   -0.01204    0.25952
 16 Li    0.00461   -0.00229    0.25703
 17 Li   -0.00377   -0.00465    0.25482
 18 Li    0.00522    0.00478    0.01329
 19 Li    0.00225    0.00096    0.04447
 20 Li   -0.00740    0.00892   -0.00008
 21 Li    0.00172    0.00240    0.04605
 22 Li   -0.00122   -0.00010    0.02496
 23 Li   -0.00040    0.00151    0.04939
 24 Li    0.00675   -0.00724   -0.00320
 25 Li    0.00226   -0.00076    0.04795
 26 Li   -0.00821   -0.00987   -0.00850
 27 Li    0.01597    0.01710   -6.24364
 28 Li    0.04502    0.00661   -0.04931
 29 Li   -0.04737    0.00317   -0.04953
 30 Li    0.00624    0.04673   -0.06089
 31 Li    0.00072   -0.00010   -0.02525
 32 Li   -0.00660    0.00949   -0.03107
 33 Li    0.00112   -0.04922   -0.04404
 34 Li    0.00878   -0.00880   -0.02923
 35 Li   -0.01098   -0.01314   -0.03304
 36 O     0.21507    0.12253    8.98348
 37 C     0.28219    0.55735    1.24483
 38 C    -0.01579    0.02412    0.08257
 39 H     0.01597   -0.04758   -0.00178
 40 H     0.10372    0.08098    0.34594
 41 H    -0.00506   -0.04855   -0.04820
 42 H    -0.02369    0.05316   -0.02328
 43 H    -0.00451    0.00625   -0.01980
 44 H    -0.86235    0.26057    2.73902
 45 N    -1.14276   -0.32429   -4.84578
 46 N     1.40861   -0.71553   -1.96097

System changes: positions 

Initializing position-dependent things.

Density initialized from wave functions
       .-----------------------.  
      /|                       |  
     / |                       |  
    /  |                       |  
   /   |                       |  
  /    |                       |  
 *     |                       |  
 |     |                       |  
 |     |                       |  
 |     |                       |  
 |     N                       |  
 |     |                       N  
 |   H |                 H     |  
 |  C  |                H  C   |  
 |     |                 O     |  
 |   Hi|     Li      Li        |  
 |     |                       |  
 | Li  |  LLi     LLi     Li   |  
 |     |                       |  
 Li    |LLi     LLi     Li     |  
 |   Li|     Li      Li        |  
 |    Li  Li  Li  Li  Li  Li   |  
 | Li  |   Li      Li          |  
 |     |Li      Li      Li     |  
 Li    | Li      Li            |  
 |    Li      Li      Li       |  
 |     |                       |  
 |     |                       |  
 |     |                       |  
 |     |                       |  
 |     |                       |  
 |     |                       |  
 |     .-----------------------.  
 |    /                       /   
 |   /                       /    
 |  /                       /     
 | /                       /      
 |/                       /       
 *-----------------------*        

Positions:
   0 Li     1.617037    1.617037   10.000000    ( 0.0000,  0.0000,  0.0000)
   1 Li     4.851111    1.617037   10.000000    ( 0.0000,  0.0000,  0.0000)
   2 Li     8.085185    1.617037   10.000000    ( 0.0000,  0.0000,  0.0000)
   3 Li     1.617037    4.851111   10.000000    ( 0.0000,  0.0000,  0.0000)
   4 Li     4.851111    4.851111   10.000000    ( 0.0000,  0.0000,  0.0000)
   5 Li     8.085185    4.851111   10.000000    ( 0.0000,  0.0000,  0.0000)
   6 Li     1.617037    8.085185   10.000000    ( 0.0000,  0.0000,  0.0000)
   7 Li     4.851111    8.085185   10.000000    ( 0.0000,  0.0000,  0.0000)
   8 Li     8.085185    8.085185   10.000000    ( 0.0000,  0.0000,  0.0000)
   9 Li     0.000000    0.000000   11.617037    ( 0.0000,  0.0000,  0.0000)
  10 Li     3.234074    0.000000   11.617037    ( 0.0000,  0.0000,  0.0000)
  11 Li     6.468148    0.000000   11.617037    ( 0.0000,  0.0000,  0.0000)
  12 Li     0.000000    3.234074   11.617037    ( 0.0000,  0.0000,  0.0000)
  13 Li     3.234074    3.234074   11.617037    ( 0.0000,  0.0000,  0.0000)
  14 Li     6.468148    3.234074   11.617037    ( 0.0000,  0.0000,  0.0000)
  15 Li     0.000000    6.468148   11.617037    ( 0.0000,  0.0000,  0.0000)
  16 Li     3.234074    6.468148   11.617037    ( 0.0000,  0.0000,  0.0000)
  17 Li     6.468148    6.468148   11.617037    ( 0.0000,  0.0000,  0.0000)
  18 Li     1.617066    1.617062   13.469842    ( 0.0000,  0.0000,  0.0000)
  19 Li     4.851131    1.617043   13.470075    ( 0.0000,  0.0000,  0.0000)
  20 Li     8.085137    1.617098   13.469728    ( 0.0000,  0.0000,  0.0000)
  21 Li     1.617051    4.851131   13.470086    ( 0.0000,  0.0000,  0.0000)
  22 Li     4.851100    4.851109   13.469929    ( 0.0000,  0.0000,  0.0000)
  23 Li     8.085183    4.851123   13.470115    ( 0.0000,  0.0000,  0.0000)
  24 Li     1.617079    8.085140   13.469708    ( 0.0000,  0.0000,  0.0000)
  25 Li     4.851130    8.085181   13.470103    ( 0.0000,  0.0000,  0.0000)
  26 Li     8.085131    8.085116   13.469662    ( 0.0000,  0.0000,  0.0000)
  27 Li     0.000108    0.000119   15.394348    ( 0.0000,  0.0000,  0.0000)
  28 Li     3.234367    0.000053   15.445601    ( 0.0000,  0.0000,  0.0000)
  29 Li     6.467834    0.000024   15.445592    ( 0.0000,  0.0000,  0.0000)
  30 Li     0.000052    3.234382   15.445509    ( 0.0000,  0.0000,  0.0000)
  31 Li     3.234085    3.234078   15.445743    ( 0.0000,  0.0000,  0.0000)
  32 Li     6.468087    3.234160   15.445694    ( 0.0000,  0.0000,  0.0000)
  33 Li     0.000010    6.467818   15.445637    ( 0.0000,  0.0000,  0.0000)
  34 Li     3.234151    6.468073   15.445711    ( 0.0000,  0.0000,  0.0000)
  35 Li     6.468052    6.468034   15.445678    ( 0.0000,  0.0000,  0.0000)
  36 O      9.700144    9.703061   19.725824    ( 0.0000,  0.0000,  0.0000)
  37 C     10.522391   10.890166   19.660058    ( 0.0000,  0.0000,  0.0000)
  38 C      9.699025   12.168885   19.636407    ( 0.0000,  0.0000,  0.0000)
  39 H     11.202101   10.875222   20.509999    ( 0.0000,  0.0000,  0.0000)
  40 H     11.129769   10.810081   18.749878    ( 0.0000,  0.0000,  0.0000)
  41 H     10.353330   13.045325   19.619893    ( 0.0000,  0.0000,  0.0000)
  42 H      9.050142   12.204003   18.758685    ( 0.0000,  0.0000,  0.0000)
  43 H      9.070877   12.239066   20.528041    ( 0.0000,  0.0000,  0.0000)
  44 H      9.114673    9.742796   20.433542    ( 0.0000,  0.0000,  0.0000)
  45 N      9.692724    9.699319   16.933355    ( 0.0000,  0.0000,  0.0000)
  46 N      9.714242    9.696584   17.997103    ( 0.0000,  0.0000,  0.0000)

Unit cell:
           periodic     x           y           z      points  spacing
  1. axis:    yes    9.702222    0.000000    0.000000    60     0.1617
  2. axis:    yes    0.000000    9.702222    0.000000    60     0.1617
  3. axis:    no     0.000000    0.000000   26.351111   164     0.1607

  Lengths:   9.702222   9.702222  26.351111
  Angles:   90.000000  90.000000  90.000000

Effective grid spacing dv^(1/3) = 0.1614

     iter     time        total  log10-change:
                         energy  eigst   dens
iter:   1 22:18:17  -303.929527  -0.86
iter:   2 22:18:24  -303.924117  -1.47  -1.96
iter:   3 22:18:32  -303.920744c -2.01  -2.09
iter:   4 22:18:39  -303.918182c -2.26  -2.24
Writing to output.gpw (mode='')

iter:   5 22:18:46  -303.901473c -1.80  -2.27
iter:   6 22:18:53  -303.900139c -1.64  -2.54
iter:   7 22:19:00  -303.899872c -2.37  -2.71
iter:   8 22:19:08  -303.900305c -2.51  -2.84
iter:   9 22:19:15  -303.899807c -2.67  -2.75
Writing to output.gpw (mode='')

iter:  10 22:19:22  -303.899869c -3.11  -2.93
iter:  11 22:19:29  -303.899797c -3.51  -2.94
iter:  12 22:19:36  -303.899809c -3.21  -3.02
iter:  13 22:19:49  -303.899786c -3.89  -3.11
iter:  14 22:19:56  -303.899821c -3.74  -3.23
Writing to output.gpw (mode='')

iter:  15 22:20:03  -303.899825c -4.21  -3.34
iter:  16 22:20:10  -303.899830c -4.38  -3.33
iter:  17 22:20:18  -303.899839c -4.30  -3.33
iter:  18 22:20:25  -303.899883c -4.16  -3.31
iter:  19 22:20:32  -303.899886c -4.67  -3.21
Writing to output.gpw (mode='')

iter:  20 22:20:39  -303.899919c -4.14  -3.20
iter:  21 22:20:46  -303.899832c -4.54  -3.11
iter:  22 22:20:53  -303.899821c -4.27  -3.28
iter:  23 22:21:01  -303.899795c -4.37  -3.31
iter:  24 22:21:08  -303.899787c -4.10  -3.55
Writing to output.gpw (mode='')

iter:  25 22:21:15  -303.899792c -4.28  -3.67
iter:  26 22:21:22  -303.899785c -5.16  -3.67
iter:  27 22:21:29  -303.899783c -5.24  -3.80
iter:  28 22:21:37  -303.899781c -5.66  -3.85
iter:  29 22:21:44  -303.899780c -5.50  -3.99
Writing to output.gpw (mode='')

iter:  30 22:21:51  -303.899781c -5.61  -4.03c
iter:  31 22:21:58  -303.899781c -5.82  -4.21c
iter:  32 22:22:05  -303.899781c -6.45  -4.29c
iter:  33 22:22:12  -303.899780c -6.02  -4.34c
iter:  34 22:22:20  -303.899780c -6.67  -4.49c
Writing to output.gpw (mode='')

iter:  35 22:22:27  -303.899780c -6.59  -4.53c
iter:  36 22:22:34  -303.899780c -6.50  -4.53c
iter:  37 22:22:41  -303.899781c -6.54  -4.53c
iter:  38 22:22:48  -303.899781c -6.18  -4.57c
iter:  39 22:22:55  -303.899781c -6.61  -4.82c
Writing to output.gpw (mode='')

iter:  40 22:23:03  -303.899781c -6.79  -4.93c
iter:  41 22:23:10  -303.899781c -7.59c -5.02c

Converged after 41 iterations.

Dipole moment: (-17.292893, -17.493543, 0.310650) |e|*Ang

Energy contributions relative to reference atoms: (reference = -14434.854043)

Kinetic:       +189.685370
Potential:     -173.706037
External:        +0.000000
XC:            -320.555295
Entropy (-ST):   -0.143267
Local:           +0.747815
--------------------------
Free energy:   -303.971414
Extrapolated:  -303.899781

Dipole-layer corrected work functions: 3.387797, 2.790621 eV

Showing only first 2 kpts
 Kpt  Band  Eigenvalues  Occupancy
  0    31     -3.33858    1.98645
  0    32     -3.27011    1.94773
  0    33     -2.90916    0.05314
  0    34     -2.84809    0.01597

  1    31     -3.12928    1.38052
  1    32     -3.07483    0.85724
  1    33     -3.06584    0.77049
  1    34     -2.99050    0.24387


Fermi level: -3.08921

No gap
Writing to output.gpw (mode='')


Forces in eV/Ang:
  0 Li    0.00634    0.00696   -0.26972
  1 Li   -0.00153   -0.00218   -0.26808
  2 Li   -0.00481    0.00792   -0.26944
  3 Li   -0.00211   -0.00169   -0.26776
  4 Li    0.00050    0.00099   -0.28657
  5 Li    0.00153   -0.00073   -0.26748
  6 Li    0.00779   -0.00525   -0.26941
  7 Li   -0.00056    0.00102   -0.26796
  8 Li   -0.00763   -0.00758   -0.26930
  9 Li   -0.00103   -0.00005    0.31181
 10 Li    0.01190    0.00031    0.25704
 11 Li   -0.01075    0.00011    0.26142
 12 Li    0.00094    0.01189    0.25664
 13 Li    0.00335    0.00252    0.25713
 14 Li   -0.00434    0.00567    0.25716
 15 Li   -0.00038   -0.01201    0.26021
 16 Li    0.00526   -0.00275    0.25687
 17 Li   -0.00429   -0.00513    0.25449
 18 Li    0.00977    0.00926    0.00566
 19 Li    0.00201    0.00104    0.04492
 20 Li   -0.01177    0.01357   -0.00741
 21 Li    0.00179    0.00227    0.04638
 22 Li   -0.00119   -0.00015    0.02487
 23 Li   -0.00056    0.00176    0.04971
 24 Li    0.01114   -0.01162   -0.01027
 25 Li    0.00243   -0.00077    0.04842
 26 Li   -0.01262   -0.01462   -0.01663
 27 Li    0.02484    0.02371   -5.96827
 28 Li    0.04378    0.00630   -0.04879
 29 Li   -0.04549    0.00355   -0.04748
 30 Li    0.00585    0.04475   -0.05928
 31 Li    0.00155    0.00085   -0.02593
 32 Li   -0.00700    0.00993   -0.03141
 33 Li    0.00141   -0.04720   -0.04250
 34 Li    0.00939   -0.00946   -0.02980
 35 Li   -0.01201   -0.01409   -0.03355
 36 O     1.16877    0.06123    6.55764
 37 C     0.09018    0.38647    1.19654
 38 C     0.00138    0.04677    0.08107
 39 H     0.15353    0.05528    0.11943
 40 H     0.01186    0.01246    0.42448
 41 H    -0.00935   -0.03101   -0.04605
 42 H    -0.01229    0.03521   -0.01498
 43 H    -0.01321    0.01884   -0.00745
 44 H    -1.53085    0.42894    3.33068
 45 N    -1.04988   -0.26458   -2.96816
 46 N     1.22022   -0.78481   -2.44731

System changes: positions 

Initializing position-dependent things.

Density initialized from wave functions
       .-----------------------.  
      /|                       |  
     / |                       |  
    /  |                       |  
   /   |                       |  
  /    |                       |  
 *     |                       |  
 |     |                       |  
 |     |                       |  
 |     |                       |  
 |     N                       |  
 |     |                       N  
 |   H |                 H     |  
 |  C  |                H  C   |  
 O     |                 H     |  
 |   Hi|     Li      Li        |  
 |     |                       |  
 | Li  |  LLi     LLi     Li   |  
 |     |                       |  
 Li    |LLi     LLi     Li     |  
 |   Li|     Li      Li        |  
 |    Li  Li  Li  Li  Li  Li   |  
 | Li  |   Li      Li          |  
 |     |Li      Li      Li     |  
 Li    | Li      Li            |  
 |    Li      Li      Li       |  
 |     |                       |  
 |     |                       |  
 |     |                       |  
 |     |                       |  
 |     |                       |  
 |     |                       |  
 |     .-----------------------.  
 |    /                       /   
 |   /                       /    
 |  /                       /     
 | /                       /      
 |/                       /       
 *-----------------------*        

Positions:
   0 Li     1.617037    1.617037   10.000000    ( 0.0000,  0.0000,  0.0000)
   1 Li     4.851111    1.617037   10.000000    ( 0.0000,  0.0000,  0.0000)
   2 Li     8.085185    1.617037   10.000000    ( 0.0000,  0.0000,  0.0000)
   3 Li     1.617037    4.851111   10.000000    ( 0.0000,  0.0000,  0.0000)
   4 Li     4.851111    4.851111   10.000000    ( 0.0000,  0.0000,  0.0000)
   5 Li     8.085185    4.851111   10.000000    ( 0.0000,  0.0000,  0.0000)
   6 Li     1.617037    8.085185   10.000000    ( 0.0000,  0.0000,  0.0000)
   7 Li     4.851111    8.085185   10.000000    ( 0.0000,  0.0000,  0.0000)
   8 Li     8.085185    8.085185   10.000000    ( 0.0000,  0.0000,  0.0000)
   9 Li     0.000000    0.000000   11.617037    ( 0.0000,  0.0000,  0.0000)
  10 Li     3.234074    0.000000   11.617037    ( 0.0000,  0.0000,  0.0000)
  11 Li     6.468148    0.000000   11.617037    ( 0.0000,  0.0000,  0.0000)
  12 Li     0.000000    3.234074   11.617037    ( 0.0000,  0.0000,  0.0000)
  13 Li     3.234074    3.234074   11.617037    ( 0.0000,  0.0000,  0.0000)
  14 Li     6.468148    3.234074   11.617037    ( 0.0000,  0.0000,  0.0000)
  15 Li     0.000000    6.468148   11.617037    ( 0.0000,  0.0000,  0.0000)
  16 Li     3.234074    6.468148   11.617037    ( 0.0000,  0.0000,  0.0000)
  17 Li     6.468148    6.468148   11.617037    ( 0.0000,  0.0000,  0.0000)
  18 Li     1.617154    1.617147   13.469848    ( 0.0000,  0.0000,  0.0000)
  19 Li     4.851144    1.617051   13.470390    ( 0.0000,  0.0000,  0.0000)
  20 Li     8.085036    1.617213   13.469646    ( 0.0000,  0.0000,  0.0000)
  21 Li     1.617064    4.851146   13.470410    ( 0.0000,  0.0000,  0.0000)
  22 Li     4.851092    4.851108   13.470102    ( 0.0000,  0.0000,  0.0000)
  23 Li     8.085178    4.851136   13.470462    ( 0.0000,  0.0000,  0.0000)
  24 Li     1.617176    8.085039   13.469607    ( 0.0000,  0.0000,  0.0000)
  25 Li     4.851148    8.085175   13.470443    ( 0.0000,  0.0000,  0.0000)
  26 Li     8.085023    8.084994   13.469513    ( 0.0000,  0.0000,  0.0000)
  27 Li     0.000320    0.000314   15.354350    ( 0.0000,  0.0000,  0.0000)
  28 Li     3.234675    0.000095   15.445257    ( 0.0000,  0.0000,  0.0000)
  29 Li     6.467517    0.000050   15.445264    ( 0.0000,  0.0000,  0.0000)
  30 Li     0.000090    3.234694   15.445096    ( 0.0000,  0.0000,  0.0000)
  31 Li     3.234099    3.234088   15.445560    ( 0.0000,  0.0000,  0.0000)
  32 Li     6.468037    3.234230   15.445474    ( 0.0000,  0.0000,  0.0000)
  33 Li     0.000021    6.467490   15.445341    ( 0.0000,  0.0000,  0.0000)
  34 Li     3.234218    6.468005   15.445501    ( 0.0000,  0.0000,  0.0000)
  35 Li     6.467965    6.467933   15.445443    ( 0.0000,  0.0000,  0.0000)
  36 O      9.712765    9.703251   19.760044    ( 0.0000,  0.0000,  0.0000)
  37 C     10.522050   10.891978   19.668174    ( 0.0000,  0.0000,  0.0000)
  38 C      9.699136   12.169325   19.636957    ( 0.0000,  0.0000,  0.0000)
  39 H     11.203816   10.876092   20.511387    ( 0.0000,  0.0000,  0.0000)
  40 H     11.129436   10.809855   18.753196    ( 0.0000,  0.0000,  0.0000)
  41 H     10.353238   13.045191   19.619581    ( 0.0000,  0.0000,  0.0000)
  42 H      9.050105   12.204169   18.758618    ( 0.0000,  0.0000,  0.0000)
  43 H      9.070743   12.239251   20.528051    ( 0.0000,  0.0000,  0.0000)
  44 H      9.100942    9.746569   20.459464    ( 0.0000,  0.0000,  0.0000)
  45 N      9.685850    9.697745   16.916760    ( 0.0000,  0.0000,  0.0000)
  46 N      9.721778    9.690809   17.982452    ( 0.0000,  0.0000,  0.0000)

Unit cell:
           periodic     x           y           z      points  spacing
  1. axis:    yes    9.702222    0.000000    0.000000    60     0.1617
  2. axis:    yes    0.000000    9.702222    0.000000    60     0.1617
  3. axis:    no     0.000000    0.000000   26.351111   164     0.1607

  Lengths:   9.702222   9.702222  26.351111
  Angles:   90.000000  90.000000  90.000000

Effective grid spacing dv^(1/3) = 0.1614

     iter     time        total  log10-change:
                         energy  eigst   dens
iter:   1 22:23:18  -304.558469  -0.83
iter:   2 22:23:26  -304.559929  -1.60  -2.14
iter:   3 22:23:33  -304.559199c -2.11  -2.26
iter:   4 22:23:40  -304.555775c -1.81  -2.36
Writing to output.gpw (mode='')

iter:   5 22:23:47  -304.555587c -2.18  -2.45
iter:   6 22:23:54  -304.555594c -2.39  -2.59
iter:   7 22:24:02  -304.555388c -2.86  -2.83
iter:   8 22:24:09  -304.555395c -2.93  -3.03
iter:   9 22:24:16  -304.555413c -3.63  -3.06
Writing to output.gpw (mode='')

iter:  10 22:24:23  -304.555415c -3.99  -3.10
iter:  11 22:24:30  -304.555411c -4.02  -3.15
iter:  12 22:24:39  -304.555431c -3.70  -3.16
iter:  13 22:24:50  -304.555414c -4.31  -3.27
iter:  14 22:24:58  -304.555418c -4.43  -3.37
Writing to output.gpw (mode='')

iter:  15 22:25:05  -304.555396c -4.50  -3.44
iter:  16 22:25:12  -304.555393c -4.65  -3.81
iter:  17 22:25:19  -304.555393c -5.12  -3.93
iter:  18 22:25:27  -304.555389c -5.57  -4.02c
iter:  19 22:25:34  -304.555387c -5.62  -4.09c
Writing to output.gpw (mode='')

iter:  20 22:25:41  -304.555385c -5.73  -4.23c
iter:  21 22:25:48  -304.555386c -5.84  -4.33c
iter:  22 22:25:55  -304.555388c -6.02  -4.45c
iter:  23 22:26:02  -304.555388c -6.40  -4.48c
iter:  24 22:26:13  -304.555389c -6.54  -4.65c
Writing to output.gpw (mode='')

iter:  25 22:26:20  -304.555389c -6.70  -4.80c
iter:  26 22:26:27  -304.555388c -6.89  -4.87c
iter:  27 22:26:34  -304.555388c -7.00  -4.91c
iter:  28 22:26:42  -304.555388c -7.08  -5.13c
iter:  29 22:26:49  -304.555388c -7.31  -5.20c
Writing to output.gpw (mode='')

iter:  30 22:26:56  -304.555388c -7.30  -5.23c
iter:  31 22:27:03  -304.555389c -7.72c -5.42c

Converged after 31 iterations.

Dipole moment: (-18.378961, -16.883163, 0.301386) |e|*Ang

Energy contributions relative to reference atoms: (reference = -14434.854043)

Kinetic:       +185.959702
Potential:     -171.127584
External:        +0.000000
XC:            -320.064084
Entropy (-ST):   -0.142757
Local:           +0.747956
--------------------------
Free energy:   -304.626767
Extrapolated:  -304.555389

Dipole-layer corrected work functions: 3.387805, 2.808438 eV

Showing only first 2 kpts
 Kpt  Band  Eigenvalues  Occupancy
  0    31     -3.34834    1.98667
  0    32     -3.28008    1.94880
  0    33     -2.91546    0.05051
  0    34     -2.85876    0.01653

  1    31     -3.13602    1.36187
  1    32     -3.08416    0.86128
  1    33     -3.07599    0.78227
  1    34     -2.99656    0.23191


Fermi level: -3.09812

No gap
Writing to output.gpw (mode='')


Forces in eV/Ang:
  0 Li    0.00634    0.00706   -0.27060
  1 Li   -0.00144   -0.00256   -0.26749
  2 Li   -0.00489    0.00796   -0.27046
  3 Li   -0.00243   -0.00164   -0.26724
  4 Li    0.00050    0.00098   -0.28726
  5 Li    0.00196   -0.00082   -0.26684
  6 Li    0.00782   -0.00537   -0.27031
  7 Li   -0.00060    0.00136   -0.26740
  8 Li   -0.00769   -0.00758   -0.27026
  9 Li   -0.00113   -0.00003    0.31655
 10 Li    0.01182    0.00031    0.25780
 11 Li   -0.01044    0.00014    0.26234
 12 Li    0.00095    0.01170    0.25743
 13 Li    0.00398    0.00302    0.25671
 14 Li   -0.00510    0.00650    0.25677
 15 Li   -0.00032   -0.01192    0.26098
 16 Li    0.00593   -0.00329    0.25655
 17 Li   -0.00499   -0.00587    0.25408
 18 Li    0.01664    0.01585   -0.00466
 19 Li    0.00188    0.00126    0.04512
 20 Li   -0.01846    0.02054   -0.01760
 21 Li    0.00198    0.00215    0.04647
 22 Li   -0.00118   -0.00016    0.02445
 23 Li   -0.00086    0.00189    0.04972
 24 Li    0.01773   -0.01805   -0.01967
 25 Li    0.00252   -0.00095    0.04854
 26 Li   -0.01916   -0.02157   -0.02690
 27 Li    0.03080    0.03041   -5.24807
 28 Li    0.04448    0.00598   -0.04942
 29 Li   -0.04552    0.00372   -0.04681
 30 Li    0.00544    0.04499   -0.05873
 31 Li    0.00214    0.00156   -0.02626
 32 Li   -0.00721    0.01008   -0.03137
 33 Li    0.00153   -0.04723   -0.04257
 34 Li    0.00969   -0.00981   -0.03000
 35 Li   -0.01252   -0.01448   -0.03362
 36 O     0.75203   -0.04376    5.76689
 37 C     0.11140    0.33702    1.06639
 38 C    -0.02066    0.04553    0.09292
 39 H     0.27391    0.17194    0.21534
 40 H    -0.06787   -0.01880    0.51205
 41 H    -0.00379   -0.01327   -0.04345
 42 H    -0.00009    0.01842   -0.00318
 43 H    -0.02655    0.03991    0.00239
 44 H    -1.04740    0.48432    2.50516
 45 N    -1.05608   -0.18644   -3.05877
 46 N     1.04364   -0.88591   -1.60118

System changes: positions 

Initializing position-dependent things.

Density initialized from wave functions
       .-----------------------.  
      /|                       |  
     / |                       |  
    /  |                       |  
   /   |                       |  
  /    |                       |  
 *     |                       |  
 |     |                       |  
 |     O                       |  
 |     |                       |  
 |     N                       |  
 |     |                       N  
 |   H |                 H     |  
 |  C  |                H  C   |  
 |     |                 H     |  
 |   Hi|     Li      Li        |  
 |     |                       |  
 | Li  |  LLi     LLi     Li   |  
 |     |                       |  
 Li    |LLi     LLi     Li     |  
 |   Li|     Li      Li        |  
 |    Li  Li  Li  Li  Li  Li   |  
 | Li  |   Li      Li          |  
 |     |Li      Li      Li     |  
 Li    | Li      Li            |  
 |    Li      Li      Li       |  
 |     |                       |  
 |     |                       |  
 |     |                       |  
 |     |                       |  
 |     |                       |  
 |     |                       |  
 |     .-----------------------.  
 |    /                       /   
 |   /                       /    
 |  /                       /     
 | /                       /      
 |/                       /       
 *-----------------------*        

Positions:
   0 Li     1.617037    1.617037   10.000000    ( 0.0000,  0.0000,  0.0000)
   1 Li     4.851111    1.617037   10.000000    ( 0.0000,  0.0000,  0.0000)
   2 Li     8.085185    1.617037   10.000000    ( 0.0000,  0.0000,  0.0000)
   3 Li     1.617037    4.851111   10.000000    ( 0.0000,  0.0000,  0.0000)
   4 Li     4.851111    4.851111   10.000000    ( 0.0000,  0.0000,  0.0000)
   5 Li     8.085185    4.851111   10.000000    ( 0.0000,  0.0000,  0.0000)
   6 Li     1.617037    8.085185   10.000000    ( 0.0000,  0.0000,  0.0000)
   7 Li     4.851111    8.085185   10.000000    ( 0.0000,  0.0000,  0.0000)
   8 Li     8.085185    8.085185   10.000000    ( 0.0000,  0.0000,  0.0000)
   9 Li     0.000000    0.000000   11.617037    ( 0.0000,  0.0000,  0.0000)
  10 Li     3.234074    0.000000   11.617037    ( 0.0000,  0.0000,  0.0000)
  11 Li     6.468148    0.000000   11.617037    ( 0.0000,  0.0000,  0.0000)
  12 Li     0.000000    3.234074   11.617037    ( 0.0000,  0.0000,  0.0000)
  13 Li     3.234074    3.234074   11.617037    ( 0.0000,  0.0000,  0.0000)
  14 Li     6.468148    3.234074   11.617037    ( 0.0000,  0.0000,  0.0000)
  15 Li     0.000000    6.468148   11.617037    ( 0.0000,  0.0000,  0.0000)
  16 Li     3.234074    6.468148   11.617037    ( 0.0000,  0.0000,  0.0000)
  17 Li     6.468148    6.468148   11.617037    ( 0.0000,  0.0000,  0.0000)
  18 Li     1.617362    1.617346   13.469708    ( 0.0000,  0.0000,  0.0000)
  19 Li     4.851158    1.617064   13.470785    ( 0.0000,  0.0000,  0.0000)
  20 Li     8.084814    1.617456   13.469396    ( 0.0000,  0.0000,  0.0000)
  21 Li     1.617082    4.851164   13.470816    ( 0.0000,  0.0000,  0.0000)
  22 Li     4.851082    4.851107   13.470311    ( 0.0000,  0.0000,  0.0000)
  23 Li     8.085168    4.851155   13.470896    ( 0.0000,  0.0000,  0.0000)
  24 Li     1.617391    8.084822   13.469345    ( 0.0000,  0.0000,  0.0000)
  25 Li     4.851171    8.085166   13.470867    ( 0.0000,  0.0000,  0.0000)
  26 Li     8.084796    8.084742   13.469178    ( 0.0000,  0.0000,  0.0000)
  27 Li     0.000668    0.000651   15.314352    ( 0.0000,  0.0000,  0.0000)
  28 Li     3.235059    0.000143   15.444827    ( 0.0000,  0.0000,  0.0000)
  29 Li     6.467132    0.000086   15.444873    ( 0.0000,  0.0000,  0.0000)
  30 Li     0.000133    3.235075   15.444598    ( 0.0000,  0.0000,  0.0000)
  31 Li     3.234125    3.234110   15.445326    ( 0.0000,  0.0000,  0.0000)
  32 Li     6.467971    3.234321   15.445200    ( 0.0000,  0.0000,  0.0000)
  33 Li     0.000036    6.467091   15.444980    ( 0.0000,  0.0000,  0.0000)
  34 Li     3.234307    6.467914   15.445236    ( 0.0000,  0.0000,  0.0000)
  35 Li     6.467848    6.467800   15.445148    ( 0.0000,  0.0000,  0.0000)
  36 O      9.721817    9.701945   19.793011    ( 0.0000,  0.0000,  0.0000)
  37 C     10.522151   10.893739   19.676431    ( 0.0000,  0.0000,  0.0000)
  38 C      9.698917   12.169830   19.637825    ( 0.0000,  0.0000,  0.0000)
  39 H     11.207601   10.878791   20.514438    ( 0.0000,  0.0000,  0.0000)
  40 H     11.127910   10.809156   18.758554    ( 0.0000,  0.0000,  0.0000)
  41 H     10.353216   13.045269   19.619230    ( 0.0000,  0.0000,  0.0000)
  42 H      9.050234   12.204139   18.758701    ( 0.0000,  0.0000,  0.0000)
  43 H      9.070391   12.239785   20.528192    ( 0.0000,  0.0000,  0.0000)
  44 H      9.091182    9.751965   20.479507    ( 0.0000,  0.0000,  0.0000)
  45 N      9.677124    9.696887   16.899602    ( 0.0000,  0.0000,  0.0000)
  46 N      9.728849    9.682174   17.970708    ( 0.0000,  0.0000,  0.0000)

Unit cell:
           periodic     x           y           z      points  spacing
  1. axis:    yes    9.702222    0.000000    0.000000    60     0.1617
  2. axis:    yes    0.000000    9.702222    0.000000    60     0.1617
  3. axis:    no     0.000000    0.000000   26.351111   164     0.1607

  Lengths:   9.702222   9.702222  26.351111
  Angles:   90.000000  90.000000  90.000000

Effective grid spacing dv^(1/3) = 0.1614

     iter     time        total  log10-change:
                         energy  eigst   dens
iter:   1 22:27:11  -305.100617  -0.85
iter:   2 22:27:19  -305.103094  -1.64  -2.26
iter:   3 22:27:26  -305.103434c -2.12  -2.28
iter:   4 22:27:33  -305.103530c -2.46  -2.33
Writing to output.gpw (mode='')

iter:   5 22:27:40  -305.106138c -2.52  -2.33
iter:   6 22:27:47  -305.102617c -2.25  -2.26
iter:   7 22:27:54  -305.103277c -1.65  -2.37
iter:   8 22:28:01  -305.098902c -2.72  -2.26
iter:   9 22:28:08  -305.097748c -2.29  -2.47
Writing to output.gpw (mode='')

iter:  10 22:28:16  -305.097942c -2.82  -2.68
iter:  11 22:28:23  -305.097666c -2.49  -2.64
iter:  12 22:28:30  -305.097585c -3.28  -2.84
iter:  13 22:28:37  -305.097505c -3.65  -2.95
iter:  14 22:28:44  -305.097420c -4.09  -3.01
Writing to output.gpw (mode='')

iter:  15 22:28:51  -305.097394c -3.71  -3.21
iter:  16 22:28:59  -305.097394c -4.47  -3.32
iter:  17 22:29:06  -305.097435c -4.17  -3.47
iter:  18 22:29:13  -305.097417c -4.42  -3.47
iter:  19 22:29:20  -305.097412c -4.84  -3.68
Writing to output.gpw (mode='')

iter:  20 22:29:27  -305.097405c -5.17  -3.78
iter:  21 22:29:34  -305.097397c -5.14  -3.89
iter:  22 22:29:47  -305.097394c -5.52  -3.96
iter:  23 22:29:55  -305.097393c -5.44  -4.14c
iter:  24 22:30:03  -305.097393c -5.80  -4.22c
Writing to output.gpw (mode='')

iter:  25 22:30:12  -305.097395c -5.79  -4.30c
iter:  26 22:30:22  -305.097395c -6.35  -4.28c
iter:  27 22:30:31  -305.097394c -6.08  -4.38c
iter:  28 22:30:38  -305.097393c -6.62  -4.67c
iter:  29 22:30:45  -305.097393c -6.75  -4.74c
Writing to output.gpw (mode='')

iter:  30 22:30:52  -305.097393c -7.08  -4.82c
iter:  31 22:31:00  -305.097395c -6.88  -4.94c
iter:  32 22:31:07  -305.097395c -7.11  -5.05c
iter:  33 22:31:14  -305.097395c -7.33  -5.14c
iter:  34 22:31:21  -305.097395c -7.24  -5.19c
Writing to output.gpw (mode='')

iter:  35 22:31:28  -305.097395c -7.48c -5.36c

Converged after 35 iterations.

Dipole moment: (-18.829462, -15.936836, 0.290292) |e|*Ang

Energy contributions relative to reference atoms: (reference = -14434.854043)

Kinetic:       +182.232786
Potential:     -168.457838
External:        +0.000000
XC:            -319.549304
Entropy (-ST):   -0.142245
Local:           +0.748084
--------------------------
Free energy:   -305.168517
Extrapolated:  -305.097395

Dipole-layer corrected work functions: 3.388047, 2.830007 eV

Showing only first 2 kpts
 Kpt  Band  Eigenvalues  Occupancy
  0    31     -3.35994    1.98685
  0    32     -3.29210    1.94990
  0    33     -2.92364    0.04789
  0    34     -2.87191    0.01729

  1    31     -3.14476    1.34283
  1    32     -3.09576    0.86811
  1    33     -3.08810    0.79375
  1    34     -3.00396    0.21793


Fermi level: -3.10903

No gap

Forces in eV/Ang:
  0 Li    0.00639    0.00722   -0.27164
  1 Li   -0.00140   -0.00300   -0.26694
  2 Li   -0.00498    0.00809   -0.27166
  3 Li   -0.00280   -0.00164   -0.26682
  4 Li    0.00051    0.00096   -0.28808
  5 Li    0.00245   -0.00091   -0.26624
  6 Li    0.00793   -0.00551   -0.27133
  7 Li   -0.00064    0.00174   -0.26690
  8 Li   -0.00780   -0.00766   -0.27135
  9 Li   -0.00129    0.00005    0.32133
 10 Li    0.01182    0.00031    0.25859
 11 Li   -0.01007    0.00016    0.26350
 12 Li    0.00101    0.01153    0.25833
 13 Li    0.00477    0.00355    0.25631
 14 Li   -0.00602    0.00753    0.25635
 15 Li   -0.00023   -0.01194    0.26184
 16 Li    0.00670   -0.00383    0.25622
 17 Li   -0.00582   -0.00681    0.25365
 18 Li    0.02392    0.02274   -0.01523
 19 Li    0.00187    0.00144    0.04536
 20 Li   -0.02559    0.02806   -0.02859
 21 Li    0.00216    0.00206    0.04651
 22 Li   -0.00123   -0.00018    0.02400
 23 Li   -0.00112    0.00197    0.04976
 24 Li    0.02455   -0.02473   -0.02932
 25 Li    0.00264   -0.00105    0.04866
 26 Li   -0.02592   -0.02899   -0.03759
 27 Li    0.03619    0.03668   -4.59521
 28 Li    0.04386    0.00577   -0.04929
 29 Li   -0.04421    0.00382   -0.04522
 30 Li    0.00520    0.04387   -0.05740
 31 Li    0.00277    0.00233   -0.02661
 32 Li   -0.00773    0.01058   -0.03139
 33 Li    0.00163   -0.04588   -0.04184
 34 Li    0.01019   -0.01036   -0.03018
 35 Li   -0.01323   -0.01512   -0.03369
 36 O     0.79310   -0.07520    4.84126
 37 C     0.08708    0.26746    1.01920
 38 C    -0.02520    0.03623    0.10210
 39 H     0.33195    0.26060    0.25907
 40 H    -0.11295   -0.05926    0.54034
 41 H    -0.00411   -0.00520   -0.03959
 42 H     0.00927    0.00197    0.00533
 43 H    -0.04135    0.06098    0.01554
 44 H    -0.90932    0.55237    2.15259
 45 N    -1.01190   -0.09382   -2.49372
 46 N     0.87829   -0.91935   -1.50900

System changes: positions 

Initializing position-dependent things.

Density initialized from wave functions
       .-----------------------.  
      /|                       |  
     / |                       |  
    /  |                       |  
   /   |                       |  
  /    |                       |  
 *     |                       |  
 |     |                       |  
 |     O                       |  
 |     |                       |  
 |     N                       |  
 |     |                       |  
 |   H |                 H     N  
 |  C  |                H  C   |  
 |     |                 H     |  
 |   Hi|     Li      Li        |  
 |     |                       |  
 | Li  |  LLi     LLi     Li   |  
 |     |                       |  
 Li    |LLi     LLi     Li     |  
 |   Li|     Li      Li        |  
 |    Li  Li  Li  Li  Li  Li   |  
 | Li  |   Li      Li          |  
 |     |Li      Li      Li     |  
 Li    | Li      Li            |  
 |    Li      Li      Li       |  
 |     |                       |  
 |     |                       |  
 |     |                       |  
 |     |                       |  
 |     |                       |  
 |     |                       |  
 |     .-----------------------.  
 |    /                       /   
 |   /                       /    
 |  /                       /     
 | /                       /      
 |/                       /       
 *-----------------------*        

Positions:
   0 Li     1.617037    1.617037   10.000000    ( 0.0000,  0.0000,  0.0000)
   1 Li     4.851111    1.617037   10.000000    ( 0.0000,  0.0000,  0.0000)
   2 Li     8.085185    1.617037   10.000000    ( 0.0000,  0.0000,  0.0000)
   3 Li     1.617037    4.851111   10.000000    ( 0.0000,  0.0000,  0.0000)
   4 Li     4.851111    4.851111   10.000000    ( 0.0000,  0.0000,  0.0000)
   5 Li     8.085185    4.851111   10.000000    ( 0.0000,  0.0000,  0.0000)
   6 Li     1.617037    8.085185   10.000000    ( 0.0000,  0.0000,  0.0000)
   7 Li     4.851111    8.085185   10.000000    ( 0.0000,  0.0000,  0.0000)
   8 Li     8.085185    8.085185   10.000000    ( 0.0000,  0.0000,  0.0000)
   9 Li     0.000000    0.000000   11.617037    ( 0.0000,  0.0000,  0.0000)
  10 Li     3.234074    0.000000   11.617037    ( 0.0000,  0.0000,  0.0000)
  11 Li     6.468148    0.000000   11.617037    ( 0.0000,  0.0000,  0.0000)
  12 Li     0.000000    3.234074   11.617037    ( 0.0000,  0.0000,  0.0000)
  13 Li     3.234074    3.234074   11.617037    ( 0.0000,  0.0000,  0.0000)
  14 Li     6.468148    3.234074   11.617037    ( 0.0000,  0.0000,  0.0000)
  15 Li     0.000000    6.468148   11.617037    ( 0.0000,  0.0000,  0.0000)
  16 Li     3.234074    6.468148   11.617037    ( 0.0000,  0.0000,  0.0000)
  17 Li     6.468148    6.468148   11.617037    ( 0.0000,  0.0000,  0.0000)
  18 Li     1.617711    1.617678   13.469402    ( 0.0000,  0.0000,  0.0000)
  19 Li     4.851176    1.617082   13.471270    ( 0.0000,  0.0000,  0.0000)
  20 Li     8.084450    1.617851   13.468948    ( 0.0000,  0.0000,  0.0000)
  21 Li     1.617107    4.851184   13.471311    ( 0.0000,  0.0000,  0.0000)
  22 Li     4.851069    4.851104   13.470560    ( 0.0000,  0.0000,  0.0000)
  23 Li     8.085153    4.851178   13.471424    ( 0.0000,  0.0000,  0.0000)
  24 Li     1.617742    8.084471   13.468901    ( 0.0000,  0.0000,  0.0000)
  25 Li     4.851201    8.085153   13.471386    ( 0.0000,  0.0000,  0.0000)
  26 Li     8.084431    8.084337   13.468632    ( 0.0000,  0.0000,  0.0000)
  27 Li     0.001151    0.001138   15.274358    ( 0.0000,  0.0000,  0.0000)
  28 Li     3.235520    0.000200   15.444303    ( 0.0000,  0.0000,  0.0000)
  29 Li     6.466677    0.000129   15.444414    ( 0.0000,  0.0000,  0.0000)
  30 Li     0.000183    3.235528   15.444006    ( 0.0000,  0.0000,  0.0000)
  31 Li     3.234165    3.234147   15.445038    ( 0.0000,  0.0000,  0.0000)
  32 Li     6.467884    3.234438   15.444867    ( 0.0000,  0.0000,  0.0000)
  33 Li     0.000056    6.466620   15.444546    ( 0.0000,  0.0000,  0.0000)
  34 Li     3.234422    6.467797   15.444912    ( 0.0000,  0.0000,  0.0000)
  35 Li     6.467697    6.467631   15.444788    ( 0.0000,  0.0000,  0.0000)
  36 O      9.732415    9.700136   19.824142    ( 0.0000,  0.0000,  0.0000)
  37 C     10.522187   10.895153   19.686038    ( 0.0000,  0.0000,  0.0000)
  38 C      9.698586   12.170263   19.639011    ( 0.0000,  0.0000,  0.0000)
  39 H     11.212703   10.883118   20.518483    ( 0.0000,  0.0000,  0.0000)
  40 H     11.125628   10.807840   18.765259    ( 0.0000,  0.0000,  0.0000)
  41 H     10.353181   13.045433   19.618855    ( 0.0000,  0.0000,  0.0000)
  42 H      9.050499   12.203902   18.758904    ( 0.0000,  0.0000,  0.0000)
  43 H      9.069763   12.240711   20.528535    ( 0.0000,  0.0000,  0.0000)
  44 H      9.081944    9.759228   20.498558    ( 0.0000,  0.0000,  0.0000)
  45 N      9.667026    9.697071   16.883269    ( 0.0000,  0.0000,  0.0000)
  46 N      9.735451    9.671399   17.958520    ( 0.0000,  0.0000,  0.0000)

Unit cell:
           periodic     x           y           z      points  spacing
  1. axis:    yes    9.702222    0.000000    0.000000    60     0.1617
  2. axis:    yes    0.000000    9.702222    0.000000    60     0.1617
  3. axis:    no     0.000000    0.000000   26.351111   164     0.1607

  Lengths:   9.702222   9.702222  26.351111
  Angles:   90.000000  90.000000  90.000000

Effective grid spacing dv^(1/3) = 0.1614

     iter     time        total  log10-change:
                         energy  eigst   dens
iter:   1 22:31:37  -305.568647  -0.84
iter:   2 22:31:44  -305.569876  -1.60  -2.17
iter:   3 22:31:51  -305.569629c -2.13  -2.23
iter:   4 22:31:58  -305.568537c -2.45  -2.32
Writing to output.gpw (mode='')

iter:   5 22:32:05  -305.564291c -1.90  -2.36
iter:   6 22:32:12  -305.564608c -2.41  -2.70
iter:   7 22:32:20  -305.564625c -2.77  -2.73
iter:   8 22:32:27  -305.564494c -2.84  -2.81
iter:   9 22:32:34  -305.564492c -3.14  -2.96
Writing to output.gpw (mode='')

iter:  10 22:32:41  -305.564447c -3.49  -3.01
iter:  11 22:32:48  -305.564461c -3.93  -3.16
iter:  12 22:32:56  -305.564497c -3.53  -3.13
iter:  13 22:33:03  -305.564439c -4.39  -3.08
iter:  14 22:33:10  -305.564444c -3.79  -3.26
Writing to output.gpw (mode='')

iter:  15 22:33:17  -305.564436c -4.33  -3.38
iter:  16 22:33:24  -305.564392c -4.36  -3.39
iter:  17 22:33:32  -305.564386c -4.31  -3.51
iter:  18 22:33:39  -305.564384c -4.88  -3.78
iter:  19 22:33:46  -305.564387c -5.07  -3.85
Writing to output.gpw (mode='')

iter:  20 22:33:53  -305.564386c -5.48  -4.09c
iter:  21 22:34:00  -305.564391c -5.66  -4.10c
iter:  22 22:34:08  -305.564390c -5.95  -4.23c
iter:  23 22:34:15  -305.564388c -5.81  -4.30c
iter:  24 22:34:22  -305.564386c -6.23  -4.33c
Writing to output.gpw (mode='')

iter:  25 22:34:29  -305.564385c -6.48  -4.49c
iter:  26 22:34:37  -305.564386c -6.42  -4.55c
iter:  27 22:34:49  -305.564386c -6.56  -4.76c
iter:  28 22:34:56  -305.564386c -6.89  -4.77c
iter:  29 22:35:04  -305.564387c -7.14  -4.81c
Writing to output.gpw (mode='')

iter:  30 22:35:11  -305.564387c -6.99  -5.00c
iter:  31 22:35:18  -305.564387c -7.11  -5.09c
iter:  32 22:35:25  -305.564387c -7.55c -5.27c

Converged after 32 iterations.

Dipole moment: (-19.138749, -14.837188, 0.278232) |e|*Ang

Energy contributions relative to reference atoms: (reference = -14434.854043)

Kinetic:       +178.815840
Potential:     -166.005938
External:        +0.000000
XC:            -319.052181
Entropy (-ST):   -0.141767
Local:           +0.748775
--------------------------
Free energy:   -305.635270
Extrapolated:  -305.564387

Dipole-layer corrected work functions: 3.388271, 2.853413 eV

Showing only first 2 kpts
 Kpt  Band  Eigenvalues  Occupancy
  0    31     -3.37239    1.98702
  0    32     -3.30498    1.95093
  0    33     -2.93284    0.04551
  0    34     -2.88579    0.01801

  1    31     -3.15446    1.32410
  1    32     -3.10860    0.87819
  1    33     -3.10092    0.80336
  1    34     -3.01221    0.20445


Fermi level: -3.12084

No gap
Writing to output.gpw (mode='')


Forces in eV/Ang:
  0 Li    0.00642    0.00735   -0.27275
  1 Li   -0.00140   -0.00348   -0.26634
  2 Li   -0.00504    0.00818   -0.27292
  3 Li   -0.00319   -0.00167   -0.26638
  4 Li    0.00051    0.00092   -0.28892
  5 Li    0.00300   -0.00097   -0.26559
  6 Li    0.00799   -0.00562   -0.27238
  7 Li   -0.00067    0.00216   -0.26640
  8 Li   -0.00787   -0.00772   -0.27251
  9 Li   -0.00149    0.00017    0.32585
 10 Li    0.01188    0.00030    0.25941
 11 Li   -0.00968    0.00017    0.26477
 12 Li    0.00108    0.01132    0.25935
 13 Li    0.00572    0.00418    0.25596
 14 Li   -0.00710    0.00872    0.25589
 15 Li   -0.00012   -0.01203    0.26273
 16 Li    0.00749   -0.00440    0.25594
 17 Li   -0.00676   -0.00792    0.25328
 18 Li    0.03164    0.02992   -0.02586
 19 Li    0.00196    0.00165    0.04538
 20 Li   -0.03316    0.03603   -0.03991
 21 Li    0.00237    0.00201    0.04629
 22 Li   -0.00132   -0.00019    0.02333
 23 Li   -0.00140    0.00196    0.04957
 24 Li    0.03162   -0.03165   -0.03883
 25 Li    0.00274   -0.00117    0.04852
 26 Li   -0.03285   -0.03672   -0.04801
 27 Li    0.03849    0.04190   -3.98146
 28 Li    0.04313    0.00563   -0.04920
 29 Li   -0.04287    0.00380   -0.04379
 30 Li    0.00506    0.04277   -0.05601
 31 Li    0.00330    0.00302   -0.02685
 32 Li   -0.00829    0.01113   -0.03136
 33 Li    0.00163   -0.04447   -0.04140
 34 Li    0.01070   -0.01091   -0.03031
 35 Li   -0.01384   -0.01565   -0.03367
 36 O     0.59591   -0.08777    4.13774
 37 C     0.10116    0.21800    0.95006
 38 C    -0.02994    0.02294    0.11484
 39 H     0.36851    0.33478    0.28454
 40 H    -0.14376   -0.09032    0.55527
 41 H    -0.00649   -0.00439   -0.03442
 42 H     0.01865   -0.01583    0.01445
 43 H    -0.05678    0.08331    0.02815
 44 H    -0.70520    0.57984    1.74424
 45 N    -0.96621   -0.01367   -2.06802
 46 N     0.77170   -1.00166   -1.46101

System changes: positions 

Initializing position-dependent things.

Density initialized from wave functions
       .-----------------------.  
      /|                       |  
     / |                       |  
    /  |                       |  
   /   |                       |  
  /    |                       |  
 *     |                       |  
 |     |                       |  
 |     O                       |  
 |     |                       |  
 |     N                       |  
 |     |                 H     |  
 |   H |                       N  
 |  C  |               H   C   |  
 |     |                 H     |  
 |   Hi|     Li      Li        |  
 |     |                       |  
 | Li  |  LLi     LLi     Li   |  
 |     |                       |  
 Li    |LLi     LLi     Li     |  
 |   Li|     Li      Li        |  
 |    Li  Li  Li  Li  Li  Li   |  
 | Li  |   Li      Li          |  
 |     |Li      Li      Li     |  
 Li    | Li      Li            |  
 |    Li      Li      Li       |  
 |     |                       |  
 |     |                       |  
 |     |                       |  
 |     |                       |  
 |     |                       |  
 |     |                       |  
 |     .-----------------------.  
 |    /                       /   
 |   /                       /    
 |  /                       /     
 | /                       /      
 |/                       /       
 *-----------------------*        

Positions:
   0 Li     1.617037    1.617037   10.000000    ( 0.0000,  0.0000,  0.0000)
   1 Li     4.851111    1.617037   10.000000    ( 0.0000,  0.0000,  0.0000)
   2 Li     8.085185    1.617037   10.000000    ( 0.0000,  0.0000,  0.0000)
   3 Li     1.617037    4.851111   10.000000    ( 0.0000,  0.0000,  0.0000)
   4 Li     4.851111    4.851111   10.000000    ( 0.0000,  0.0000,  0.0000)
   5 Li     8.085185    4.851111   10.000000    ( 0.0000,  0.0000,  0.0000)
   6 Li     1.617037    8.085185   10.000000    ( 0.0000,  0.0000,  0.0000)
   7 Li     4.851111    8.085185   10.000000    ( 0.0000,  0.0000,  0.0000)
   8 Li     8.085185    8.085185   10.000000    ( 0.0000,  0.0000,  0.0000)
   9 Li     0.000000    0.000000   11.617037    ( 0.0000,  0.0000,  0.0000)
  10 Li     3.234074    0.000000   11.617037    ( 0.0000,  0.0000,  0.0000)
  11 Li     6.468148    0.000000   11.617037    ( 0.0000,  0.0000,  0.0000)
  12 Li     0.000000    3.234074   11.617037    ( 0.0000,  0.0000,  0.0000)
  13 Li     3.234074    3.234074   11.617037    ( 0.0000,  0.0000,  0.0000)
  14 Li     6.468148    3.234074   11.617037    ( 0.0000,  0.0000,  0.0000)
  15 Li     0.000000    6.468148   11.617037    ( 0.0000,  0.0000,  0.0000)
  16 Li     3.234074    6.468148   11.617037    ( 0.0000,  0.0000,  0.0000)
  17 Li     6.468148    6.468148   11.617037    ( 0.0000,  0.0000,  0.0000)
  18 Li     1.618226    1.618167   13.468903    ( 0.0000,  0.0000,  0.0000)
  19 Li     4.851199    1.617106   13.471847    ( 0.0000,  0.0000,  0.0000)
  20 Li     8.083919    1.618424   13.468271    ( 0.0000,  0.0000,  0.0000)
  21 Li     1.617140    4.851207   13.471896    ( 0.0000,  0.0000,  0.0000)
  22 Li     4.851052    4.851102   13.470847    ( 0.0000,  0.0000,  0.0000)
  23 Li     8.085131    4.851205   13.472050    ( 0.0000,  0.0000,  0.0000)
  24 Li     1.618251    8.083964   13.468255    ( 0.0000,  0.0000,  0.0000)
  25 Li     4.851237    8.085136   13.472000    ( 0.0000,  0.0000,  0.0000)
  26 Li     8.083908    8.083756   13.467853    ( 0.0000,  0.0000,  0.0000)
  27 Li     0.001740    0.001778   15.234368    ( 0.0000,  0.0000,  0.0000)
  28 Li     3.236062    0.000267   15.443679    ( 0.0000,  0.0000,  0.0000)
  29 Li     6.466151    0.000180   15.443883    ( 0.0000,  0.0000,  0.0000)
  30 Li     0.000241    3.236056   15.443317    ( 0.0000,  0.0000,  0.0000)
  31 Li     3.234218    3.234199   15.444692    ( 0.0000,  0.0000,  0.0000)
  32 Li     6.467773    3.234584   15.444470    ( 0.0000,  0.0000,  0.0000)
  33 Li     0.000079    6.466074   15.444031    ( 0.0000,  0.0000,  0.0000)
  34 Li     3.234564    6.467650   15.444525    ( 0.0000,  0.0000,  0.0000)
  35 Li     6.467511    6.467423   15.444361    ( 0.0000,  0.0000,  0.0000)
  36 O      9.741791    9.698044   19.854267    ( 0.0000,  0.0000,  0.0000)
  37 C     10.522571   10.896319   19.696689    ( 0.0000,  0.0000,  0.0000)
  38 C      9.698150   12.170568   19.640594    ( 0.0000,  0.0000,  0.0000)
  39 H     11.219006   10.889085   20.523413    ( 0.0000,  0.0000,  0.0000)
  40 H     11.122670   10.805931   18.773259    ( 0.0000,  0.0000,  0.0000)
  41 H     10.353095   13.045592   19.618479    ( 0.0000,  0.0000,  0.0000)
  42 H      9.050922   12.203399   18.759255    ( 0.0000,  0.0000,  0.0000)
  43 H      9.068817   12.242100   20.529104    ( 0.0000,  0.0000,  0.0000)
  44 H      9.073779    9.768024   20.516042    ( 0.0000,  0.0000,  0.0000)
  45 N      9.655595    9.698275   16.866884    ( 0.0000,  0.0000,  0.0000)
  46 N      9.742226    9.657501   17.945368    ( 0.0000,  0.0000,  0.0000)

Unit cell:
           periodic     x           y           z      points  spacing
  1. axis:    yes    9.702222    0.000000    0.000000    60     0.1617
  2. axis:    yes    0.000000    9.702222    0.000000    60     0.1617
  3. axis:    no     0.000000    0.000000   26.351111   164     0.1607

  Lengths:   9.702222   9.702222  26.351111
  Angles:   90.000000  90.000000  90.000000

Effective grid spacing dv^(1/3) = 0.1614

     iter     time        total  log10-change:
                         energy  eigst   dens
iter:   1 22:35:34  -305.979038  -0.83
iter:   2 22:35:41  -305.979303  -1.57  -2.12
iter:   3 22:35:48  -305.978667c -2.11  -2.20
iter:   4 22:35:55  -305.977081c -2.41  -2.31
Writing to output.gpw (mode='')

iter:   5 22:36:02  -305.973341c -1.87  -2.38
iter:   6 22:36:09  -305.973624c -2.47  -2.66
iter:   7 22:36:17  -305.973618c -2.81  -2.70
iter:   8 22:36:24  -305.974196c -2.40  -2.78
iter:   9 22:36:31  -305.973781c -3.09  -2.84
Writing to output.gpw (mode='')

iter:  10 22:36:38  -305.973526c -3.32  -2.94
iter:  11 22:36:45  -305.973502c -3.38  -3.08
[...]

Kinetic:       +150.452602
Potential:     -146.208761
External:        +0.000000
XC:            -313.826406
Entropy (-ST):   -0.147711
Local:           +0.766203
--------------------------
Free energy:   -308.964073
Extrapolated:  -308.890218

Dipole-layer corrected work functions: 3.401631, 3.147106 eV

Showing only first 2 kpts
 Kpt  Band  Eigenvalues  Occupancy
  0    31     -3.52792    1.98753
  0    32     -3.45410    1.94653
  0    33     -3.09989    0.05922
  0    34     -3.04096    0.01861

  1    31     -3.29834    1.23523
  1    32     -3.25659    0.82402
  1    33     -3.24555    0.71954
  1    34     -3.20543    0.40243


Fermi level: -3.27437

No gap
Writing to output.gpw (mode='')


Forces in eV/Ang:
  0 Li    0.00089    0.00608   -0.26607
  1 Li    0.00008    0.00087   -0.28341
  2 Li   -0.00059    0.00822   -0.26555
  3 Li    0.00011   -0.00416   -0.27734
  4 Li    0.00057    0.00170   -0.27757
  5 Li    0.00020   -0.00614   -0.27628
  6 Li    0.01067   -0.00196   -0.26724
  7 Li   -0.00193    0.00116   -0.27378
  8 Li   -0.00876   -0.00209   -0.26706
  9 Li    0.00282    0.00842    0.25989
 10 Li    0.00541    0.01969    0.26118
 11 Li   -0.01006    0.02187    0.26410
 12 Li    0.00211   -0.00544    0.25139
 13 Li   -0.03382   -0.02595    0.26933
 14 Li    0.02933   -0.02399    0.26764
 15 Li    0.00269   -0.00338    0.29216
 16 Li   -0.00001    0.00262    0.27078
 17 Li   -0.00499   -0.00179    0.27083
 18 Li    0.00573   -0.01008    0.00395
 19 Li    0.00230   -0.00004    0.00266
 20 Li   -0.00813   -0.00420    0.00773
 21 Li   -0.00004   -0.00204    0.00183
 22 Li   -0.00261    0.00312    0.00789
 23 Li    0.00318   -0.00299    0.00466
 24 Li   -0.00216   -0.00334    0.00713
 25 Li    0.00151   -0.00839    0.00173
 26 Li    0.00165   -0.00734    0.00758
 27 Li   -0.00046   -0.00847   -0.00423
 28 Li   -0.00181    0.00311    0.00108
 29 Li   -0.00512    0.00492   -0.00045
 30 Li    0.00006   -0.00006   -0.00089
 31 Li   -0.00727   -0.00296    0.00401
 32 Li    0.00712   -0.00600    0.00155
 33 Li    0.00121   -0.00355   -0.00022
 34 Li   -0.00265    0.00358    0.00086
 35 Li    0.00096    0.00484   -0.00005
 36 O    -0.00859   -0.00049    0.02322
 37 C     0.00712    0.00300   -0.00248
 38 C    -0.00374    0.02195   -0.00084
 39 H     0.02574    0.00755   -0.01186
 40 H     0.02084   -0.00819   -0.01413
 41 H     0.00449   -0.00815   -0.02236
 42 H     0.01266    0.00279    0.03233
 43 H    -0.01740   -0.01323   -0.02127
 44 H     0.00474   -0.02129   -0.01993
 45 N     0.01739   -0.03883    0.05165
 46 N     0.00455    0.04046   -0.05199

System changes: positions 

Initializing position-dependent things.

Density initialized from wave functions
       .-----------------------.  
      /|                       |  
     / |                       |  
    /  |                       |  
   /   |                       |  
  /    |                       |  
 *     |                       |  
 |     |                       |  
 |     |                       |  
 |     |                       |  
 |     |                       |  
 |    H|                HH   NN|  
 |     |                       |  
 |OCCH |                       Li 
 |   H |                 H     |  
 |   Li|     Li      Li        |  
 |     |                       |  
 |     |  LLi     LLi     LLi  |  
 |     |                       |  
 |     |LLi     LLi     Li     |  
 |   Li|     Li      Li        |  
 |    Li  Li  Li  Li  Li  Li   |  
 | Li  |   Li      Li          |  
 |     |Li      Li      Li     |  
 Li    | Li      Li            |  
 |    Li      Li      Li       |  
 |     |                       |  
 |     |                       |  
 |     |                       |  
 |     |                       |  
 |     |                       |  
 |     |                       |  
 |     .-----------------------.  
 |    /                       /   
 |   /                       /    
 |  /                       /     
 | /                       /      
 |/                       /       
 *-----------------------*        

Positions:
   0 Li     1.617037    1.617037   10.000000    ( 0.0000,  0.0000,  0.0000)
   1 Li     4.851111    1.617037   10.000000    ( 0.0000,  0.0000,  0.0000)
   2 Li     8.085185    1.617037   10.000000    ( 0.0000,  0.0000,  0.0000)
   3 Li     1.617037    4.851111   10.000000    ( 0.0000,  0.0000,  0.0000)
   4 Li     4.851111    4.851111   10.000000    ( 0.0000,  0.0000,  0.0000)
   5 Li     8.085185    4.851111   10.000000    ( 0.0000,  0.0000,  0.0000)
   6 Li     1.617037    8.085185   10.000000    ( 0.0000,  0.0000,  0.0000)
   7 Li     4.851111    8.085185   10.000000    ( 0.0000,  0.0000,  0.0000)
   8 Li     8.085185    8.085185   10.000000    ( 0.0000,  0.0000,  0.0000)
   9 Li     0.000000    0.000000   11.617037    ( 0.0000,  0.0000,  0.0000)
  10 Li     3.234074    0.000000   11.617037    ( 0.0000,  0.0000,  0.0000)
  11 Li     6.468148    0.000000   11.617037    ( 0.0000,  0.0000,  0.0000)
  12 Li     0.000000    3.234074   11.617037    ( 0.0000,  0.0000,  0.0000)
  13 Li     3.234074    3.234074   11.617037    ( 0.0000,  0.0000,  0.0000)
  14 Li     6.468148    3.234074   11.617037    ( 0.0000,  0.0000,  0.0000)
  15 Li     0.000000    6.468148   11.617037    ( 0.0000,  0.0000,  0.0000)
  16 Li     3.234074    6.468148   11.617037    ( 0.0000,  0.0000,  0.0000)
  17 Li     6.468148    6.468148   11.617037    ( 0.0000,  0.0000,  0.0000)
  18 Li     1.580156    1.594654   13.522771    ( 0.0000,  0.0000,  0.0000)
  19 Li     4.847038    1.628451   13.465870    ( 0.0000,  0.0000,  0.0000)
  20 Li     8.122513    1.593840   13.514626    ( 0.0000,  0.0000,  0.0000)
  21 Li     1.620966    4.834212   13.467502    ( 0.0000,  0.0000,  0.0000)
  22 Li     4.848823    4.829908   13.457364    ( 0.0000,  0.0000,  0.0000)
  23 Li     8.081518    4.834895   13.464104    ( 0.0000,  0.0000,  0.0000)
  24 Li     1.608712    8.112431   13.472761    ( 0.0000,  0.0000,  0.0000)
  25 Li     4.847678    8.093592   13.462780    ( 0.0000,  0.0000,  0.0000)
  26 Li     8.091269    8.111735   13.461098    ( 0.0000,  0.0000,  0.0000)
  27 Li    -0.006288   -0.039868   15.623012    ( 0.0000,  0.0000,  0.0000)
  28 Li     3.261264    0.004295   15.412812    ( 0.0000,  0.0000,  0.0000)
  29 Li     6.432807    0.009668   15.400286    ( 0.0000,  0.0000,  0.0000)
  30 Li    -0.001485    3.238585   15.449370    ( 0.0000,  0.0000,  0.0000)
  31 Li     3.233742    3.232530   15.427852    ( 0.0000,  0.0000,  0.0000)
  32 Li     6.469809    3.234854   15.425358    ( 0.0000,  0.0000,  0.0000)
  33 Li     0.002552    6.413363   15.344336    ( 0.0000,  0.0000,  0.0000)
  34 Li     3.244039    6.458422   15.381214    ( 0.0000,  0.0000,  0.0000)
  35 Li     6.447567    6.450338   15.365032    ( 0.0000,  0.0000,  0.0000)
  36 O      9.824717   10.035003   20.812156    ( 0.0000,  0.0000,  0.0000)
  37 C     10.590789   11.121704   20.271141    ( 0.0000,  0.0000,  0.0000)
  38 C      9.728360   12.240493   19.702345    ( 0.0000,  0.0000,  0.0000)
  39 H     11.274306   11.518468   21.031700    ( 0.0000,  0.0000,  0.0000)
  40 H     11.201711   10.671334   19.485719    ( 0.0000,  0.0000,  0.0000)
  41 H     10.359006   13.027751   19.279252    ( 0.0000,  0.0000,  0.0000)
  42 H      9.068074   11.867184   18.915388    ( 0.0000,  0.0000,  0.0000)
  43 H      9.115199   12.697040   20.484922    ( 0.0000,  0.0000,  0.0000)
  44 H      9.305310   10.376123   21.550674    ( 0.0000,  0.0000,  0.0000)
  45 N      9.546864    8.735549   17.439739    ( 0.0000,  0.0000,  0.0000)
  46 N      9.459779    8.141955   18.375314    ( 0.0000,  0.0000,  0.0000)

Unit cell:
           periodic     x           y           z      points  spacing
  1. axis:    yes    9.702222    0.000000    0.000000    60     0.1617
  2. axis:    yes    0.000000    9.702222    0.000000    60     0.1617
  3. axis:    no     0.000000    0.000000   26.351111   164     0.1607

  Lengths:   9.702222   9.702222  26.351111
  Angles:   90.000000  90.000000  90.000000

Effective grid spacing dv^(1/3) = 0.1614

     iter     time        total  log10-change:
                         energy  eigst   dens
iter:   1 04:29:16  -308.897926  -2.22
iter:   2 04:29:23  -308.892450  -2.56  -2.18
iter:   3 04:29:30  -308.890796c -3.96  -2.43
iter:   4 04:29:37  -308.890367c -3.24  -2.86
Writing to output.gpw (mode='')

iter:   5 04:29:51  -308.890516c -4.30  -3.32
iter:   6 04:29:58  -308.890423c -3.75  -3.09
iter:   7 04:30:07  -308.890394c -3.66  -3.46
iter:   8 04:30:18  -308.890413c -4.68  -3.51
iter:   9 04:30:28  -308.890410c -4.89  -3.78
Writing to output.gpw (mode='')

iter:  10 04:30:35  -308.890406c -4.67  -3.82
iter:  11 04:30:43  -308.890408c -5.01  -3.93
iter:  12 04:30:50  -308.890405c -4.93  -3.91
iter:  13 04:30:57  -308.890405c -5.07  -3.82
iter:  14 04:31:04  -308.890405c -5.28  -3.79
Writing to output.gpw (mode='')

iter:  15 04:31:12  -308.890406c -5.58  -3.77
iter:  16 04:31:19  -308.890408c -5.80  -3.77
iter:  17 04:31:26  -308.890409c -6.16  -3.84
iter:  18 04:31:33  -308.890409c -6.53  -3.90
iter:  19 04:31:40  -308.890410c -6.46  -3.90
Writing to output.gpw (mode='')

iter:  20 04:31:48  -308.890413c -6.13  -3.90
iter:  21 04:31:55  -308.890411c -6.51  -3.94
iter:  22 04:32:02  -308.890413c -6.14  -3.99
iter:  23 04:32:09  -308.890412c -6.02  -4.04c
iter:  24 04:32:17  -308.890412c -6.57  -4.14c
Writing to output.gpw (mode='')

iter:  25 04:32:24  -308.890412c -6.05  -4.20c
iter:  26 04:32:31  -308.890414c -6.32  -4.45c
iter:  27 04:32:38  -308.890415c -6.18  -4.57c
iter:  28 04:32:45  -308.890415c -6.74  -4.68c
iter:  29 04:32:53  -308.890414c -7.32  -4.73c
Writing to output.gpw (mode='')

iter:  30 04:33:00  -308.890414c -7.41c -4.96c

Converged after 30 iterations.

Dipole moment: (5.542900, -11.748983, 0.132601) |e|*Ang

Energy contributions relative to reference atoms: (reference = -14434.854043)

Kinetic:       +150.553942
Potential:     -146.292111
External:        +0.000000
XC:            -313.844862
Entropy (-ST):   -0.147771
Local:           +0.766503
--------------------------
Free energy:   -308.964300
Extrapolated:  -308.890414

Dipole-layer corrected work functions: 3.401579, 3.146673 eV

Showing only first 2 kpts
 Kpt  Band  Eigenvalues  Occupancy
  0    31     -3.52722    1.98741
  0    32     -3.45357    1.94622
  0    33     -3.09983    0.05943
  0    34     -3.04024    0.01843

  1    31     -3.29826    1.23680
  1    32     -3.25649    0.82540
  1    33     -3.24539    0.72033
  1    34     -3.20535    0.40349


Fermi level: -3.27413

No gap

Forces in eV/Ang:
  0 Li    0.00077    0.00597   -0.26606
  1 Li    0.00008    0.00084   -0.28351
  2 Li   -0.00046    0.00809   -0.26554
  3 Li   -0.00003   -0.00403   -0.27739
  4 Li    0.00057    0.00175   -0.27732
  5 Li    0.00030   -0.00602   -0.27635
  6 Li    0.01058   -0.00190   -0.26726
  7 Li   -0.00193    0.00132   -0.27383
  8 Li   -0.00867   -0.00201   -0.26707
  9 Li    0.00299    0.00767    0.25915
 10 Li    0.00485    0.01955    0.26186
 11 Li   -0.00961    0.02176    0.26482
 12 Li    0.00212   -0.00618    0.25198
 13 Li   -0.03455   -0.02685    0.27011
 14 Li    0.03023   -0.02501    0.26860
 15 Li    0.00270   -0.00282    0.29249
 16 Li   -0.00021    0.00275    0.27112
 17 Li   -0.00457   -0.00150    0.27133
 18 Li    0.00863   -0.00839    0.00205
 19 Li    0.00232    0.00003    0.00342
 20 Li   -0.01127   -0.00212    0.00589
 21 Li   -0.00029   -0.00229    0.00283
 22 Li   -0.00277    0.00347    0.00819
 23 Li    0.00298   -0.00322    0.00554
 24 Li   -0.00188   -0.00400    0.00592
 25 Li    0.00148   -0.00753    0.00208
 26 Li    0.00104   -0.00850    0.00654
 27 Li   -0.00051   -0.00838   -0.00338
 28 Li   -0.00135    0.00281    0.00062
 29 Li   -0.00505    0.00445   -0.00062
 30 Li    0.00024    0.00092   -0.00021
 31 Li   -0.00747   -0.00322    0.00313
 32 Li    0.00735   -0.00615    0.00039
 33 Li    0.00123   -0.00431   -0.00125
 34 Li   -0.00243    0.00357    0.00067
 35 Li    0.00102    0.00493   -0.00037
 36 O    -0.01470   -0.01276    0.01921
 37 C     0.01454    0.00090    0.00036
 38 C     0.00854    0.00855   -0.00038
 39 H     0.02711    0.01194   -0.00082
 40 H     0.01554   -0.00037   -0.02155
 41 H     0.00818   -0.00459   -0.02064
 42 H    -0.00267    0.00004    0.01985
 43 H    -0.01691   -0.01228   -0.01679
 44 H     0.00554   -0.01029   -0.01623
 45 N     0.02057   -0.00322   -0.01329
 46 N    -0.00092   -0.00700   -0.01117

Timing:                                      incl.     excl.
-------------------------------------------------------------------
Density initialized from wave functions:     6.519     6.517   0.0% |
 Symmetrize density:                         0.002     0.002   0.0% |
Forces:                                     37.005    37.005   0.2% |
Hamiltonian:                               562.741     0.015   0.0% |
 Atomic:                                     0.024     0.024   0.0% |
  XC Correction:                             0.000     0.000   0.0% |
 Calculate atomic Hamiltonians:              0.042     0.042   0.0% |
 Communicate:                                8.587     8.587   0.0% |
 Hartree integrate/restrict:                 1.734     1.734   0.0% |
 Initialize Hamiltonian:                     0.000     0.000   0.0% |
 Poisson:                                   25.701     9.410   0.0% |
  Communicate from 1D:                       2.545     2.545   0.0% |
  Communicate from 2D:                       2.549     2.549   0.0% |
  Communicate to 1D:                         1.437     1.437   0.0% |
  Communicate to 2D:                         2.960     2.960   0.0% |
  FFT 1D:                                    3.415     3.415   0.0% |
  FFT 2D:                                    3.384     3.384   0.0% |
 XC 3D grid:                               526.199    77.930   0.3% |
  VdW-DF integral:                         448.269     3.595   0.0% |
   Convolution:                             40.060    40.060   0.2% |
   FFT:                                     17.048    17.048   0.1% |
   gather:                                 150.825   150.825   0.6% |
   hmm1:                                    14.180    14.180   0.1% |
   hmm2:                                    18.743    18.743   0.1% |
   iFFT:                                    17.620    17.620   0.1% |
   potential:                              182.616     4.646   0.0% |
    collect:                                26.239    26.239   0.1% |
    p1:                                     75.942    75.942   0.3% |
    p2:                                     28.495    28.495   0.1% |
    sum:                                    47.293    47.293   0.2% |
   splines:                                  3.582     3.582   0.0% |
 vbar:                                       0.438     0.438   0.0% |
LCAO initialization:                         1.020     0.183   0.0% |
 LCAO eigensolver:                           0.175     0.000   0.0% |
  Calculate projections:                     0.000     0.000   0.0% |
  DenseAtomicCorrection:                     0.000     0.000   0.0% |
  Distribute overlap matrix:                 0.160     0.160   0.0% |
  Orbital Layouts:                           0.013     0.013   0.0% |
  Potential matrix:                          0.001     0.001   0.0% |
  Sum over cells:                            0.001     0.001   0.0% |
 LCAO to grid:                               0.553     0.553   0.0% |
 Set positions (LCAO WFS):                   0.109     0.058   0.0% |
  Basic WFS set positions:                   0.001     0.001   0.0% |
  Basis functions set positions:             0.000     0.000   0.0% |
  P tci:                                     0.000     0.000   0.0% |
  ST tci:                                    0.020     0.020   0.0% |
  mktci:                                     0.029     0.029   0.0% |
Redistribute:                                0.064     0.064   0.0% |
SCF-cycle:                               23087.892   380.869   1.6% ||
 Davidson:                                5778.723  1705.674   7.2% |--|
  Apply hamiltonian:                       364.111   364.111   1.5% ||
  Subspace diag:                          1103.863     0.362   0.0% |
   calc_h_matrix:                          536.489   162.073   0.7% |
    Apply hamiltonian:                     374.416   374.416   1.6% ||
   diagonalize:                             60.619    60.619   0.3% |
   rotate_psi:                             506.393   506.393   2.1% ||
  calc. matrices:                         1779.286   908.984   3.8% |-|
   Apply hamiltonian:                      870.303   870.303   3.7% ||
  diagonalize:                              16.197    16.197   0.1% |
  rotate_psi:                              809.592   809.592   3.4% ||
 Density:                                  114.236     0.074   0.0% |
  Atomic density matrices:                  12.967    12.967   0.1% |
  Mix:                                      49.680    49.680   0.2% |
  Multipole moments:                         6.878     6.878   0.0% |
  Pseudo density:                           44.637    44.580   0.2% |
   Symmetrize density:                       0.058     0.058   0.0% |
 Hamiltonian:                            16796.381     0.431   0.0% |
  Atomic:                                    0.821     0.812   0.0% |
   XC Correction:                            0.008     0.008   0.0% |
  Calculate atomic Hamiltonians:             1.345     1.345   0.0% |
  Communicate:                             216.756   216.756   0.9% |
  Hartree integrate/restrict:               54.318    54.318   0.2% |
  Poisson:                                 805.406   294.899   1.2% |
   Communicate from 1D:                     79.703    79.703   0.3% |
   Communicate from 2D:                     79.196    79.196   0.3% |
   Communicate to 1D:                       45.790    45.790   0.2% |
   Communicate to 2D:                       92.010    92.010   0.4% |
   FFT 1D:                                 108.046   108.046   0.5% |
   FFT 2D:                                 105.762   105.762   0.4% |
  XC 3D grid:                            15703.559  2358.702   9.9% |---|
   VdW-DF integral:                      13344.857   111.057   0.5% |
    Convolution:                          1238.097  1238.097   5.2% |-|
    FFT:                                   527.004   527.004   2.2% ||
    gather:                               4710.540  4710.540  19.8% |-------|
    hmm1:                                  438.493   438.493   1.8% ||
    hmm2:                                  575.718   575.718   2.4% ||
    iFFT:                                  544.614   544.614   2.3% ||
    potential:                            5199.310   144.530   0.6% |
     collect:                              806.313   806.313   3.4% ||
     p1:                                  2350.748  2350.748   9.9% |---|
     p2:                                   887.273   887.273   3.7% ||
     sum:                                 1010.446  1010.446   4.2% |-|
    splines:                                 0.025     0.025   0.0% |
  vbar:                                     13.745    13.745   0.1% |
 Orthonormalize:                            17.683     0.012   0.0% |
  calc_s_matrix:                             2.386     2.386   0.0% |
  inverse-cholesky:                          5.775     5.775   0.0% |
  projections:                               0.002     0.002   0.0% |
  rotate_psi_s:                              9.507     9.507   0.0% |
Set symmetry:                                0.017     0.017   0.0% |
Other:                                      92.862    92.862   0.4% |
-------------------------------------------------------------------
Total:                                             23788.119 100.0%

Memory usage: 1.12 GiB
Date: Thu Mar  9 04:33:00 2023
