
  ___ ___ ___ _ _ _  
 |   |   |_  | | | | 
 | | | | | . | | | | 
 |__ |  _|___|_____|  22.8.0
 |___|_|             

User:   vazumah@c22.hercules
Date:   Tue Feb  7 07:19:05 2023
Arch:   x86_64
Pid:    2165
CWD:    /home/vazumah/Python_projects/LiNRR/Li_adsorb_studies/proton_donors/ethanol_N2/Li_BCC_100/adsorbates/CH3CH2OH_y/ontop/9.702_9.702/N2_z
Python: 3.10.8
gpaw:   /home/vazumah/.conda/envs/GPAW/lib/python3.10/site-packages/gpaw
_gpaw:  /home/vazumah/.conda/envs/GPAW/lib/python3.10/site-packages/
        _gpaw.cpython-310-x86_64-linux-gnu.so
ase:    /home/vazumah/.conda/envs/GPAW/lib/python3.10/site-packages/ase (version 3.22.1)
numpy:  /home/vazumah/.conda/envs/GPAW/lib/python3.10/site-packages/numpy (version 1.24.1)
scipy:  /home/vazumah/.conda/envs/GPAW/lib/python3.10/site-packages/scipy (version 1.10.0)
libxc:  5.2.3
units:  Angstrom and eV
cores: 24
OpenMP: True
OMP_NUM_THREADS: 1

Input parameters:
  h: 0.16
  kpts: {size: [4, 4, 1]}
  occupations: {name: fermi-dirac,
                width: 0.05}
  poissonsolver: {dipolelayer: xy}
  xc: BEEF-vdW

System changes: positions, numbers, cell, pbc, initial_charges, initial_magmoms 

Initialize ...

species:
  Li:
    name: Lithium
    id: 830b4218f175192f93f959cfc0aad614
    Z: 3.0
    valence: 1
    core: 2
    charge: 0.0
    file: /home/vazumah/.conda/envs/GPAW/share/gpaw/Li.PBE.gz
    compensation charges: {type: gauss,
                           rc: 0.33,
                           lmax: 2}
    cutoffs: {filter: 1.91,
              core: 2.55}
    valence states:
      #              energy  rcut
      - 2s(1.00)    -2.874   1.058
      - 2p(0.00)    -1.090   1.058
      -  s          24.337   1.058
  
    # Using partial waves for Li as LCAO basis

  O:
    name: Oxygen
    id: 32ecd46bf208036f09c70b0ec9a88b78
    Z: 8.0
    valence: 6
    core: 2
    charge: 0.0
    file: /home/vazumah/.conda/envs/GPAW/share/gpaw/O.PBE.gz
    compensation charges: {type: gauss,
                           rc: 0.21,
                           lmax: 2}
    cutoffs: {filter: 1.17,
              core: 0.83}
    valence states:
      #              energy  rcut
      - 2s(2.00)   -23.961   0.688
      - 2p(4.00)    -9.029   0.598
      -  s           3.251   0.688
      -  p          18.182   0.598
      -  d           0.000   0.619
  
    # Using partial waves for O as LCAO basis

  C:
    name: Carbon
    id: 4aa54d4b901d75f77cc0ea3eec22967b
    Z: 6.0
    valence: 4
    core: 2
    charge: 0.0
    file: /home/vazumah/.conda/envs/GPAW/share/gpaw/C.PBE.gz
    compensation charges: {type: gauss,
                           rc: 0.20,
                           lmax: 2}
    cutoffs: {filter: 1.14,
              core: 1.14}
    valence states:
      #              energy  rcut
      - 2s(2.00)   -13.751   0.635
      - 2p(2.00)    -5.284   0.635
      -  s          13.461   0.635
      -  p          21.927   0.635
      -  d           0.000   0.635
  
    # Using partial waves for C as LCAO basis

  H:
    name: Hydrogen
    id: d65de229564ff8ea4db303e23b6d1ecf
    Z: 1.0
    valence: 1
    core: 0
    charge: 0.0
    file: /home/vazumah/.conda/envs/GPAW/share/gpaw/H.PBE.gz
    compensation charges: {type: gauss,
                           rc: 0.15,
                           lmax: 2}
    cutoffs: {filter: 0.85,
              core: 0.53}
    valence states:
      #              energy  rcut
      - 1s(1.00)    -6.494   0.476
      -  s          20.717   0.476
      -  p           0.000   0.476
  
    # Using partial waves for H as LCAO basis

  N:
    name: Nitrogen
    id: f7500608b86eaa90eef8b1d9a670dc53
    Z: 7.0
    valence: 5
    core: 2
    charge: 0.0
    file: /home/vazumah/.conda/envs/GPAW/share/gpaw/N.PBE.gz
    compensation charges: {type: gauss,
                           rc: 0.18,
                           lmax: 2}
    cutoffs: {filter: 1.11,
              core: 0.96}
    valence states:
      #              energy  rcut
      - 2s(2.00)   -18.583   0.603
      - 2p(3.00)    -7.089   0.529
      -  s           8.629   0.603
      -  p          20.123   0.529
      -  d           0.000   0.577
  
    # Using partial waves for N as LCAO basis

Reference energy: -14434.854043  # eV

Spin-paired calculation

Convergence criteria:
 Maximum [total energy] change in last 3 cyles: 0.0005 eV / electron
 Maximum integral of absolute [dens]ity change: 0.0001 electrons / valence electron
 Maximum integral of absolute [eigenst]ate change: 4e-08 eV^2 / valence electron
 Maximum number of scf [iter]ations: 333
 (Square brackets indicate name in SCF output, whereas a 'c' in
 the SCF output indicates the quantity has converged.)

Symmetries present (total): 1

  ( 1  0  0)
  ( 0  1  0)
  ( 0  0  1)

16 k-points: 4 x 4 x 1 Monkhorst-Pack grid
8 k-points in the irreducible part of the Brillouin zone
       k-points in crystal coordinates                weights
   0:     0.12500000   -0.37500000    0.00000000          2/16
   1:     0.12500000   -0.12500000    0.00000000          2/16
   2:     0.12500000    0.12500000    0.00000000          2/16
   3:     0.12500000    0.37500000    0.00000000          2/16
   4:     0.37500000   -0.37500000    0.00000000          2/16
   5:     0.37500000   -0.12500000    0.00000000          2/16
   6:     0.37500000    0.12500000    0.00000000          2/16
   7:     0.37500000    0.37500000    0.00000000          2/16

Wave functions: Uniform real-space grid
  Kinetic energy operator: 6*3+1=19 point O(h^6) finite-difference Laplacian
  ScaLapack parameters: grid=1x1, blocksize=None
  Wavefunction extrapolation:
    Improved wavefunction reuse through dual PAW basis 

Occupation numbers: Fermi-Dirac:
  width: 0.0500  # eV
 

Eigensolver
   Davidson(niter=2) 

Densities:
  Coarse grid: 60*60*156 grid
  Fine grid: 120*120*312 grid
  Total Charge: 0.000000 

Density mixing:
  Method: separate
  Backend: pulay
  Linear mixing parameter: 0.05
  old densities: 5
  Damping of long wavelength oscillations: 50 

Hamiltonian:
  XC and Coulomb potentials evaluated on a 120*120*312 grid
  Using the BEEF-vdW Exchange-Correlation functional
  Interpolation: tri-quintic (5. degree polynomial)
  Poisson solver: FastPoissonSolver using
    Stencil: 6*3+1=19 point O(h^6) finite-difference Laplacian
    FFT axes: [0, 1]
    FST axes: [2]

Dipole correction along z-axis 

XC parameters: BEEF-vdW with 2 nearest neighbor stencil

Memory estimate:
  Process memory now: 217.17 MiB
  Calculator: 411.72 MiB
    Density: 118.00 MiB
      Arrays: 36.75 MiB
      Localized functions: 67.24 MiB
      Mixer: 14.01 MiB
    Hamiltonian: 29.35 MiB
      Arrays: 24.03 MiB
      XC: 0.00 MiB
      Poisson: 0.00 MiB
      vbar: 5.32 MiB
    Wavefunctions: 264.37 MiB
      Arrays psit_nG: 123.27 MiB
      Eigensolver: 137.57 MiB
      Projections: 0.06 MiB
      Projectors: 3.47 MiB

Total number of cores used: 24
Parallelization over k-points: 8
Domain decomposition: 1 x 1 x 3

Number of atoms: 47
Number of atomic orbitals: 170
Number of bands in calculation: 44
Number of valence electrons: 66
Bands to converge: occupied

... initialized

Initializing position-dependent things.

Density initialized from atomic densities
Creating initial wave functions:
  44 bands from LCAO basis set

       .-----------------------.  
      /|                       |  
     / |                       |  
    /  |                       |  
   /   |                       |  
  /    | H                     |  
 *     | C     H               |  
 |     | H                     N  
 |     |                       |  
 |     |                       N  
 H     |H                      |  
 O     |                       |  
 |     CH                      |  
 |     |                       |  
 |   Li|     Li      Li        |  
 |     |  Li      Li      Li   |  
 | Li  |   Li      Li          |  
 |     |Li      Li      Li     |  
 Li    | Li      Li            |  
 |   LLi     LLi     LLi       |  
 |     |  Li      Li      Li   |  
 | Li  |   Li      Li          |  
 |     |Li      Li      Li     |  
 Li    | Li      Li            |  
 |    Li      Li      Li       |  
 |     |                       |  
 |     |                       |  
 |     |                       |  
 |     |                       |  
 |     |                       |  
 |     |                       |  
 |     .-----------------------.  
 |    /                       /   
 |   /                       /    
 |  /                       /     
 | /                       /      
 |/                       /       
 *-----------------------*        

Positions:
   0 Li     1.617037    1.617037   10.000000    ( 0.0000,  0.0000,  0.0000)
   1 Li     4.851111    1.617037   10.000000    ( 0.0000,  0.0000,  0.0000)
   2 Li     8.085185    1.617037   10.000000    ( 0.0000,  0.0000,  0.0000)
   3 Li     1.617037    4.851111   10.000000    ( 0.0000,  0.0000,  0.0000)
   4 Li     4.851111    4.851111   10.000000    ( 0.0000,  0.0000,  0.0000)
   5 Li     8.085185    4.851111   10.000000    ( 0.0000,  0.0000,  0.0000)
   6 Li     1.617037    8.085185   10.000000    ( 0.0000,  0.0000,  0.0000)
   7 Li     4.851111    8.085185   10.000000    ( 0.0000,  0.0000,  0.0000)
   8 Li     8.085185    8.085185   10.000000    ( 0.0000,  0.0000,  0.0000)
   9 Li     0.000000    0.000000   11.617037    ( 0.0000,  0.0000,  0.0000)
  10 Li     3.234074    0.000000   11.617037    ( 0.0000,  0.0000,  0.0000)
  11 Li     6.468148    0.000000   11.617037    ( 0.0000,  0.0000,  0.0000)
  12 Li     0.000000    3.234074   11.617037    ( 0.0000,  0.0000,  0.0000)
  13 Li     3.234074    3.234074   11.617037    ( 0.0000,  0.0000,  0.0000)
  14 Li     6.468148    3.234074   11.617037    ( 0.0000,  0.0000,  0.0000)
  15 Li     0.000000    6.468148   11.617037    ( 0.0000,  0.0000,  0.0000)
  16 Li     3.234074    6.468148   11.617037    ( 0.0000,  0.0000,  0.0000)
  17 Li     6.468148    6.468148   11.617037    ( 0.0000,  0.0000,  0.0000)
  18 Li     1.617038    1.617038   13.469728    ( 0.0000,  0.0000,  0.0000)
  19 Li     4.851111    1.617038   13.469729    ( 0.0000,  0.0000,  0.0000)
  20 Li     8.085184    1.617038   13.469728    ( 0.0000,  0.0000,  0.0000)
  21 Li     1.617038    4.851111   13.469729    ( 0.0000,  0.0000,  0.0000)
  22 Li     4.851111    4.851111   13.469730    ( 0.0000,  0.0000,  0.0000)
  23 Li     8.085184    4.851111   13.469729    ( 0.0000,  0.0000,  0.0000)
  24 Li     1.617038    8.085184   13.469728    ( 0.0000,  0.0000,  0.0000)
  25 Li     4.851111    8.085184   13.469729    ( 0.0000,  0.0000,  0.0000)
  26 Li     8.085184    8.085184   13.469728    ( 0.0000,  0.0000,  0.0000)
  27 Li    -0.000000   -0.000000   15.445939    ( 0.0000,  0.0000,  0.0000)
  28 Li     3.234074    0.000000   15.445939    ( 0.0000,  0.0000,  0.0000)
  29 Li     6.468148    0.000000   15.445939    ( 0.0000,  0.0000,  0.0000)
  30 Li     0.000000    3.234074   15.445939    ( 0.0000,  0.0000,  0.0000)
  31 Li     3.234076    3.234076   15.445938    ( 0.0000,  0.0000,  0.0000)
  32 Li     6.468146    3.234076   15.445938    ( 0.0000,  0.0000,  0.0000)
  33 Li     0.000000    6.468148   15.445939    ( 0.0000,  0.0000,  0.0000)
  34 Li     3.234076    6.468146   15.445938    ( 0.0000,  0.0000,  0.0000)
  35 Li     6.468146    6.468146   15.445938    ( 0.0000,  0.0000,  0.0000)
  36 O      9.702222    9.702222   20.445939    ( 0.0000,  0.0000,  0.0000)
  37 C     10.884630    8.885465   20.450238    ( 0.0000,  0.0000,  0.0000)
  38 C     12.168844    9.705083   20.435704    ( 0.0000,  0.0000,  0.0000)
  39 H     10.876006    8.201929   21.310398    ( 0.0000,  0.0000,  0.0000)
  40 H     10.809241    8.275739   19.547442    ( 0.0000,  0.0000,  0.0000)
  41 H     13.045771    9.051137   20.420269    ( 0.0000,  0.0000,  0.0000)
  42 H     12.203555   10.354106   19.558886    ( 0.0000,  0.0000,  0.0000)
  43 H     12.239032   10.333571   21.328265    ( 0.0000,  0.0000,  0.0000)
  44 H      9.741389   10.285199   21.214164    ( 0.0000,  0.0000,  0.0000)
  45 N      9.702000    9.702000   17.945939    ( 0.0000,  0.0000,  0.0000)
  46 N      9.702000    9.702000   19.042561    ( 0.0000,  0.0000,  0.0000)

Unit cell:
           periodic     x           y           z      points  spacing
  1. axis:    yes    9.702222    0.000000    0.000000    60     0.1617
  2. axis:    yes    0.000000    9.702222    0.000000    60     0.1617
  3. axis:    no     0.000000    0.000000   24.851111   156     0.1593

  Lengths:   9.702222   9.702222  24.851111
  Angles:   90.000000  90.000000  90.000000

Effective grid spacing dv^(1/3) = 0.1609

     iter     time        total  log10-change:
                         energy  eigst   dens
iter:   1 07:22:29  -645.076707
iter:   2 07:25:10   -17.893457  +2.58  +0.03
iter:   3 07:27:40   122.482765  +3.20  -0.13
iter:   4 07:30:23  -167.845180  +3.39  -0.17
Writing to output.gpw (mode='')

iter:   5 07:33:02  -246.232201  +2.98  -0.13
iter:   6 07:35:38  -269.059260  +2.63  -0.35
iter:   7 07:38:15  -300.120341  +2.33  -0.56
iter:   8 07:40:45  -341.538067  +2.07  -0.61
iter:   9 07:43:18  -430.980621  +2.32  -0.40
Writing to output.gpw (mode='')

iter:  10 07:45:55  -318.667724  +1.39  -0.32
iter:  11 07:48:33  -299.716799  +1.74  -0.64
iter:  12 07:51:06  -302.661798  +1.50  -0.72
iter:  13 07:53:42  -307.478609  +1.22  -0.68
iter:  14 07:56:24  -313.928392  +0.97  -0.68
Writing to output.gpw (mode='')

iter:  15 07:59:00  -312.592085  +0.61  -0.66
iter:  16 08:01:42  -305.059388  +1.56  -0.69
iter:  17 08:04:17  -304.636022  +0.49  -0.81
iter:  18 08:07:00  -303.367638  +0.33  -0.79
iter:  19 08:09:32  -301.648021  +0.27  -0.75
Writing to output.gpw (mode='')

iter:  20 08:12:10  -302.840343  +0.82  -0.93
iter:  21 08:14:54  -301.624471  +0.41  -0.91
iter:  22 08:17:28  -300.195123  +0.20  -1.10
iter:  23 08:20:13  -302.686588  +0.40  -1.24
iter:  24 08:22:54  -300.262658  +0.30  -1.07
Writing to output.gpw (mode='')

iter:  25 08:25:33  -300.314814  -0.14  -1.37
iter:  26 08:28:05  -300.341015  -0.36  -1.36
iter:  27 08:30:29  -299.979382  -0.31  -1.34
iter:  28 08:32:56  -300.000706  -0.76  -1.35
iter:  29 08:35:35  -300.375014  +0.22  -1.34
Writing to output.gpw (mode='')

iter:  30 08:38:15  -299.741806  -0.15  -1.41
iter:  31 08:40:49  -299.698029  -0.73  -1.51
iter:  32 08:43:26  -299.698630  -0.66  -1.65
iter:  33 08:45:58  -299.710819c -0.68  -1.61
iter:  34 08:48:38  -299.665557  -1.26  -1.75
Writing to output.gpw (mode='')

iter:  35 08:51:19  -299.657111  -0.93  -1.79
iter:  36 08:53:54  -299.705996  -0.98  -1.88
iter:  37 08:56:22  -299.693523  -1.73  -1.99
iter:  38 08:58:48  -299.682366c -1.96  -2.00
iter:  39 09:01:26  -299.649790  -1.16  -2.02
Writing to output.gpw (mode='')

iter:  40 09:04:01  -299.654125c -1.23  -2.07
iter:  41 09:06:31  -299.653214c -1.73  -2.08
iter:  42 09:09:05  -299.650511c -1.98  -2.19
iter:  43 09:11:30  -299.648949c -1.80  -2.16
iter:  44 09:14:02  -299.648591c -2.21  -2.17
Writing to output.gpw (mode='')

iter:  45 09:16:36  -299.652245c -1.99  -2.29
iter:  46 09:19:15  -299.648592c -2.18  -2.31
iter:  47 09:21:46  -299.649471c -1.77  -2.41
iter:  48 09:24:11  -299.650552c -2.17  -2.46
iter:  49 09:26:47  -299.648196c -2.54  -2.53
Writing to output.gpw (mode='')

iter:  50 09:29:18  -299.648258c -2.20  -2.79
iter:  51 09:31:54  -299.648287c -2.83  -2.84
iter:  52 09:34:27  -299.648242c -3.09  -2.91
iter:  53 09:36:56  -299.648156c -3.24  -2.94
iter:  54 09:39:25  -299.648187c -3.22  -3.15
Writing to output.gpw (mode='')

iter:  55 09:41:54  -299.648208c -3.24  -3.21
iter:  56 09:44:32  -299.648218c -3.39  -3.30
iter:  57 09:47:15  -299.648255c -3.50  -3.50
iter:  58 09:49:46  -299.648298c -3.53  -3.58
iter:  59 09:52:25  -299.648315c -3.94  -3.66
Writing to output.gpw (mode='')

iter:  60 09:54:51  -299.648345c -3.80  -3.64
iter:  61 09:57:19  -299.648366c -3.91  -3.57
iter:  62 09:59:48  -299.648365c -3.81  -3.54
iter:  63 10:02:12  -299.648373c -4.34  -3.60
iter:  64 10:04:49  -299.648379c -4.02  -3.58
Writing to output.gpw (mode='')

iter:  65 10:07:23  -299.648400c -4.18  -3.60
iter:  66 10:10:01  -299.648380c -4.20  -3.58
iter:  67 10:12:36  -299.648383c -4.22  -3.66
iter:  68 10:15:12  -299.648392c -4.33  -3.70
iter:  69 10:17:50  -299.648391c -4.42  -3.82
Writing to output.gpw (mode='')

iter:  70 10:20:34  -299.648395c -4.37  -3.86
iter:  71 10:23:07  -299.648397c -4.85  -3.93
iter:  72 10:25:35  -299.648395c -4.63  -4.15c
iter:  73 10:28:12  -299.648396c -4.72  -4.28c
iter:  74 10:30:46  -299.648396c -4.91  -4.41c
Writing to output.gpw (mode='')

iter:  75 10:33:31  -299.648398c -5.07  -4.47c
iter:  76 10:36:06  -299.648399c -4.96  -4.55c
iter:  77 10:38:44  -299.648400c -5.08  -4.71c
iter:  78 10:41:19  -299.648400c -5.21  -4.84c
iter:  79 10:43:55  -299.648401c -5.26  -4.85c
Writing to output.gpw (mode='')

iter:  80 10:46:25  -299.648401c -5.47  -5.01c
iter:  81 10:49:02  -299.648401c -5.41  -4.98c
iter:  82 10:51:34  -299.648401c -5.30  -4.99c
iter:  83 10:54:13  -299.648402c -5.50  -5.02c
iter:  84 10:56:54  -299.648402c -5.57  -5.09c
Writing to output.gpw (mode='')

iter:  85 10:59:40  -299.648402c -5.68  -5.15c
iter:  86 11:02:08  -299.648402c -5.64  -5.22c
iter:  87 11:04:41  -299.648402c -5.79  -5.34c
iter:  88 11:07:19  -299.648402c -5.70  -5.36c
iter:  89 11:10:04  -299.648402c -5.93  -5.37c
Writing to output.gpw (mode='')

iter:  90 11:12:42  -299.648402c -5.99  -5.41c
iter:  91 11:15:15  -299.648402c -5.93  -5.47c
iter:  92 11:17:45  -299.648402c -6.13  -5.68c
iter:  93 11:20:30  -299.648402c -5.95  -5.79c
iter:  94 11:23:06  -299.648402c -6.22  -5.79c
Writing to output.gpw (mode='')

iter:  95 11:25:47  -299.648402c -6.21  -5.85c
iter:  96 11:28:26  -299.648402c -6.23  -5.94c
iter:  97 11:31:02  -299.648402c -6.19  -5.97c
iter:  98 11:33:38  -299.648402c -6.47  -5.95c
iter:  99 11:36:19  -299.648402c -6.39  -5.90c
Writing to output.gpw (mode='')

iter: 100 11:38:49  -299.648402c -6.44  -5.85c
iter: 101 11:41:23  -299.648402c -6.25  -5.78c
iter: 102 11:44:00  -299.648402c -6.60  -5.71c
iter: 103 11:46:32  -299.648401c -6.43  -5.69c
iter: 104 11:49:06  -299.648401c -6.58  -5.71c
Writing to output.gpw (mode='')

iter: 105 11:51:43  -299.648401c -6.76  -5.66c
iter: 106 11:54:13  -299.648401c -6.76  -5.63c
iter: 107 11:56:51  -299.648401c -6.88  -5.64c
iter: 108 11:59:22  -299.648401c -6.93  -5.57c
iter: 109 12:01:54  -299.648401c -6.71  -5.65c
Writing to output.gpw (mode='')

iter: 110 12:04:24  -299.648401c -6.83  -5.54c
iter: 111 12:07:00  -299.648401c -6.93  -5.70c
iter: 112 12:09:33  -299.648401c -7.07  -5.59c
iter: 113 12:11:57  -299.648401c -6.97  -5.61c
iter: 114 12:14:30  -299.648401c -7.00  -5.70c
Writing to output.gpw (mode='')

iter: 115 12:17:04  -299.648401c -7.08  -5.97c
iter: 116 12:19:29  -299.648401c -7.20  -5.90c
iter: 117 12:22:03  -299.648401c -6.99  -5.88c
iter: 118 12:24:35  -299.648401c -7.30  -5.87c
iter: 119 12:27:08  -299.648401c -7.20  -5.91c
Writing to output.gpw (mode='')

iter: 120 12:29:43  -299.648401c -7.24  -6.03c
iter: 121 12:32:15  -299.648401c -7.25  -6.06c
iter: 122 12:34:47  -299.648401c -7.39  -6.18c
iter: 123 12:37:30  -299.648401c -7.40  -6.35c
iter: 124 12:40:08  -299.648401c -7.37  -6.38c
Writing to output.gpw (mode='')

iter: 125 12:42:45  -299.648401c -7.32  -6.44c
iter: 126 12:45:30  -299.648401c -7.48c -6.56c

Converged after 126 iterations.

Dipole moment: (-18.260721, -17.074168, 0.243324) |e|*Ang

Energy contributions relative to reference atoms: (reference = -14434.854043)

Kinetic:       +184.506925
Potential:     -168.059017
External:        +0.000000
XC:            -316.708657
Entropy (-ST):   -0.151010
Local:           +0.687853
--------------------------
Free energy:   -299.723906
Extrapolated:  -299.648401

Dipole-layer corrected work functions: 3.391522, 2.923770 eV

Showing only first 2 kpts
 Kpt  Band  Eigenvalues  Occupancy
  0    31     -3.40747    1.98657
  0    32     -3.32636    1.93378
  0    33     -2.99779    0.07856
  0    34     -2.90362    0.01236

  1    31     -3.19472    1.35466
  1    32     -3.15014    0.92513
  1    33     -3.12029    0.64293
  1    34     -3.09293    0.43025


Fermi level: -3.15765

No gap
Writing to output.gpw (mode='')


Forces in eV/Ang:
  0 Li    0.00667    0.00246   -0.26992
  1 Li   -0.00030    0.00066   -0.27341
  2 Li   -0.00646    0.00491   -0.26946
  3 Li   -0.00044    0.00279   -0.27414
  4 Li    0.00110   -0.00139   -0.28287
  5 Li   -0.00071    0.00167   -0.27370
  6 Li    0.00365   -0.00490   -0.27089
  7 Li   -0.00140    0.00061   -0.27457
  8 Li   -0.00235   -0.00629   -0.26966
  9 Li    0.00029    0.00135    0.28960
 10 Li    0.00911   -0.00086    0.25568
 11 Li   -0.00944    0.00010    0.25833
 12 Li   -0.00033    0.00716    0.26213
 13 Li    0.00261   -0.00079    0.25858
 14 Li   -0.00220    0.00032    0.25615
 15 Li   -0.00003   -0.00890    0.25272
 16 Li   -0.00397    0.00132    0.26159
 17 Li    0.00419   -0.00063    0.25906
 18 Li    0.00264    0.00014    0.01752
 19 Li    0.00087    0.00012    0.04059
 20 Li   -0.00316    0.00007    0.01410
 21 Li   -0.00047   -0.00369    0.03634
 22 Li    0.00011    0.00132    0.03037
 23 Li    0.00043   -0.00287    0.03948
 24 Li   -0.00443    0.00259    0.03540
 25 Li    0.00219   -0.00136    0.03503
 26 Li    0.00243    0.00166    0.02612
 27 Li    0.00450    0.01551    0.31635
 28 Li    0.01959   -0.00567   -0.02861
 29 Li   -0.02262   -0.00133   -0.02329
 30 Li    0.00148    0.01562   -0.01958
 31 Li    0.00510    0.00014   -0.02320
 32 Li   -0.00693    0.00366   -0.02564
 33 Li    0.00563   -0.01785   -0.02875
 34 Li   -0.00743    0.00665   -0.01596
 35 Li    0.00103   -0.00081   -0.02137
 36 O    -0.41428    0.92083   14.68282
 37 C     2.41885   -1.85283    1.82435
 38 C    -0.04897    0.28986    0.16411
 39 H    -0.34816    0.36822   -0.06633
 40 H     0.16373   -0.18498    0.55104
 41 H    -0.14068   -0.06814   -0.06720
 42 H     0.08417   -0.00277   -0.02763
 43 H     0.00712   -0.04217   -0.10209
 44 H     0.08169    1.90298    4.70518
 45 N    -0.73040    2.94528   -5.58906
 46 N    -1.08718   -4.28427  -16.42294

System changes: positions 

Initializing position-dependent things.

Density initialized from wave functions
       .-----------------------.  
      /|                       |  
     / |                       |  
    /  |                       |  
   /   |                       |  
  /    | H                     |  
 *     | C     H               |  
 |     | H                     N  
 |     |                       |  
 |     |                       |  
 H     |H                      |  
 |     |                 O     |  
 |     CH      Li      Li      |  
 |     |                       |  
 |   Li|     Li      Li        |  
 |     |  Li      Li     NLi   |  
 | Li  |   Li      Li          |  
 |     |Li      Li      Li     |  
 Li    |                       |  
 |   LLi     LLi     LLi       |  
 |     |  Li      Li      Li   |  
 | Li  |   Li      Li          |  
 |     |Li      Li      Li     |  
 Li    | Li      Li            |  
 |    Li      Li      Li       |  
 |     |                       |  
 |     |                       |  
 |     |                       |  
 |     |                       |  
 |     |                       |  
 |     |                       |  
 |     .-----------------------.  
 |    /                       /   
 |   /                       /    
 |  /                       /     
 | /                       /      
 |/                       /       
 *-----------------------*        

Positions:
   0 Li     1.617037    1.617037   10.000000    ( 0.0000,  0.0000,  0.0000)
   1 Li     4.851111    1.617037   10.000000    ( 0.0000,  0.0000,  0.0000)
   2 Li     8.085185    1.617037   10.000000    ( 0.0000,  0.0000,  0.0000)
   3 Li     1.617037    4.851111   10.000000    ( 0.0000,  0.0000,  0.0000)
   4 Li     4.851111    4.851111   10.000000    ( 0.0000,  0.0000,  0.0000)
   5 Li     8.085185    4.851111   10.000000    ( 0.0000,  0.0000,  0.0000)
   6 Li     1.617037    8.085185   10.000000    ( 0.0000,  0.0000,  0.0000)
   7 Li     4.851111    8.085185   10.000000    ( 0.0000,  0.0000,  0.0000)
   8 Li     8.085185    8.085185   10.000000    ( 0.0000,  0.0000,  0.0000)
   9 Li     0.000000    0.000000   11.617037    ( 0.0000,  0.0000,  0.0000)
  10 Li     3.234074    0.000000   11.617037    ( 0.0000,  0.0000,  0.0000)
  11 Li     6.468148    0.000000   11.617037    ( 0.0000,  0.0000,  0.0000)
  12 Li     0.000000    3.234074   11.617037    ( 0.0000,  0.0000,  0.0000)
  13 Li     3.234074    3.234074   11.617037    ( 0.0000,  0.0000,  0.0000)
  14 Li     6.468148    3.234074   11.617037    ( 0.0000,  0.0000,  0.0000)
  15 Li     0.000000    6.468148   11.617037    ( 0.0000,  0.0000,  0.0000)
  16 Li     3.234074    6.468148   11.617037    ( 0.0000,  0.0000,  0.0000)
  17 Li     6.468148    6.468148   11.617037    ( 0.0000,  0.0000,  0.0000)
  18 Li     1.617044    1.617038   13.469769    ( 0.0000,  0.0000,  0.0000)
  19 Li     4.851113    1.617039   13.469825    ( 0.0000,  0.0000,  0.0000)
  20 Li     8.085176    1.617038   13.469761    ( 0.0000,  0.0000,  0.0000)
  21 Li     1.617037    4.851102   13.469815    ( 0.0000,  0.0000,  0.0000)
  22 Li     4.851111    4.851114   13.469802    ( 0.0000,  0.0000,  0.0000)
  23 Li     8.085185    4.851104   13.469822    ( 0.0000,  0.0000,  0.0000)
  24 Li     1.617028    8.085190   13.469811    ( 0.0000,  0.0000,  0.0000)
  25 Li     4.851116    8.085180   13.469812    ( 0.0000,  0.0000,  0.0000)
  26 Li     8.085190    8.085188   13.469789    ( 0.0000,  0.0000,  0.0000)
  27 Li     0.000011    0.000036   15.446683    ( 0.0000,  0.0000,  0.0000)
  28 Li     3.234120   -0.000013   15.445872    ( 0.0000,  0.0000,  0.0000)
  29 Li     6.468095   -0.000003   15.445884    ( 0.0000,  0.0000,  0.0000)
  30 Li     0.000003    3.234110   15.445893    ( 0.0000,  0.0000,  0.0000)
  31 Li     3.234088    3.234077   15.445883    ( 0.0000,  0.0000,  0.0000)
  32 Li     6.468129    3.234085   15.445878    ( 0.0000,  0.0000,  0.0000)
  33 Li     0.000013    6.468106   15.445871    ( 0.0000,  0.0000,  0.0000)
  34 Li     3.234059    6.468161   15.445901    ( 0.0000,  0.0000,  0.0000)
  35 Li     6.468148    6.468144   15.445888    ( 0.0000,  0.0000,  0.0000)
  36 O      9.701248    9.704388   20.480472    ( 0.0000,  0.0000,  0.0000)
  37 C     10.890319    8.881107   20.454528    ( 0.0000,  0.0000,  0.0000)
  38 C     12.168729    9.705765   20.436090    ( 0.0000,  0.0000,  0.0000)
  39 H     10.875187    8.202795   21.310242    ( 0.0000,  0.0000,  0.0000)
  40 H     10.809626    8.275304   19.548738    ( 0.0000,  0.0000,  0.0000)
  41 H     13.045440    9.050976   20.420111    ( 0.0000,  0.0000,  0.0000)
  42 H     12.203753   10.354099   19.558821    ( 0.0000,  0.0000,  0.0000)
  43 H     12.239049   10.333471   21.328025    ( 0.0000,  0.0000,  0.0000)
  44 H      9.741581   10.289674   21.225230    ( 0.0000,  0.0000,  0.0000)
  45 N      9.700282    9.708927   17.932794    ( 0.0000,  0.0000,  0.0000)
  46 N      9.699443    9.691924   19.003936    ( 0.0000,  0.0000,  0.0000)

Unit cell:
           periodic     x           y           z      points  spacing
  1. axis:    yes    9.702222    0.000000    0.000000    60     0.1617
  2. axis:    yes    0.000000    9.702222    0.000000    60     0.1617
  3. axis:    no     0.000000    0.000000   24.851111   156     0.1593

  Lengths:   9.702222   9.702222  24.851111
  Angles:   90.000000  90.000000  90.000000

Effective grid spacing dv^(1/3) = 0.1609

     iter     time        total  log10-change:
                         energy  eigst   dens
iter:   1 12:48:59  -301.335918  -0.53
iter:   2 12:51:37  -301.092080  -0.59  -1.33
iter:   3 12:54:12  -301.023322  -1.14  -1.52
iter:   4 12:56:51  -301.002347  -1.01  -1.82
Writing to output.gpw (mode='')

iter:   5 12:59:26  -300.972935  -0.97  -1.95
iter:   6 13:02:01  -300.966815  -1.53  -2.09
iter:   7 13:04:34  -300.970724c -1.49  -2.34
iter:   8 13:07:01  -300.967562c -2.26  -2.21
iter:   9 13:09:35  -300.967687c -1.77  -2.34
Writing to output.gpw (mode='')

iter:  10 13:12:04  -300.966915c -2.09  -2.44
iter:  11 13:14:48  -300.966431c -2.53  -2.54
iter:  12 13:17:15  -300.966394c -2.47  -2.72
iter:  13 13:19:45  -300.966439c -3.00  -2.82
iter:  14 13:22:15  -300.966557c -3.03  -2.96
Writing to output.gpw (mode='')

iter:  15 13:24:49  -300.966525c -3.11  -2.94
iter:  16 13:27:22  -300.966563c -3.47  -3.22
iter:  17 13:29:49  -300.966577c -3.55  -3.27
iter:  18 13:32:18  -300.966615c -3.79  -3.32
iter:  19 13:34:46  -300.966628c -3.86  -3.36
Writing to output.gpw (mode='')

iter:  20 13:37:29  -300.966628c -4.19  -3.53
iter:  21 13:40:00  -300.966630c -4.36  -3.61
iter:  22 13:42:33  -300.966626c -4.37  -3.71
iter:  23 13:44:53  -300.966631c -4.46  -3.91
iter:  24 13:47:27  -300.966633c -4.98  -4.06c
Writing to output.gpw (mode='')

iter:  25 13:49:57  -300.966634c -4.90  -4.11c
iter:  26 13:52:33  -300.966636c -4.99  -4.25c
iter:  27 13:55:05  -300.966638c -5.05  -4.45c
iter:  28 13:57:42  -300.966639c -5.28  -4.45c
iter:  29 14:00:21  -300.966640c -5.09  -4.46c
Writing to output.gpw (mode='')

iter:  30 14:02:56  -300.966641c -5.56  -4.41c
iter:  31 14:05:31  -300.966641c -5.24  -4.42c
iter:  32 14:08:07  -300.966642c -5.59  -4.30c
iter:  33 14:10:53  -300.966642c -5.65  -4.34c
iter:  34 14:13:29  -300.966641c -5.65  -4.23c
Writing to output.gpw (mode='')

iter:  35 14:15:59  -300.966642c -5.76  -4.17c
iter:  36 14:18:33  -300.966643c -5.93  -4.23c
iter:  37 14:21:02  -300.966643c -5.98  -4.25c
iter:  38 14:23:45  -300.966646c -6.09  -4.24c
iter:  39 14:26:17  -300.966645c -6.55  -4.29c
Writing to output.gpw (mode='')

iter:  40 14:28:54  -300.966642c -6.37  -4.30c
iter:  41 14:31:29  -300.966644c -6.56  -4.39c
iter:  42 14:33:56  -300.966646c -6.29  -4.50c
iter:  43 14:36:32  -300.966645c -6.58  -4.61c
iter:  44 14:39:07  -300.966646c -6.71  -4.74c
Writing to output.gpw (mode='')

iter:  45 14:41:42  -300.966646c -6.74  -4.91c
iter:  46 14:44:19  -300.966646c -6.62  -4.94c
iter:  47 14:46:51  -300.966645c -6.97  -4.96c
iter:  48 14:49:21  -300.966645c -7.17  -4.99c
iter:  49 14:52:01  -300.966645c -7.22  -5.05c
Writing to output.gpw (mode='')

iter:  50 14:54:35  -300.966645c -7.18  -5.13c
iter:  51 14:57:02  -300.966645c -7.45c -5.46c

Converged after 51 iterations.

Dipole moment: (-17.735003, -17.007439, 0.304578) |e|*Ang

Energy contributions relative to reference atoms: (reference = -14434.854043)

Kinetic:       +188.170591
Potential:     -171.782881
External:        +0.000000
XC:            -317.973498
Entropy (-ST):   -0.150087
Local:           +0.694186
--------------------------
Free energy:   -301.041688
Extrapolated:  -300.966645

Dipole-layer corrected work functions: 3.389478, 2.803974 eV

Showing only first 2 kpts
 Kpt  Band  Eigenvalues  Occupancy
  0    31     -3.34792    1.98693
  0    32     -3.26747    1.93634
  0    33     -2.93343    0.07352
  0    34     -2.84233    0.01226

  1    31     -3.13166    1.33576
  1    32     -3.08886    0.92146
  1    33     -3.05815    0.63234
  1    34     -3.03526    0.45262


Fermi level: -3.09673

No gap
Writing to output.gpw (mode='')


Forces in eV/Ang:
  0 Li    0.00532    0.00273   -0.26986
  1 Li   -0.00013   -0.00024   -0.27327
  2 Li   -0.00525    0.00459   -0.26943
  3 Li   -0.00106    0.00157   -0.27369
  4 Li    0.00081   -0.00098   -0.28162
  5 Li    0.00018    0.00063   -0.27326
  6 Li    0.00363   -0.00413   -0.27037
  7 Li   -0.00105    0.00111   -0.27379
  8 Li   -0.00263   -0.00505   -0.26943
  9 Li    0.00042    0.00084    0.28681
 10 Li    0.00857   -0.00071    0.25516
 11 Li   -0.00907    0.00017    0.25688
 12 Li   -0.00035    0.00760    0.25873
 13 Li    0.00153   -0.00049    0.25927
 14 Li   -0.00110   -0.00018    0.25696
 15 Li   -0.00010   -0.00873    0.25372
 16 Li   -0.00261    0.00106    0.26121
 17 Li    0.00281   -0.00012    0.25969
 18 Li    0.00079   -0.00028    0.02153
 19 Li    0.00074    0.00055    0.04085
 20 Li   -0.00133   -0.00054    0.01868
 21 Li    0.00025   -0.00252    0.03770
 22 Li    0.00032    0.00105    0.02825
 23 Li   -0.00049   -0.00220    0.04011
 24 Li   -0.00361    0.00236    0.03416
 25 Li    0.00158   -0.00148    0.03688
 26 Li    0.00214    0.00218    0.02657
 27 Li    0.00461    0.01249    0.30579
 28 Li    0.02701   -0.00445   -0.03658
 29 Li   -0.02995   -0.00109   -0.03180
 30 Li    0.00170    0.02597   -0.03216
 31 Li    0.00406    0.00046   -0.02434
 32 Li   -0.00595    0.00357   -0.02711
 33 Li    0.00481   -0.02534   -0.03588
 34 Li   -0.00491    0.00465   -0.01866
 35 Li   -0.00056   -0.00147   -0.02295
 36 O    -0.06455    0.52119   14.27818
 37 C     1.60073   -1.11891    1.74334
 38 C     0.03204    0.14838    0.12256
 39 H    -0.17442    0.13611    0.03937
 40 H     0.12236   -0.13955    0.54199
 41 H    -0.10570   -0.01717   -0.05802
 42 H     0.06192   -0.00400   -0.02465
 43 H     0.01439   -0.01287   -0.05317
 44 H     0.24509    1.52662    4.24929
 45 N    -0.56610    2.43326   -8.45138
 46 N    -1.16965   -3.45607  -12.70424

System changes: positions 

Initializing position-dependent things.

Density initialized from wave functions
       .-----------------------.  
      /|                       |  
     / |                       |  
    /  |                       |  
   /   |                       |  
  /    | H                     |  
 *     | C     H               |  
 |     | H                     N  
 |     |                       |  
 |     |                       |  
 H     |H                      |  
 |     |                 O     |  
 |     CH      Li      Li      |  
 |     |                       |  
 |   Li|     Li      Li        |  
 |     |  Li      Li     NLi   |  
 | Li  |   Li      Li          |  
 |     |Li      Li      Li     |  
 Li    |                       |  
 |   LLi     LLi     LLi       |  
 |     |  Li      Li      Li   |  
 | Li  |   Li      Li          |  
 |     |Li      Li      Li     |  
 Li    | Li      Li            |  
 |    Li      Li      Li       |  
 |     |                       |  
 |     |                       |  
 |     |                       |  
 |     |                       |  
 |     |                       |  
 |     |                       |  
 |     .-----------------------.  
 |    /                       /   
 |   /                       /    
 |  /                       /     
 | /                       /      
 |/                       /       
 *-----------------------*        

Positions:
   0 Li     1.617037    1.617037   10.000000    ( 0.0000,  0.0000,  0.0000)
   1 Li     4.851111    1.617037   10.000000    ( 0.0000,  0.0000,  0.0000)
   2 Li     8.085185    1.617037   10.000000    ( 0.0000,  0.0000,  0.0000)
   3 Li     1.617037    4.851111   10.000000    ( 0.0000,  0.0000,  0.0000)
   4 Li     4.851111    4.851111   10.000000    ( 0.0000,  0.0000,  0.0000)
   5 Li     8.085185    4.851111   10.000000    ( 0.0000,  0.0000,  0.0000)
   6 Li     1.617037    8.085185   10.000000    ( 0.0000,  0.0000,  0.0000)
   7 Li     4.851111    8.085185   10.000000    ( 0.0000,  0.0000,  0.0000)
   8 Li     8.085185    8.085185   10.000000    ( 0.0000,  0.0000,  0.0000)
   9 Li     0.000000    0.000000   11.617037    ( 0.0000,  0.0000,  0.0000)
  10 Li     3.234074    0.000000   11.617037    ( 0.0000,  0.0000,  0.0000)
  11 Li     6.468148    0.000000   11.617037    ( 0.0000,  0.0000,  0.0000)
  12 Li     0.000000    3.234074   11.617037    ( 0.0000,  0.0000,  0.0000)
  13 Li     3.234074    3.234074   11.617037    ( 0.0000,  0.0000,  0.0000)
  14 Li     6.468148    3.234074   11.617037    ( 0.0000,  0.0000,  0.0000)
  15 Li     0.000000    6.468148   11.617037    ( 0.0000,  0.0000,  0.0000)
  16 Li     3.234074    6.468148   11.617037    ( 0.0000,  0.0000,  0.0000)
  17 Li     6.468148    6.468148   11.617037    ( 0.0000,  0.0000,  0.0000)
  18 Li     1.617042    1.617037   13.469840    ( 0.0000,  0.0000,  0.0000)
  19 Li     4.851115    1.617041   13.469943    ( 0.0000,  0.0000,  0.0000)
  20 Li     8.085177    1.617035   13.469826    ( 0.0000,  0.0000,  0.0000)
  21 Li     1.617040    4.851098   13.469926    ( 0.0000,  0.0000,  0.0000)
  22 Li     4.851113    4.851116   13.469878    ( 0.0000,  0.0000,  0.0000)
  23 Li     8.085181    4.851100   13.469939    ( 0.0000,  0.0000,  0.0000)
  24 Li     1.617019    8.085196   13.469906    ( 0.0000,  0.0000,  0.0000)
  25 Li     4.851119    8.085176   13.469922    ( 0.0000,  0.0000,  0.0000)
  26 Li     8.085195    8.085195   13.469867    ( 0.0000,  0.0000,  0.0000)
  27 Li     0.000024    0.000065   15.447535    ( 0.0000,  0.0000,  0.0000)
  28 Li     3.234215   -0.000023   15.445748    ( 0.0000,  0.0000,  0.0000)
  29 Li     6.467992   -0.000006   15.445772    ( 0.0000,  0.0000,  0.0000)
  30 Li     0.000009    3.234210   15.445770    ( 0.0000,  0.0000,  0.0000)
  31 Li     3.234098    3.234079   15.445811    ( 0.0000,  0.0000,  0.0000)
  32 Li     6.468115    3.234095   15.445796    ( 0.0000,  0.0000,  0.0000)
  33 Li     0.000025    6.468016   15.445751    ( 0.0000,  0.0000,  0.0000)
  34 Li     3.234051    6.468170   15.445841    ( 0.0000,  0.0000,  0.0000)
  35 Li     6.468143    6.468138   15.445818    ( 0.0000,  0.0000,  0.0000)
  36 O      9.701899    9.704927   20.520463    ( 0.0000,  0.0000,  0.0000)
  37 C     10.892953    8.879653   20.459336    ( 0.0000,  0.0000,  0.0000)
  38 C     12.169015    9.705852   20.436342    ( 0.0000,  0.0000,  0.0000)
  39 H     10.875103    8.202631   21.310607    ( 0.0000,  0.0000,  0.0000)
  40 H     10.809878    8.275012   19.550271    ( 0.0000,  0.0000,  0.0000)
  41 H     13.045221    9.051049   20.419967    ( 0.0000,  0.0000,  0.0000)
  42 H     12.203878   10.354085   19.558757    ( 0.0000,  0.0000,  0.0000)
  43 H     12.239107   10.333505   21.327990    ( 0.0000,  0.0000,  0.0000)
  44 H      9.742675   10.293153   21.236329    ( 0.0000,  0.0000,  0.0000)
  45 N      9.699051    9.714682   17.901702    ( 0.0000,  0.0000,  0.0000)
  46 N      9.695890    9.683991   18.976388    ( 0.0000,  0.0000,  0.0000)

Unit cell:
           periodic     x           y           z      points  spacing
  1. axis:    yes    9.702222    0.000000    0.000000    60     0.1617
  2. axis:    yes    0.000000    9.702222    0.000000    60     0.1617
  3. axis:    no     0.000000    0.000000   24.851111   156     0.1593

  Lengths:   9.702222   9.702222  24.851111
  Angles:   90.000000  90.000000  90.000000

Effective grid spacing dv^(1/3) = 0.1609

     iter     time        total  log10-change:
                         energy  eigst   dens
iter:   1 15:00:14  -302.278991  -0.66
iter:   2 15:02:54  -302.222191  -0.92  -1.58
iter:   3 15:05:26  -302.203143  -1.42  -1.76
iter:   4 15:08:01  -302.208012c -1.64  -2.06
Writing to output.gpw (mode='')

iter:   5 15:10:37  -302.201093c -1.15  -2.05
iter:   6 15:13:16  -302.196994c -1.91  -1.93
iter:   7 15:15:48  -302.189841c -1.70  -2.00
iter:   8 15:18:18  -302.187311c -1.68  -2.32
iter:   9 15:20:54  -302.194905c -1.68  -2.43
Writing to output.gpw (mode='')

iter:  10 15:23:28  -302.188843c -2.21  -2.13
iter:  11 15:26:00  -302.188066c -1.79  -2.43
iter:  12 15:28:36  -302.187578c -2.51  -2.39
iter:  13 15:31:02  -302.187100c -2.28  -2.45
iter:  14 15:33:43  -302.186436c -3.06  -2.55
Writing to output.gpw (mode='')

iter:  15 15:36:15  -302.186601c -2.80  -2.88
iter:  16 15:39:01  -302.186656c -3.49  -2.96
iter:  17 15:41:38  -302.186501c -3.82  -2.87
iter:  18 15:44:20  -302.186704c -2.74  -3.05
iter:  19 15:46:56  -302.186316c -3.40  -2.85
Writing to output.gpw (mode='')

iter:  20 15:49:32  -302.186320c -4.01  -3.26
iter:  21 15:52:09  -302.186347c -4.12  -3.30
iter:  22 15:54:38  -302.186332c -3.73  -3.45
iter:  23 15:57:06  -302.186342c -4.18  -3.55
iter:  24 15:59:41  -302.186350c -4.34  -3.56
Writing to output.gpw (mode='')

iter:  25 16:02:14  -302.186345c -4.82  -3.46
iter:  26 16:04:49  -302.186348c -4.66  -3.57
iter:  27 16:07:24  -302.186344c -5.30  -3.60
iter:  28 16:09:51  -302.186358c -4.61  -3.59
iter:  29 16:12:25  -302.186361c -4.72  -3.50
Writing to output.gpw (mode='')

iter:  30 16:15:03  -302.186329c -4.34  -3.47
iter:  31 16:17:38  -302.186330c -5.23  -4.03c
iter:  32 16:20:16  -302.186332c -5.66  -4.13c
iter:  33 16:22:52  -302.186334c -5.44  -4.16c
iter:  34 16:25:23  -302.186330c -5.35  -4.17c
Writing to output.gpw (mode='')

iter:  35 16:28:03  -302.186330c -5.62  -4.39c
iter:  36 16:30:36  -302.186331c -6.07  -4.38c
iter:  37 16:33:03  -302.186333c -6.33  -4.44c
iter:  38 16:35:41  -302.186333c -6.34  -4.60c
iter:  39 16:38:13  -302.186333c -6.39  -4.89c
Writing to output.gpw (mode='')

iter:  40 16:40:42  -302.186333c -6.57  -4.97c
iter:  41 16:43:15  -302.186333c -6.66  -5.07c
iter:  42 16:45:41  -302.186333c -6.86  -5.14c
iter:  43 16:48:08  -302.186333c -6.94  -5.17c
iter:  44 16:50:44  -302.186333c -7.09  -5.29c
Writing to output.gpw (mode='')

iter:  45 16:53:21  -302.186333c -7.11  -5.49c
iter:  46 16:55:56  -302.186333c -7.18  -5.54c
iter:  47 16:58:33  -302.186333c -7.21  -5.61c
iter:  48 17:01:08  -302.186333c -7.43c -5.63c

Converged after 48 iterations.

Dipole moment: (-17.348824, -16.832666, 0.352019) |e|*Ang

Energy contributions relative to reference atoms: (reference = -14434.854043)

Kinetic:       +185.631563
Potential:     -170.354503
External:        +0.000000
XC:            -318.090516
Entropy (-ST):   -0.149849
Local:           +0.702048
--------------------------
Free energy:   -302.261258
Extrapolated:  -302.186333

Dipole-layer corrected work functions: 3.388431, 2.711730 eV

Showing only first 2 kpts
 Kpt  Band  Eigenvalues  Occupancy
  0    31     -3.30154    1.98700
  0    32     -3.22126    1.93686
  0    33     -2.88596    0.07236
  0    34     -2.79577    0.01229

  1    31     -3.08473    1.33330
  1    32     -3.04209    0.92022
  1    33     -3.01171    0.63404
  1    34     -2.98864    0.45279


Fermi level: -3.05008

No gap
Writing to output.gpw (mode='')


Forces in eV/Ang:
  0 Li    0.00503    0.00289   -0.26975
  1 Li   -0.00010   -0.00045   -0.27312
  2 Li   -0.00499    0.00457   -0.26931
  3 Li   -0.00117    0.00122   -0.27346
  4 Li    0.00073   -0.00084   -0.28133
  5 Li    0.00035    0.00037   -0.27307
  6 Li    0.00374   -0.00400   -0.27013
  7 Li   -0.00095    0.00116   -0.27349
  8 Li   -0.00282   -0.00480   -0.26926
  9 Li    0.00047    0.00072    0.28680
 10 Li    0.00854   -0.00068    0.25517
 11 Li   -0.00911    0.00017    0.25657
 12 Li   -0.00035    0.00781    0.25788
 13 Li    0.00127   -0.00032    0.25945
 14 Li   -0.00083   -0.00028    0.25721
 15 Li   -0.00011   -0.00883    0.25420
 16 Li   -0.00221    0.00093    0.26106
 17 Li    0.00240   -0.00000    0.25979
 18 Li    0.00031   -0.00033    0.02179
 19 Li    0.00070    0.00068    0.04082
 20 Li   -0.00085   -0.00075    0.01918
 21 Li    0.00048   -0.00211    0.03803
 22 Li    0.00035    0.00099    0.02759
 23 Li   -0.00074   -0.00194    0.04025
 24 Li   -0.00334    0.00220    0.03265
 25 Li    0.00139   -0.00152    0.03735
 26 Li    0.00203    0.00231    0.02584
 27 Li    0.00515    0.01274    0.32288
 28 Li    0.02952   -0.00402   -0.03829
 29 Li   -0.03256   -0.00104   -0.03405
 30 Li    0.00181    0.03006   -0.03601
 31 Li    0.00392    0.00077   -0.02476
 32 Li   -0.00590    0.00385   -0.02772
 33 Li    0.00452   -0.02766   -0.03733
 34 Li   -0.00380    0.00371   -0.01962
 35 Li   -0.00134   -0.00196   -0.02373
 36 O     0.05552   -0.32754   11.99485
 37 C     1.13186   -0.67442    1.67711
 38 C     0.05600    0.08644    0.10471
 39 H    -0.03550   -0.03198    0.13005
 40 H     0.05930   -0.06081    0.57954
 41 H    -0.07182   -0.00042   -0.05235
 42 H     0.04366   -0.01064   -0.01896
 43 H     0.02626    0.00159   -0.02702
 44 H     0.42480    1.74939    4.25611
 45 N    -0.43526    2.04284   -7.25497
 46 N    -1.27769   -2.82470  -11.65102

System changes: positions 

Initializing position-dependent things.

Density initialized from wave functions
       .-----------------------.  
      /|                       |  
     / |                       |  
    /  |                       |  
   /   |                       |  
  /    O H                     |  
 *     | C     H               |  
 |     | H                     N  
 |     |                       |  
 |     |                       |  
 H     |H                      |  
 |     |                       |  
 |     CH      Li      Li      |  
 |     |                       |  
 |   Li|     Li      Li        |  
 |     |  Li      Li     NLi   |  
 | Li  |   Li      Li          |  
 |     |Li      Li      Li     |  
 Li    |                       |  
 |   LLi     LLi     LLi       |  
 |     |  Li      Li      Li   |  
 | Li  |   Li      Li          |  
 |     |Li      Li      Li     |  
 Li    | Li      Li            |  
 |    Li      Li      Li       |  
 |     |                       |  
 |     |                       |  
 |     |                       |  
 |     |                       |  
 |     |                       |  
 |     |                       |  
 |     .-----------------------.  
 |    /                       /   
 |   /                       /    
 |  /                       /     
 | /                       /      
 |/                       /       
 *-----------------------*        

Positions:
   0 Li     1.617037    1.617037   10.000000    ( 0.0000,  0.0000,  0.0000)
   1 Li     4.851111    1.617037   10.000000    ( 0.0000,  0.0000,  0.0000)
   2 Li     8.085185    1.617037   10.000000    ( 0.0000,  0.0000,  0.0000)
   3 Li     1.617037    4.851111   10.000000    ( 0.0000,  0.0000,  0.0000)
   4 Li     4.851111    4.851111   10.000000    ( 0.0000,  0.0000,  0.0000)
   5 Li     8.085185    4.851111   10.000000    ( 0.0000,  0.0000,  0.0000)
   6 Li     1.617037    8.085185   10.000000    ( 0.0000,  0.0000,  0.0000)
   7 Li     4.851111    8.085185   10.000000    ( 0.0000,  0.0000,  0.0000)
   8 Li     8.085185    8.085185   10.000000    ( 0.0000,  0.0000,  0.0000)
   9 Li     0.000000    0.000000   11.617037    ( 0.0000,  0.0000,  0.0000)
  10 Li     3.234074    0.000000   11.617037    ( 0.0000,  0.0000,  0.0000)
  11 Li     6.468148    0.000000   11.617037    ( 0.0000,  0.0000,  0.0000)
  12 Li     0.000000    3.234074   11.617037    ( 0.0000,  0.0000,  0.0000)
  13 Li     3.234074    3.234074   11.617037    ( 0.0000,  0.0000,  0.0000)
  14 Li     6.468148    3.234074   11.617037    ( 0.0000,  0.0000,  0.0000)
  15 Li     0.000000    6.468148   11.617037    ( 0.0000,  0.0000,  0.0000)
  16 Li     3.234074    6.468148   11.617037    ( 0.0000,  0.0000,  0.0000)
  17 Li     6.468148    6.468148   11.617037    ( 0.0000,  0.0000,  0.0000)
  18 Li     1.617033    1.617033   13.469971    ( 0.0000,  0.0000,  0.0000)
  19 Li     4.851118    1.617048   13.470157    ( 0.0000,  0.0000,  0.0000)
  20 Li     8.085184    1.617027   13.469947    ( 0.0000,  0.0000,  0.0000)
  21 Li     1.617047    4.851095   13.470134    ( 0.0000,  0.0000,  0.0000)
  22 Li     4.851116    4.851120   13.470008    ( 0.0000,  0.0000,  0.0000)
  23 Li     8.085171    4.851094   13.470154    ( 0.0000,  0.0000,  0.0000)
  24 Li     1.617007    8.085205   13.470058    ( 0.0000,  0.0000,  0.0000)
  25 Li     4.851123    8.085167   13.470129    ( 0.0000,  0.0000,  0.0000)
  26 Li     8.085204    8.085211   13.469996    ( 0.0000,  0.0000,  0.0000)
  27 Li     0.000057    0.000124   15.449369    ( 0.0000,  0.0000,  0.0000)
  28 Li     3.234421   -0.000036   15.445502    ( 0.0000,  0.0000,  0.0000)
  29 Li     6.467769   -0.000010   15.445542    ( 0.0000,  0.0000,  0.0000)
  30 Li     0.000020    3.234445   15.445499    ( 0.0000,  0.0000,  0.0000)
  31 Li     3.234113    3.234087   15.445673    ( 0.0000,  0.0000,  0.0000)
  32 Li     6.468087    3.234118   15.445640    ( 0.0000,  0.0000,  0.0000)
  33 Li     0.000043    6.467821   15.445516    ( 0.0000,  0.0000,  0.0000)
  34 Li     3.234051    6.468173   15.445719    ( 0.0000,  0.0000,  0.0000)
  35 Li     6.468122    6.468120   15.445680    ( 0.0000,  0.0000,  0.0000)
  36 O      9.704613    9.693136   20.558590    ( 0.0000,  0.0000,  0.0000)
  37 C     10.891297    8.883173   20.467181    ( 0.0000,  0.0000,  0.0000)
  38 C     12.169830    9.705189   20.436567    ( 0.0000,  0.0000,  0.0000)
  39 H     10.876933    8.199948   21.312580    ( 0.0000,  0.0000,  0.0000)
  40 H     10.809401    8.275656   19.553667    ( 0.0000,  0.0000,  0.0000)
  41 H     13.045310    9.051392   20.419781    ( 0.0000,  0.0000,  0.0000)
  42 H     12.203844   10.353957   19.558726    ( 0.0000,  0.0000,  0.0000)
  43 H     12.239392   10.333761   21.328283    ( 0.0000,  0.0000,  0.0000)
  44 H      9.747305   10.303340   21.257183    ( 0.0000,  0.0000,  0.0000)
  45 N      9.698669    9.719653   17.866180    ( 0.0000,  0.0000,  0.0000)
  46 N      9.687796    9.678466   18.938709    ( 0.0000,  0.0000,  0.0000)

Unit cell:
           periodic     x           y           z      points  spacing
  1. axis:    yes    9.702222    0.000000    0.000000    60     0.1617
  2. axis:    yes    0.000000    9.702222    0.000000    60     0.1617
  3. axis:    no     0.000000    0.000000   24.851111   156     0.1593

  Lengths:   9.702222   9.702222  24.851111
  Angles:   90.000000  90.000000  90.000000

Effective grid spacing dv^(1/3) = 0.1609

     iter     time        total  log10-change:
                         energy  eigst   dens
iter:   1 17:04:30  -303.559586  -0.64
iter:   2 17:07:04  -303.449256  -0.80  -1.49
iter:   3 17:09:36  -303.416884  -1.44  -1.69
iter:   4 17:12:11  -303.400602  -1.15  -2.02
Writing to output.gpw (mode='')

iter:   5 17:14:54  -303.400476c -1.01  -2.32
iter:   6 17:17:31  -303.398732c -1.84  -2.16
iter:   7 17:20:10  -303.399229c -1.80  -2.41
iter:   8 17:22:48  -303.401461c -1.70  -2.44
iter:   9 17:25:24  -303.398668c -2.22  -2.50
Writing to output.gpw (mode='')

iter:  10 17:28:01  -303.399041c -1.97  -2.58
iter:  11 17:30:41  -303.398425c -2.90  -2.79
iter:  12 17:33:19  -303.398505c -3.10  -2.89
iter:  13 17:35:55  -303.399478c -2.72  -2.91
iter:  14 17:38:31  -303.398708c -3.13  -2.75
Writing to output.gpw (mode='')

iter:  15 17:41:10  -303.398397c -2.71  -2.88
iter:  16 17:43:40  -303.398418c -3.07  -3.14
iter:  17 17:46:12  -303.398467c -3.30  -3.42
iter:  18 17:48:41  -303.398457c -3.97  -3.46
iter:  19 17:51:10  -303.398456c -4.17  -3.56
Writing to output.gpw (mode='')

iter:  20 17:53:38  -303.398462c -4.29  -3.58
iter:  21 17:56:13  -303.398473c -4.48  -3.62
iter:  22 17:58:45  -303.398465c -4.67  -3.66
iter:  23 18:01:10  -303.398465c -4.64  -3.78
iter:  24 18:03:41  -303.398465c -5.19  -4.02c
Writing to output.gpw (mode='')

iter:  25 18:06:14  -303.398470c -4.70  -4.00c
iter:  26 18:08:41  -303.398470c -5.20  -3.97
iter:  27 18:11:12  -303.398470c -5.22  -3.99
iter:  28 18:13:40  -303.398473c -5.12  -3.95
iter:  29 18:16:17  -303.398474c -5.44  -3.89
Writing to output.gpw (mode='')

iter:  30 18:18:54  -303.398472c -5.51  -3.90
iter:  31 18:21:22  -303.398469c -5.23  -3.92
iter:  32 18:23:51  -303.398467c -5.70  -4.13c
iter:  33 18:26:22  -303.398461c -5.51  -4.18c
iter:  34 18:28:52  -303.398464c -6.05  -4.17c
Writing to output.gpw (mode='')

iter:  35 18:31:34  -303.398468c -5.72  -4.36c
iter:  36 18:34:16  -303.398466c -6.48  -4.57c
iter:  37 18:36:53  -303.398466c -6.63  -4.67c
iter:  38 18:39:26  -303.398466c -6.60  -4.72c
iter:  39 18:41:59  -303.398466c -6.69  -4.74c
Writing to output.gpw (mode='')

iter:  40 18:44:35  -303.398466c -6.84  -4.78c
iter:  41 18:47:07  -303.398466c -7.04  -4.99c
iter:  42 18:49:39  -303.398466c -7.27  -5.07c
iter:  43 18:52:12  -303.398466c -7.14  -5.15c
iter:  44 18:54:44  -303.398466c -7.30  -5.19c
Writing to output.gpw (mode='')

iter:  45 18:57:18  -303.398467c -7.39  -5.28c
iter:  46 18:59:51  -303.398466c -7.39  -5.50c
iter:  47 19:02:21  -303.398466c -7.74c -5.53c

Converged after 47 iterations.

Dipole moment: (-16.844794, -15.602417, 0.364237) |e|*Ang

Energy contributions relative to reference atoms: (reference = -14434.854043)

Kinetic:       +182.228313
Potential:     -168.295894
External:        +0.000000
XC:            -317.966454
Entropy (-ST):   -0.149633
Local:           +0.710385
--------------------------
Free energy:   -303.473283
Extrapolated:  -303.398466

Dipole-layer corrected work functions: 3.388341, 2.688153 eV

Showing only first 2 kpts
 Kpt  Band  Eigenvalues  Occupancy
  0    31     -3.28970    1.98700
  0    32     -3.20988    1.93742
  0    33     -2.87333    0.07125
  0    34     -2.78396    0.01229

  1    31     -3.07282    1.33255
  1    32     -3.02990    0.91676
  1    33     -3.00035    0.63823
  1    34     -2.97629    0.44918


Fermi level: -3.03825

No gap
Writing to output.gpw (mode='')


Forces in eV/Ang:
  0 Li    0.00487    0.00305   -0.26965
  1 Li   -0.00008   -0.00047   -0.27312
  2 Li   -0.00484    0.00457   -0.26917
  3 Li   -0.00111    0.00103   -0.27342
  4 Li    0.00065   -0.00072   -0.28137
  5 Li    0.00034    0.00024   -0.27306
  6 Li    0.00383   -0.00399   -0.26996
  7 Li   -0.00086    0.00105   -0.27342
  8 Li   -0.00298   -0.00468   -0.26909
  9 Li    0.00054    0.00064    0.28685
 10 Li    0.00858   -0.00065    0.25531
 11 Li   -0.00926    0.00016    0.25640
 12 Li   -0.00036    0.00806    0.25743
 13 Li    0.00114   -0.00014    0.25946
 14 Li   -0.00067   -0.00041    0.25742
 15 Li   -0.00016   -0.00901    0.25453
 16 Li   -0.00191    0.00077    0.26084
 17 Li    0.00214    0.00016    0.25978
 18 Li   -0.00020   -0.00053    0.02247
 19 Li    0.00057    0.00088    0.04009
 20 Li   -0.00023   -0.00124    0.02050
 21 Li    0.00075   -0.00179    0.03760
 22 Li    0.00039    0.00093    0.02725
 23 Li   -0.00103   -0.00167    0.03956
 24 Li   -0.00338    0.00222    0.03199
 25 Li    0.00119   -0.00164    0.03705
 26 Li    0.00225    0.00268    0.02618
 27 Li    0.00682    0.01250    0.32703
 28 Li    0.03111   -0.00367   -0.03930
 29 Li   -0.03399   -0.00093   -0.03579
 30 Li    0.00174    0.03265   -0.03858
 31 Li    0.00339    0.00063   -0.02458
 32 Li   -0.00524    0.00347   -0.02747
 33 Li    0.00422   -0.02894   -0.03848
 34 Li   -0.00332    0.00334   -0.01995
 35 Li   -0.00145   -0.00185   -0.02390
 36 O    -0.01382   -0.40397    9.92903
 37 C     0.97435   -0.64261    1.57301
 38 C     0.02548    0.11613    0.12090
 39 H     0.10453   -0.13381    0.13881
 40 H     0.00581    0.04765    0.65186
 41 H    -0.04023   -0.01538   -0.04970
 42 H     0.03263   -0.01558   -0.00707
 43 H     0.04783    0.00827   -0.02639
 44 H     0.52917    1.37693    3.42302
 45 N    -0.24518    1.67316   -6.98611
 46 N    -1.44118   -1.97715   -9.07920

System changes: positions 

Initializing position-dependent things.

Density initialized from wave functions
       .-----------------------.  
      /|                       |  
     / |                       |  
    /  |                       |  
   /   |                       |  
  /    O H                     |  
 *     | C     H               |  
 |     | H                     N  
 |     |                       |  
 |     |                       |  
 |H    |H                      |  
 |     |                       |  
 |     CH      Li      Li      |  
 |     |                       |  
 |   Li|     Li      Li        |  
 |     |  Li      Li     NLi   |  
 | Li  |   Li      Li          |  
 |     |Li      Li      Li     |  
 Li    |                       |  
 |   LLi     LLi     LLi       |  
 |     |  Li      Li      Li   |  
 | Li  |   Li      Li          |  
 |     |Li      Li      Li     |  
 Li    | Li      Li            |  
 |    Li      Li      Li       |  
 |     |                       |  
 |     |                       |  
 |     |                       |  
 |     |                       |  
 |     |                       |  
 |     |                       |  
 |     .-----------------------.  
 |    /                       /   
 |   /                       /    
 |  /                       /     
 | /                       /      
 |/                       /       
 *-----------------------*        

Positions:
   0 Li     1.617037    1.617037   10.000000    ( 0.0000,  0.0000,  0.0000)
   1 Li     4.851111    1.617037   10.000000    ( 0.0000,  0.0000,  0.0000)
   2 Li     8.085185    1.617037   10.000000    ( 0.0000,  0.0000,  0.0000)
   3 Li     1.617037    4.851111   10.000000    ( 0.0000,  0.0000,  0.0000)
   4 Li     4.851111    4.851111   10.000000    ( 0.0000,  0.0000,  0.0000)
   5 Li     8.085185    4.851111   10.000000    ( 0.0000,  0.0000,  0.0000)
   6 Li     1.617037    8.085185   10.000000    ( 0.0000,  0.0000,  0.0000)
   7 Li     4.851111    8.085185   10.000000    ( 0.0000,  0.0000,  0.0000)
   8 Li     8.085185    8.085185   10.000000    ( 0.0000,  0.0000,  0.0000)
   9 Li     0.000000    0.000000   11.617037    ( 0.0000,  0.0000,  0.0000)
  10 Li     3.234074    0.000000   11.617037    ( 0.0000,  0.0000,  0.0000)
  11 Li     6.468148    0.000000   11.617037    ( 0.0000,  0.0000,  0.0000)
  12 Li     0.000000    3.234074   11.617037    ( 0.0000,  0.0000,  0.0000)
  13 Li     3.234074    3.234074   11.617037    ( 0.0000,  0.0000,  0.0000)
  14 Li     6.468148    3.234074   11.617037    ( 0.0000,  0.0000,  0.0000)
  15 Li     0.000000    6.468148   11.617037    ( 0.0000,  0.0000,  0.0000)
  16 Li     3.234074    6.468148   11.617037    ( 0.0000,  0.0000,  0.0000)
  17 Li     6.468148    6.468148   11.617037    ( 0.0000,  0.0000,  0.0000)
  18 Li     1.617021    1.617027   13.470146    ( 0.0000,  0.0000,  0.0000)
  19 Li     4.851120    1.617057   13.470445    ( 0.0000,  0.0000,  0.0000)
  20 Li     8.085193    1.617012   13.470116    ( 0.0000,  0.0000,  0.0000)
  21 Li     1.617057    4.851089   13.470410    ( 0.0000,  0.0000,  0.0000)
  22 Li     4.851119    4.851126   13.470197    ( 0.0000,  0.0000,  0.0000)
  23 Li     8.085159    4.851087   13.470440    ( 0.0000,  0.0000,  0.0000)
  24 Li     1.616986    8.085220   13.470271    ( 0.0000,  0.0000,  0.0000)
  25 Li     4.851127    8.085154   13.470404    ( 0.0000,  0.0000,  0.0000)
  26 Li     8.085220    8.085235   13.470184    ( 0.0000,  0.0000,  0.0000)
  27 Li     0.000125    0.000214   15.451954    ( 0.0000,  0.0000,  0.0000)
  28 Li     3.234691   -0.000055   15.445184    ( 0.0000,  0.0000,  0.0000)
  29 Li     6.467478   -0.000015   15.445238    ( 0.0000,  0.0000,  0.0000)
  30 Li     0.000034    3.234751   15.445150    ( 0.0000,  0.0000,  0.0000)
  31 Li     3.234132    3.234094   15.445489    ( 0.0000,  0.0000,  0.0000)
  32 Li     6.468055    3.234143   15.445434    ( 0.0000,  0.0000,  0.0000)
  33 Li     0.000068    6.467571   15.445206    ( 0.0000,  0.0000,  0.0000)
  34 Li     3.234043    6.468184   15.445559    ( 0.0000,  0.0000,  0.0000)
  35 Li     6.468102    6.468102   15.445495    ( 0.0000,  0.0000,  0.0000)
  36 O      9.705405    9.681060   20.592946    ( 0.0000,  0.0000,  0.0000)
  37 C     10.892057    8.883575   20.477194    ( 0.0000,  0.0000,  0.0000)
  38 C     12.170075    9.705560   20.437373    ( 0.0000,  0.0000,  0.0000)
  39 H     10.880255    8.196379   21.314623    ( 0.0000,  0.0000,  0.0000)
  40 H     10.808389    8.277638   19.559354    ( 0.0000,  0.0000,  0.0000)
  41 H     13.045614    9.051365   20.419500    ( 0.0000,  0.0000,  0.0000)
  42 H     12.203804   10.353739   19.558824    ( 0.0000,  0.0000,  0.0000)
  43 H     12.240029   10.334035   21.328385    ( 0.0000,  0.0000,  0.0000)
  44 H      9.753849   10.312431   21.275556    ( 0.0000,  0.0000,  0.0000)
  45 N      9.699730    9.724887   17.826538    ( 0.0000,  0.0000,  0.0000)
  46 N      9.674875    9.677260   18.905042    ( 0.0000,  0.0000,  0.0000)

Unit cell:
           periodic     x           y           z      points  spacing
  1. axis:    yes    9.702222    0.000000    0.000000    60     0.1617
  2. axis:    yes    0.000000    9.702222    0.000000    60     0.1617
  3. axis:    no     0.000000    0.000000   24.851111   156     0.1593

  Lengths:   9.702222   9.702222  24.851111
  Angles:   90.000000  90.000000  90.000000

Effective grid spacing dv^(1/3) = 0.1609

     iter     time        total  log10-change:
                         energy  eigst   dens
iter:   1 19:05:34  -304.457090  -0.72
iter:   2 19:08:09  -304.402406  -1.00  -1.62
iter:   3 19:10:36  -304.385594  -1.63  -1.81
iter:   4 19:13:00  -304.377504c -1.53  -2.13
Writing to output.gpw (mode='')

iter:   5 19:15:25  -304.373214c -1.12  -2.32
iter:   6 19:17:54  -304.373332c -1.87  -2.24
iter:   7 19:20:26  -304.371807c -2.15  -2.32
iter:   8 19:22:58  -304.372688c -2.18  -2.70
iter:   9 19:25:32  -304.372516c -2.48  -2.64
Writing to output.gpw (mode='')

iter:  10 19:28:08  -304.373062c -2.73  -2.83
iter:  11 19:30:42  -304.373501c -2.62  -2.73
iter:  12 19:33:14  -304.373100c -3.03  -2.66
iter:  13 19:35:40  -304.372568c -2.51  -2.74
iter:  14 19:38:19  -304.372018c -3.14  -2.77
Writing to output.gpw (mode='')

iter:  15 19:40:46  -304.372028c -3.62  -3.03
iter:  16 19:43:18  -304.372033c -3.16  -3.08
iter:  17 19:45:54  -304.372171c -2.94  -3.13
iter:  18 19:48:28  -304.371938c -3.44  -3.01
iter:  19 19:51:02  -304.371935c -4.04  -3.31
Writing to output.gpw (mode='')

iter:  20 19:53:32  -304.371926c -4.30  -3.37
iter:  21 19:56:08  -304.371913c -3.76  -3.47
iter:  22 19:58:44  -304.371900c -3.94  -3.64
iter:  23 20:01:25  -304.371894c -4.78  -3.59
iter:  24 20:04:04  -304.371928c -3.90  -3.65
Writing to output.gpw (mode='')

iter:  25 20:06:44  -304.371905c -4.91  -3.75
iter:  26 20:09:19  -304.371900c -4.25  -3.84
iter:  27 20:11:56  -304.371901c -4.99  -3.88
iter:  28 20:14:45  -304.371977c -3.94  -4.01c
iter:  29 20:17:17  -304.371893c -3.76  -3.63
Writing to output.gpw (mode='')

iter:  30 20:19:54  -304.371902c -3.80  -4.04c
iter:  31 20:22:33  -304.371901c -5.20  -4.15c
iter:  32 20:25:13  -304.371910c -4.81  -4.36c
iter:  33 20:27:44  -304.371902c -4.80  -4.14c
iter:  34 20:30:17  -304.371904c -4.59  -4.54c
Writing to output.gpw (mode='')

iter:  35 20:32:53  -304.371903c -5.77  -4.48c
iter:  36 20:35:26  -304.371904c -5.25  -4.67c
iter:  37 20:38:04  -304.371902c -5.81  -4.52c
iter:  38 20:40:43  -304.371902c -6.22  -5.02c
iter:  39 20:43:15  -304.371902c -6.90  -5.12c
Writing to output.gpw (mode='')

iter:  40 20:45:51  -304.371902c -6.64  -5.15c
iter:  41 20:48:29  -304.371902c -6.12  -4.96c
iter:  42 20:51:01  -304.371902c -7.09  -5.19c
iter:  43 20:53:28  -304.371902c -7.29  -5.31c
iter:  44 20:56:07  -304.371902c -7.26  -5.40c
Writing to output.gpw (mode='')

iter:  45 20:58:49  -304.371902c -7.55c -5.47c

Converged after 45 iterations.

Dipole moment: (-15.836025, -14.891076, 0.360809) |e|*Ang

Energy contributions relative to reference atoms: (reference = -14434.854043)

Kinetic:       +177.611722
Potential:     -165.150413
External:        +0.000000
XC:            -317.476280
Entropy (-ST):   -0.149358
Local:           +0.717749
--------------------------
Free energy:   -304.446581
Extrapolated:  -304.371902

Dipole-layer corrected work functions: 3.388790, 2.695191 eV

Showing only first 2 kpts
 Kpt  Band  Eigenvalues  Occupancy
  0    31     -3.29325    1.98695
  0    32     -3.21410    1.93799
  0    33     -2.87644    0.07040
  0    34     -2.78771    0.01229

  1    31     -3.07673    1.33411
  1    32     -3.03317    0.91202
  1    33     -3.00499    0.64605
  1    34     -2.97875    0.44030


Fermi level: -3.04199

No gap

Forces in eV/Ang:
  0 Li    0.00490    0.00322   -0.26952
  1 Li   -0.00007   -0.00037   -0.27314
  2 Li   -0.00488    0.00463   -0.26899
  3 Li   -0.00096    0.00096   -0.27341
  4 Li    0.00058   -0.00068   -0.28165
  5 Li    0.00022    0.00019   -0.27310
  6 Li    0.00395   -0.00410   -0.26978
  7 Li   -0.00082    0.00087   -0.27342
  8 Li   -0.00314   -0.00469   -0.26887
  9 Li    0.00066    0.00066    0.28740
 10 Li    0.00873   -0.00067    0.25554
 11 Li   -0.00961    0.00013    0.25635
 12 Li   -0.00041    0.00832    0.25739
 13 Li    0.00120    0.00011    0.25933
 14 Li   -0.00067   -0.00053    0.25751
 15 Li   -0.00022   -0.00933    0.25472
 16 Li   -0.00179    0.00056    0.26066
 17 Li    0.00209    0.00033    0.25979
 18 Li   -0.00051   -0.00067    0.02215
 19 Li    0.00041    0.00104    0.03919
 20 Li    0.00025   -0.00183    0.02111
 21 Li    0.00095   -0.00166    0.03692
 22 Li    0.00046    0.00094    0.02705
 23 Li   -0.00123   -0.00156    0.03861
 24 Li   -0.00365    0.00232    0.03126
 25 Li    0.00101   -0.00178    0.03632
 26 Li    0.00271    0.00325    0.02655
 27 Li    0.00973    0.01335    0.33160
 28 Li    0.03164   -0.00351   -0.03908
 29 Li   -0.03398   -0.00088   -0.03598
 30 Li    0.00159    0.03360   -0.03914
 31 Li    0.00314    0.00059   -0.02439
 32 Li   -0.00477    0.00313   -0.02706
 33 Li    0.00396   -0.02896   -0.03840
 34 Li   -0.00307    0.00313   -0.02003
 35 Li   -0.00138   -0.00167   -0.02379
 36 O    -0.03031   -0.57600    8.11576
 37 C     0.80335   -0.50750    1.34329
 38 C     0.03632    0.08253    0.13172
 39 H     0.22049   -0.26863    0.23061
 40 H    -0.04098    0.10726    0.66057
 41 H    -0.03925   -0.00274   -0.04508
 42 H     0.01110   -0.02024   -0.00092
 43 H     0.06955    0.03176   -0.00387
 44 H     0.59529    1.14223    2.78698
 45 N    -0.07333    1.32550   -5.63639
 46 N    -1.55452   -1.33605   -7.93808

System changes: positions 

Initializing position-dependent things.

Density initialized from wave functions
       .-----------------------.  
      /|                       |  
     / |                       |  
    /  |                       |  
   /   |                       |  
  /    O H                     |  
 *     | C     H               |  
 |     | H                     N  
 |     |                       |  
 |     |                       |  
 |H    |H                      |  
 |     |                       |  
 |     CH      Li      Li      |  
 |     |                       |  
 |   Li|     Li      Li        |  
 N     |  Li      Li      Li   |  
 | Li  |   Li      Li          |  
 |     |Li      Li      Li     |  
 Li    |                       |  
 |   LLi     LLi     LLi       |  
 |     |  Li      Li      Li   |  
 | Li  |   Li      Li          |  
 |     |Li      Li      Li     |  
 Li    | Li      Li            |  
 |    Li      Li      Li       |  
 |     |                       |  
 |     |                       |  
 |     |                       |  
 |     |                       |  
 |     |                       |  
 |     |                       |  
 |     .-----------------------.  
 |    /                       /   
 |   /                       /    
 |  /                       /     
 | /                       /      
 |/                       /       
 *-----------------------*        

Positions:
   0 Li     1.617037    1.617037   10.000000    ( 0.0000,  0.0000,  0.0000)
   1 Li     4.851111    1.617037   10.000000    ( 0.0000,  0.0000,  0.0000)
   2 Li     8.085185    1.617037   10.000000    ( 0.0000,  0.0000,  0.0000)
   3 Li     1.617037    4.851111   10.000000    ( 0.0000,  0.0000,  0.0000)
   4 Li     4.851111    4.851111   10.000000    ( 0.0000,  0.0000,  0.0000)
   5 Li     8.085185    4.851111   10.000000    ( 0.0000,  0.0000,  0.0000)
   6 Li     1.617037    8.085185   10.000000    ( 0.0000,  0.0000,  0.0000)
   7 Li     4.851111    8.085185   10.000000    ( 0.0000,  0.0000,  0.0000)
   8 Li     8.085185    8.085185   10.000000    ( 0.0000,  0.0000,  0.0000)
   9 Li     0.000000    0.000000   11.617037    ( 0.0000,  0.0000,  0.0000)
  10 Li     3.234074    0.000000   11.617037    ( 0.0000,  0.0000,  0.0000)
  11 Li     6.468148    0.000000   11.617037    ( 0.0000,  0.0000,  0.0000)
  12 Li     0.000000    3.234074   11.617037    ( 0.0000,  0.0000,  0.0000)
  13 Li     3.234074    3.234074   11.617037    ( 0.0000,  0.0000,  0.0000)
  14 Li     6.468148    3.234074   11.617037    ( 0.0000,  0.0000,  0.0000)
  15 Li     0.000000    6.468148   11.617037    ( 0.0000,  0.0000,  0.0000)
  16 Li     3.234074    6.468148   11.617037    ( 0.0000,  0.0000,  0.0000)
  17 Li     6.468148    6.468148   11.617037    ( 0.0000,  0.0000,  0.0000)
  18 Li     1.617005    1.617017   13.470365    ( 0.0000,  0.0000,  0.0000)
  19 Li     4.851122    1.617071   13.470804    ( 0.0000,  0.0000,  0.0000)
  20 Li     8.085209    1.616985   13.470338    ( 0.0000,  0.0000,  0.0000)
  21 Li     1.617072    4.851082   13.470755    ( 0.0000,  0.0000,  0.0000)
  22 Li     4.851125    4.851133   13.470440    ( 0.0000,  0.0000,  0.0000)
  23 Li     8.085140    4.851078   13.470795    ( 0.0000,  0.0000,  0.0000)
  24 Li     1.616953    8.085241   13.470542    ( 0.0000,  0.0000,  0.0000)
  25 Li     4.851132    8.085135   13.470746    ( 0.0000,  0.0000,  0.0000)
  26 Li     8.085249    8.085273   13.470433    ( 0.0000,  0.0000,  0.0000)
  27 Li     0.000251    0.000341   15.455262    ( 0.0000,  0.0000,  0.0000)
  28 Li     3.235034   -0.000079   15.444785    ( 0.0000,  0.0000,  0.0000)
  29 Li     6.467117   -0.000022   15.444856    ( 0.0000,  0.0000,  0.0000)
  30 Li     0.000049    3.235140   15.444711    ( 0.0000,  0.0000,  0.0000)
  31 Li     3.234154    3.234101   15.445257    ( 0.0000,  0.0000,  0.0000)
  32 Li     6.468020    3.234170   15.445176    ( 0.0000,  0.0000,  0.0000)
  33 Li     0.000098    6.467260   15.444815    ( 0.0000,  0.0000,  0.0000)
  34 Li     3.234032    6.468199   15.445356    ( 0.0000,  0.0000,  0.0000)
  35 Li     6.468080    6.468084   15.445262    ( 0.0000,  0.0000,  0.0000)
  36 O      9.705994    9.666404   20.624005    ( 0.0000,  0.0000,  0.0000)
  37 C     10.892455    8.884533   20.487056    ( 0.0000,  0.0000,  0.0000)
  38 C     12.170572    9.705642   20.438589    ( 0.0000,  0.0000,  0.0000)
  39 H     10.885423    8.190596   21.318308    ( 0.0000,  0.0000,  0.0000)
  40 H     10.806756    8.280502   19.566446    ( 0.0000,  0.0000,  0.0000)
  41 H     13.045807    9.051516   20.419182    ( 0.0000,  0.0000,  0.0000)
  42 H     12.203518   10.353428   19.558989    ( 0.0000,  0.0000,  0.0000)
  43 H     12.241077   10.334683   21.328772    ( 0.0000,  0.0000,  0.0000)
  44 H      9.762321   10.320491   21.291483    ( 0.0000,  0.0000,  0.0000)
  45 N      9.702744    9.728686   17.789774    ( 0.0000,  0.0000,  0.0000)
  46 N      9.657374    9.680977   18.869266    ( 0.0000,  0.0000,  0.0000)

Unit cell:
           periodic     x           y           z      points  spacing
  1. axis:    yes    9.702222    0.000000    0.000000    60     0.1617
  2. axis:    yes    0.000000    9.702222    0.000000    60     0.1617
  3. axis:    no     0.000000    0.000000   24.851111   156     0.1593

  Lengths:   9.702222   9.702222  24.851111
  Angles:   90.000000  90.000000  90.000000

Effective grid spacing dv^(1/3) = 0.1609

     iter     time        total  log10-change:
                         energy  eigst   dens
iter:   1 21:02:04  -305.271425  -0.72
iter:   2 21:04:44  -305.198009  -0.92  -1.58
iter:   3 21:07:17  -305.176693  -1.62  -1.79
iter:   4 21:09:57  -305.163161  -1.36  -2.11
Writing to output.gpw (mode='')

iter:   5 21:12:26  -305.161519c -1.11  -2.43
iter:   6 21:14:57  -305.161683c -1.91  -2.24
iter:   7 21:17:32  -305.160234c -2.20  -2.32
iter:   8 21:20:08  -305.161252c -2.15  -2.70
iter:   9 21:22:41  -305.160473c -2.51  -2.72
Writing to output.gpw (mode='')

iter:  10 21:25:08  -305.160928c -2.40  -2.97
iter:  11 21:27:41  -305.160866c -2.70  -2.97
iter:  12 21:30:16  -305.160861c -3.42  -2.96
iter:  13 21:32:43  -305.164043c -2.31  -2.95
iter:  14 21:35:13  -305.160693c -2.60  -2.66
Writing to output.gpw (mode='')

iter:  15 21:37:47  -305.160538c -2.45  -3.00
iter:  16 21:40:24  -305.160691c -2.75  -3.18
iter:  17 21:42:52  -305.160662c -3.94  -3.15
iter:  18 21:45:27  -305.160705c -3.61  -3.39
iter:  19 21:47:59  -305.160663c -3.72  -3.47
Writing to output.gpw (mode='')

iter:  20 21:50:32  -305.160688c -3.54  -3.51
iter:  21 21:53:03  -305.160664c -4.36  -3.46
iter:  22 21:55:35  -305.160663c -4.13  -3.64
iter:  23 21:58:05  -305.160654c -4.67  -3.79
iter:  24 22:00:40  -305.160654c -4.54  -3.97
Writing to output.gpw (mode='')

iter:  25 22:03:13  -305.160655c -4.82  -3.97
iter:  26 22:05:51  -305.160650c -5.40  -4.03c
iter:  27 22:08:23  -305.160649c -4.93  -4.22c
iter:  28 22:10:58  -305.160653c -5.19  -4.26c
iter:  29 22:13:28  -305.160651c -5.88  -4.27c
Writing to output.gpw (mode='')

iter:  30 22:16:05  -305.160650c -5.36  -4.44c
iter:  31 22:18:35  -305.160650c -6.32  -4.58c
iter:  32 22:21:09  -305.160650c -5.75  -4.71c
iter:  33 22:23:43  -305.160649c -5.91  -4.48c
iter:  34 22:26:14  -305.160649c -5.79  -4.80c
Writing to output.gpw (mode='')

iter:  35 22:28:51  -305.160650c -6.74  -4.90c
iter:  36 22:31:29  -305.160650c -6.27  -4.96c
iter:  37 22:33:56  -305.160650c -6.68  -4.76c
iter:  38 22:36:27  -305.160650c -6.46  -4.94c
iter:  39 22:39:03  -305.160650c -6.81  -5.10c
Writing to output.gpw (mode='')

iter:  40 22:41:39  -305.160650c -7.18  -5.20c
iter:  41 22:44:12  -305.160650c -7.07  -5.39c
iter:  42 22:46:40  -305.160650c -6.98  -5.51c
iter:  43 22:49:18  -305.160650c -7.49c -5.49c

Converged after 43 iterations.

Dipole moment: (-14.514663, -14.276116, 0.345809) |e|*Ang

Energy contributions relative to reference atoms: (reference = -14434.854043)

Kinetic:       +174.087276
Potential:     -162.786603
External:        +0.000000
XC:            -317.110644
Entropy (-ST):   -0.149089
Local:           +0.723866
--------------------------
Free energy:   -305.235194
Extrapolated:  -305.160650

Dipole-layer corrected work functions: 3.389406, 2.724643 eV

Showing only first 2 kpts
 Kpt  Band  Eigenvalues  Occupancy
  0    31     -3.30802    1.98688
  0    32     -3.22966    1.93862
  0    33     -2.89075    0.06942
  0    34     -2.80276    0.01230

  1    31     -3.09192    1.33548
  1    32     -3.04767    0.90678
  1    33     -3.02086    0.65337
  1    34     -2.99253    0.43172


Fermi level: -3.05702

No gap
Writing to output.gpw (mode='')


Forces in eV/Ang:
  0 Li    0.00491    0.00342   -0.26940
  1 Li   -0.00004   -0.00026   -0.27318
  2 Li   -0.00490    0.00467   -0.26878
  3 Li   -0.00082    0.00090   -0.27341
  4 Li    0.00047   -0.00062   -0.28194
  5 Li    0.00009    0.00014   -0.27319
  6 Li    0.00408   -0.00423   -0.26963
  7 Li   -0.00079    0.00068   -0.27346
  8 Li   -0.00329   -0.00469   -0.26865
  9 Li    0.00083    0.00064    0.28785
 10 Li    0.00881   -0.00067    0.25590
 11 Li   -0.01000    0.00011    0.25634
 12 Li   -0.00048    0.00864    0.25740
 13 Li    0.00124    0.00039    0.25926
 14 Li   -0.00062   -0.00077    0.25777
 15 Li   -0.00032   -0.00966    0.25496
 16 Li   -0.00161    0.00028    0.26050
 17 Li    0.00203    0.00062    0.25990
 18 Li   -0.00095   -0.00083    0.02194
 19 Li    0.00016    0.00121    0.03801
 20 Li    0.00095   -0.00265    0.02229
 21 Li    0.00119   -0.00152    0.03598
 22 Li    0.00056    0.00092    0.02673
 23 Li   -0.00148   -0.00139    0.03731
 24 Li   -0.00398    0.00243    0.03053
 25 Li    0.00077   -0.00192    0.03538
 26 Li    0.00331    0.00399    0.02723
 27 Li    0.01410    0.01339    0.32723
 28 Li    0.03228   -0.00333   -0.03884
 29 Li   -0.03359   -0.00074   -0.03617
 30 Li    0.00133    0.03409   -0.03953
 31 Li    0.00282    0.00048   -0.02401
 32 Li   -0.00410    0.00258   -0.02637
 33 Li    0.00367   -0.02900   -0.03839
 34 Li   -0.00290    0.00297   -0.01993
 35 Li   -0.00120   -0.00138   -0.02344
 36 O    -0.11343   -0.45921    6.64059
 37 C     0.69713   -0.50864    1.18756
 38 C     0.02181    0.09167    0.13503
 39 H     0.32468   -0.33073    0.24737
 40 H    -0.07713    0.13725    0.62339
 41 H    -0.03062   -0.00415   -0.03976
 42 H    -0.00567   -0.02860    0.01327
 43 H     0.09024    0.04744    0.01041
 44 H     0.60999    0.87242    2.16393
 45 N     0.10191    1.00304   -5.02842
 46 N    -1.67302   -0.86974   -6.23241

System changes: positions 

Initializing position-dependent things.

Density initialized from wave functions
       .-----------------------.  
      /|                       |  
     / |                       |  
    /  |                       |  
   /   |                       |  
  /    O H                     |  
 *     | C     H               |  
 |     | H                     |  
 |     |                       N  
 |     |                       |  
 |H    |H                      |  
 |     C                       |  
 |     |H      Li      Li      |  
 |     |                       |  
 |   Li|     Li      Li        |  
 N     |  Li      Li      Li   |  
 | Li  |   Li      Li          |  
 |     |Li      Li      Li     |  
 Li    |                       |  
 |   LLi     LLi     LLi       |  
 |     |  Li      Li      Li   |  
 | Li  |   Li      Li          |  
 |     |Li      Li      Li     |  
 Li    | Li      Li            |  
 |    Li      Li      Li       |  
 |     |                       |  
 |     |                       |  
 |     |                       |  
 |     |                       |  
 |     |                       |  
 |     |                       |  
 |     .-----------------------.  
 |    /                       /   
 |   /                       /    
 |  /                       /     
 | /                       /      
 |/                       /       
 *-----------------------*        

Positions:
   0 Li     1.617037    1.617037   10.000000    ( 0.0000,  0.0000,  0.0000)
   1 Li     4.851111    1.617037   10.000000    ( 0.0000,  0.0000,  0.0000)
   2 Li     8.085185    1.617037   10.000000    ( 0.0000,  0.0000,  0.0000)
   3 Li     1.617037    4.851111   10.000000    ( 0.0000,  0.0000,  0.0000)
   4 Li     4.851111    4.851111   10.000000    ( 0.0000,  0.0000,  0.0000)
   5 Li     8.085185    4.851111   10.000000    ( 0.0000,  0.0000,  0.0000)
   6 Li     1.617037    8.085185   10.000000    ( 0.0000,  0.0000,  0.0000)
   7 Li     4.851111    8.085185   10.000000    ( 0.0000,  0.0000,  0.0000)
   8 Li     8.085185    8.085185   10.000000    ( 0.0000,  0.0000,  0.0000)
   9 Li     0.000000    0.000000   11.617037    ( 0.0000,  0.0000,  0.0000)
  10 Li     3.234074    0.000000   11.617037    ( 0.0000,  0.0000,  0.0000)
  11 Li     6.468148    0.000000   11.617037    ( 0.0000,  0.0000,  0.0000)
  12 Li     0.000000    3.234074   11.617037    ( 0.0000,  0.0000,  0.0000)
  13 Li     3.234074    3.234074   11.617037    ( 0.0000,  0.0000,  0.0000)
  14 Li     6.468148    3.234074   11.617037    ( 0.0000,  0.0000,  0.0000)
  15 Li     0.000000    6.468148   11.617037    ( 0.0000,  0.0000,  0.0000)
  16 Li     3.234074    6.468148   11.617037    ( 0.0000,  0.0000,  0.0000)
  17 Li     6.468148    6.468148   11.617037    ( 0.0000,  0.0000,  0.0000)
  18 Li     1.616983    1.617004   13.470620    ( 0.0000,  0.0000,  0.0000)
  19 Li     4.851121    1.617089   13.471223    ( 0.0000,  0.0000,  0.0000)
  20 Li     8.085233    1.616943   13.470613    ( 0.0000,  0.0000,  0.0000)
  21 Li     1.617092    4.851071   13.471158    ( 0.0000,  0.0000,  0.0000)
  22 Li     4.851133    4.851143   13.470735    ( 0.0000,  0.0000,  0.0000)
  23 Li     8.085118    4.851068   13.471207    ( 0.0000,  0.0000,  0.0000)
  24 Li     1.616906    8.085269   13.470867    ( 0.0000,  0.0000,  0.0000)
  25 Li     4.851136    8.085110   13.471144    ( 0.0000,  0.0000,  0.0000)
  26 Li     8.085292    8.085328   13.470745    ( 0.0000,  0.0000,  0.0000)
  27 Li     0.000460    0.000499   15.459160    ( 0.0000,  0.0000,  0.0000)
  28 Li     3.235439   -0.000110   15.444323    ( 0.0000,  0.0000,  0.0000)
  29 Li     6.466704   -0.000028   15.444411    ( 0.0000,  0.0000,  0.0000)
  30 Li     0.000062    3.235586   15.444207    ( 0.0000,  0.0000,  0.0000)
  31 Li     3.234179    3.234108   15.444983    ( 0.0000,  0.0000,  0.0000)
  32 Li     6.467983    3.234195   15.444877    ( 0.0000,  0.0000,  0.0000)
[...]
Writing to output.gpw (mode='')

iter:  20 09:12:33  -308.857900c -7.07  -4.91c
iter:  21 09:15:02  -308.857900c -7.21  -5.03c
iter:  22 09:17:42  -308.857900c -7.22  -5.16c
iter:  23 09:20:11  -308.857900c -7.24  -5.20c
iter:  24 09:22:42  -308.857900c -7.50c -5.25c

Converged after 24 iterations.

Dipole moment: (-12.021323, -2.859007, 0.163927) |e|*Ang

Energy contributions relative to reference atoms: (reference = -14434.854043)

Kinetic:       +150.948683
Potential:     -146.599356
External:        +0.000000
XC:            -313.886590
Entropy (-ST):   -0.145743
Local:           +0.752234
--------------------------
Free energy:   -308.930771
Extrapolated:  -308.857900

Dipole-layer corrected work functions: 3.399891, 3.084767 eV

Showing only first 2 kpts
 Kpt  Band  Eigenvalues  Occupancy
  0    31     -3.50192    1.98894
  0    32     -3.42547    1.94997
  0    33     -3.06155    0.05239
  0    34     -3.00769    0.01816

  1    31     -3.27391    1.30574
  1    32     -3.22102    0.79004
  1    33     -3.21463    0.72990
  1    34     -3.16191    0.33363


Fermi level: -3.24233

No gap
Writing to output.gpw (mode='')


Forces in eV/Ang:
  0 Li    0.01007    0.00284   -0.26864
  1 Li   -0.00594   -0.00010   -0.27655
  2 Li   -0.00519    0.00687   -0.26962
  3 Li   -0.00043    0.00057   -0.28123
  4 Li    0.00132   -0.00082   -0.28167
  5 Li   -0.00028    0.00473   -0.27571
  6 Li    0.00442   -0.00319   -0.26799
  7 Li   -0.00177    0.00011   -0.27981
  8 Li   -0.00314   -0.01063   -0.26903
  9 Li    0.00996   -0.00640    0.27523
 10 Li    0.00817   -0.00772    0.25039
 11 Li   -0.01432   -0.01143    0.27711
 12 Li    0.01676    0.01441    0.27047
 13 Li   -0.00548   -0.00878    0.26047
 14 Li   -0.00933    0.00850    0.26285
 15 Li    0.01221   -0.01151    0.25346
 16 Li   -0.01575    0.01736    0.25939
 17 Li    0.00382    0.00204    0.26015
 18 Li   -0.00483   -0.00662    0.00620
 19 Li    0.00063   -0.00092   -0.00098
 20 Li    0.00272   -0.00228    0.00695
 21 Li    0.00288   -0.00147   -0.00383
 22 Li   -0.00356    0.00098   -0.00030
 23 Li    0.00051    0.00107    0.00024
 24 Li   -0.00644    0.00871    0.00614
 25 Li    0.00326   -0.00196   -0.00345
 26 Li    0.00392    0.00382    0.00660
 27 Li    0.00087   -0.00327    0.00086
 28 Li   -0.00617   -0.00281   -0.00261
 29 Li   -0.00557   -0.00116    0.00933
 30 Li    0.00343    0.00438    0.00666
 31 Li    0.00078    0.00059    0.00384
 32 Li   -0.00658    0.00586    0.00405
 33 Li    0.00492    0.00503    0.00155
 34 Li   -0.00308    0.00347    0.00648
 35 Li   -0.00392   -0.00276    0.00222
 36 O     0.02520    0.01082   -0.00869
 37 C     0.00001   -0.01452   -0.01042
 38 C    -0.00472   -0.00608    0.00256
 39 H     0.01520    0.00708   -0.01513
 40 H     0.01129   -0.00217   -0.01013
 41 H    -0.01313   -0.01347    0.01822
 42 H    -0.03040   -0.01664    0.00692
 43 H     0.00324    0.00941   -0.00951
 44 H     0.03470   -0.00840   -0.00166
 45 N    -0.04519    0.03181    0.04434
 46 N     0.02785   -0.01596   -0.05515

System changes: positions 

Initializing position-dependent things.

Density initialized from wave functions
       .-----------------------.  
      /|                       |  
     / |                       |  
    /  |                       |  
   /   |                       |  
  /    O  H                    |  
 *     |  C  C H               |  
 |     | H                     |  
 |     |                       |  
 |H    |                       |  
 |     |H                      |  
 |     |                       |  
 |     Hi              Li      |  
 |     |                       |  
 |     |     Li      LiN     Li|  
 |     |  Li      Li    N Li   |  
 | Li  |   Li      Li          |  
 |     |Li      Li      Li     |  
 |     | Li                    |  
 |   LLi     LLi     LLi       |  
 |     |  Li      Li      Li   |  
 | Li  |   Li      Li          |  
 |     |Li      Li      Li     |  
 Li    | Li      Li            |  
 |    Li      Li      Li       |  
 |     |                       |  
 |     |                       |  
 |     |                       |  
 |     |                       |  
 |     |                       |  
 |     |                       |  
 |     .-----------------------.  
 |    /                       /   
 |   /                       /    
 |  /                       /     
 | /                       /      
 |/                       /       
 *-----------------------*        

Positions:
   0 Li     1.617037    1.617037   10.000000    ( 0.0000,  0.0000,  0.0000)
   1 Li     4.851111    1.617037   10.000000    ( 0.0000,  0.0000,  0.0000)
   2 Li     8.085185    1.617037   10.000000    ( 0.0000,  0.0000,  0.0000)
   3 Li     1.617037    4.851111   10.000000    ( 0.0000,  0.0000,  0.0000)
   4 Li     4.851111    4.851111   10.000000    ( 0.0000,  0.0000,  0.0000)
   5 Li     8.085185    4.851111   10.000000    ( 0.0000,  0.0000,  0.0000)
   6 Li     1.617037    8.085185   10.000000    ( 0.0000,  0.0000,  0.0000)
   7 Li     4.851111    8.085185   10.000000    ( 0.0000,  0.0000,  0.0000)
   8 Li     8.085185    8.085185   10.000000    ( 0.0000,  0.0000,  0.0000)
   9 Li     0.000000    0.000000   11.617037    ( 0.0000,  0.0000,  0.0000)
  10 Li     3.234074    0.000000   11.617037    ( 0.0000,  0.0000,  0.0000)
  11 Li     6.468148    0.000000   11.617037    ( 0.0000,  0.0000,  0.0000)
  12 Li     0.000000    3.234074   11.617037    ( 0.0000,  0.0000,  0.0000)
  13 Li     3.234074    3.234074   11.617037    ( 0.0000,  0.0000,  0.0000)
  14 Li     6.468148    3.234074   11.617037    ( 0.0000,  0.0000,  0.0000)
  15 Li     0.000000    6.468148   11.617037    ( 0.0000,  0.0000,  0.0000)
  16 Li     3.234074    6.468148   11.617037    ( 0.0000,  0.0000,  0.0000)
  17 Li     6.468148    6.468148   11.617037    ( 0.0000,  0.0000,  0.0000)
  18 Li     1.616215    1.595473   13.482883    ( 0.0000,  0.0000,  0.0000)
  19 Li     4.843377    1.622414   13.462649    ( 0.0000,  0.0000,  0.0000)
  20 Li     8.099109    1.607983   13.445372    ( 0.0000,  0.0000,  0.0000)
  21 Li     1.630611    4.859092   13.466184    ( 0.0000,  0.0000,  0.0000)
  22 Li     4.839999    4.860444   13.468297    ( 0.0000,  0.0000,  0.0000)
  23 Li     8.081986    4.855283   13.460805    ( 0.0000,  0.0000,  0.0000)
  24 Li     1.608434    8.097087   13.502783    ( 0.0000,  0.0000,  0.0000)
  25 Li     4.839535    8.073551   13.466539    ( 0.0000,  0.0000,  0.0000)
  26 Li     8.107494    8.086153   13.470825    ( 0.0000,  0.0000,  0.0000)
  27 Li     0.017489   -0.012020   15.536340    ( 0.0000,  0.0000,  0.0000)
  28 Li     3.267405    0.003314   15.430745    ( 0.0000,  0.0000,  0.0000)
  29 Li     6.439812   -0.011080   15.342091    ( 0.0000,  0.0000,  0.0000)
  30 Li     0.011843    3.263719   15.356602    ( 0.0000,  0.0000,  0.0000)
  31 Li     3.230435    3.226708   15.412753    ( 0.0000,  0.0000,  0.0000)
  32 Li     6.456400    3.247245   15.363565    ( 0.0000,  0.0000,  0.0000)
  33 Li    -0.003015    6.436672   15.413149    ( 0.0000,  0.0000,  0.0000)
  34 Li     3.229415    6.473397   15.428566    ( 0.0000,  0.0000,  0.0000)
  35 Li     6.473478    6.471052   15.402594    ( 0.0000,  0.0000,  0.0000)
  36 O      9.875828    9.489351   21.173734    ( 0.0000,  0.0000,  0.0000)
  37 C     11.066105    8.772433   20.813964    ( 0.0000,  0.0000,  0.0000)
  38 C     12.232580    9.680621   20.443719    ( 0.0000,  0.0000,  0.0000)
  39 H     11.356617    8.089367   21.623048    ( 0.0000,  0.0000,  0.0000)
  40 H     10.770966    8.159233   19.959000    ( 0.0000,  0.0000,  0.0000)
  41 H     13.095598    9.085069   20.132755    ( 0.0000,  0.0000,  0.0000)
  42 H     11.967169   10.351364   19.622872    ( 0.0000,  0.0000,  0.0000)
  43 H     12.541974   10.288058   21.298896    ( 0.0000,  0.0000,  0.0000)
  44 H     10.071025   10.040702   21.940765    ( 0.0000,  0.0000,  0.0000)
  45 N      9.112018   10.115169   17.420992    ( 0.0000,  0.0000,  0.0000)
  46 N      8.703034   10.400823   18.413529    ( 0.0000,  0.0000,  0.0000)

Unit cell:
           periodic     x           y           z      points  spacing
  1. axis:    yes    9.702222    0.000000    0.000000    60     0.1617
  2. axis:    yes    0.000000    9.702222    0.000000    60     0.1617
  3. axis:    no     0.000000    0.000000   24.851111   156     0.1593

  Lengths:   9.702222   9.702222  24.851111
  Angles:   90.000000  90.000000  90.000000

Effective grid spacing dv^(1/3) = 0.1609

     iter     time        total  log10-change:
                         energy  eigst   dens
iter:   1 09:26:07  -308.861450  -2.51
iter:   2 09:28:48  -308.859090  -2.93  -2.34
iter:   3 09:31:27  -308.858384c -3.90  -2.60
iter:   4 09:33:52  -308.858168c -3.64  -2.95
Writing to output.gpw (mode='')

iter:   5 09:36:23  -308.858205c -4.50  -3.33
iter:   6 09:39:04  -308.858187c -4.12  -3.23
iter:   7 09:41:52  -308.858183c -3.73  -3.42
iter:   8 09:44:38  -308.858167c -4.83  -3.55
iter:   9 09:47:10  -308.858165c -4.99  -3.89
Writing to output.gpw (mode='')

iter:  10 09:49:51  -308.858171c -4.87  -3.92
iter:  11 09:52:31  -308.858173c -5.24  -3.89
iter:  12 09:55:08  -308.858170c -5.67  -3.90
iter:  13 09:57:45  -308.858170c -5.56  -4.12c
iter:  14 10:00:23  -308.858170c -5.72  -4.16c
Writing to output.gpw (mode='')

iter:  15 10:03:04  -308.858170c -6.27  -4.18c
iter:  16 10:05:41  -308.858171c -6.08  -4.31c
iter:  17 10:08:15  -308.858172c -6.62  -4.62c
iter:  18 10:10:47  -308.858172c -6.96  -4.72c
iter:  19 10:13:22  -308.858172c -6.90  -4.73c
Writing to output.gpw (mode='')

iter:  20 10:16:08  -308.858172c -6.86  -4.96c
iter:  21 10:18:53  -308.858172c -7.21  -5.04c
iter:  22 10:21:37  -308.858172c -7.28  -5.14c
iter:  23 10:24:15  -308.858172c -7.43c -5.23c

Converged after 23 iterations.

Dipole moment: (-12.055962, -2.743776, 0.162764) |e|*Ang

Energy contributions relative to reference atoms: (reference = -14434.854043)

Kinetic:       +150.999023
Potential:     -146.639814
External:        +0.000000
XC:            -313.896779
Entropy (-ST):   -0.145797
Local:           +0.752296
--------------------------
Free energy:   -308.931070
Extrapolated:  -308.858172

Dipole-layer corrected work functions: 3.399897, 3.087009 eV

Showing only first 2 kpts
 Kpt  Band  Eigenvalues  Occupancy
  0    31     -3.50277    1.98888
  0    32     -3.42641    1.94978
  0    33     -3.06287    0.05259
  0    34     -3.00846    0.01803

  1    31     -3.27496    1.30508
  1    32     -3.22220    0.79062
  1    33     -3.21601    0.73229
  1    34     -3.16331    0.33519


Fermi level: -3.24345

No gap
Writing to output.gpw (mode='')


Forces in eV/Ang:
  0 Li    0.01005    0.00274   -0.26871
  1 Li   -0.00594   -0.00002   -0.27668
  2 Li   -0.00517    0.00683   -0.26956
  3 Li   -0.00042    0.00059   -0.28133
  4 Li    0.00130   -0.00087   -0.28130
  5 Li   -0.00029    0.00474   -0.27589
  6 Li    0.00436   -0.00312   -0.26803
  7 Li   -0.00179    0.00009   -0.27990
  8 Li   -0.00309   -0.01064   -0.26905
  9 Li    0.01011   -0.00646    0.27564
 10 Li    0.00751   -0.00805    0.25115
 11 Li   -0.01343   -0.01107    0.27781
 12 Li    0.01661    0.01360    0.27146
 13 Li   -0.00601   -0.00970    0.26023
 14 Li   -0.00829    0.00803    0.26334
 15 Li    0.01272   -0.01050    0.25431
 16 Li   -0.01669    0.01834    0.25917
 17 Li    0.00477    0.00205    0.26007
 18 Li   -0.00418   -0.00498    0.00414
 19 Li    0.00064   -0.00196    0.00073
 20 Li    0.00133   -0.00139    0.00379
 21 Li    0.00155   -0.00177   -0.00202
 22 Li   -0.00326    0.00125    0.00093
 23 Li    0.00025    0.00055    0.00106
 24 Li   -0.00642    0.00756    0.00083
 25 Li    0.00307   -0.00025   -0.00128
 26 Li    0.00291    0.00309    0.00573
 27 Li   -0.00050   -0.00027   -0.00005
 28 Li   -0.00359   -0.00225   -0.00167
 29 Li   -0.00643   -0.00157    0.00848
 30 Li    0.00347    0.00508    0.00684
 31 Li    0.00057    0.00067    0.00310
 32 Li   -0.00572    0.00532    0.00308
 33 Li    0.00390    0.00321    0.00214
 34 Li   -0.00209    0.00249    0.00641
 35 Li   -0.00315   -0.00203    0.00159
 36 O     0.02917   -0.00095   -0.02117
 37 C     0.00303   -0.00942   -0.01177
 38 C    -0.00158   -0.00613    0.00014
 39 H     0.01257    0.00492   -0.00871
 40 H     0.01200    0.00249   -0.00997
 41 H    -0.00783   -0.01541    0.01000
 42 H    -0.03028   -0.01540    0.00795
 43 H    -0.00548    0.00770   -0.00830
 44 H     0.04073   -0.00224    0.01071
 45 N    -0.02126    0.01099    0.02182
 46 N     0.00961    0.00221   -0.02331

Timing:                                      incl.     excl.
-------------------------------------------------------------------
Density initialized from wave functions:   169.895   169.892   0.0% |
 Symmetrize density:                         0.003     0.003   0.0% |
Forces:                                    643.959   643.959   0.2% |
Hamiltonian:                              7038.923     0.015   0.0% |
 Atomic:                                    11.575     0.170   0.0% |
  XC Correction:                            11.404    11.404   0.0% |
 Calculate atomic Hamiltonians:             36.922    36.922   0.0% |
 Communicate:                               36.353    36.353   0.0% |
 Hartree integrate/restrict:                14.018    14.018   0.0% |
 Initialize Hamiltonian:                     0.000     0.000   0.0% |
 Poisson:                                  296.814   135.062   0.0% |
  Communicate from 1D:                      22.363    22.363   0.0% |
  Communicate from 2D:                      33.901    33.901   0.0% |
  Communicate to 1D:                         8.946     8.946   0.0% |
  Communicate to 2D:                        34.113    34.113   0.0% |
  FFT 1D:                                   30.575    30.575   0.0% |
  FFT 2D:                                   31.855    31.855   0.0% |
 XC 3D grid:                              6640.244   719.773   0.2% |
  VdW-DF integral:                        5920.472    16.169   0.0% |
   Convolution:                            444.319   444.319   0.1% |
   FFT:                                     74.839    74.839   0.0% |
   gather:                                4594.149  4594.149   1.3% ||
   hmm1:                                    72.362    72.362   0.0% |
   hmm2:                                    95.718    95.718   0.0% |
   iFFT:                                    77.583    77.583   0.0% |
   potential:                              530.121     6.297   0.0% |
    collect:                                50.946    50.946   0.0% |
    p1:                                    216.489   216.489   0.1% |
    p2:                                    139.155   139.155   0.0% |
    sum:                                   117.235   117.235   0.0% |
   splines:                                 15.212    15.212   0.0% |
 vbar:                                       2.981     2.981   0.0% |
LCAO initialization:                        12.665     0.892   0.0% |
 LCAO eigensolver:                           3.312     0.001   0.0% |
  Calculate projections:                     0.000     0.000   0.0% |
  DenseAtomicCorrection:                     0.000     0.000   0.0% |
  Distribute overlap matrix:                 3.208     3.208   0.0% |
  Orbital Layouts:                           0.045     0.045   0.0% |
  Potential matrix:                          0.052     0.052   0.0% |
  Sum over cells:                            0.005     0.005   0.0% |
 LCAO to grid:                               6.681     6.681   0.0% |
 Set positions (LCAO WFS):                   1.779     1.409   0.0% |
  Basic WFS set positions:                   0.004     0.004   0.0% |
  Basis functions set positions:             0.001     0.001   0.0% |
  P tci:                                     0.001     0.001   0.0% |
  ST tci:                                    0.264     0.264   0.0% |
  mktci:                                     0.101     0.101   0.0% |
Redistribute:                                0.078     0.078   0.0% |
SCF-cycle:                               346769.134  4599.346   1.3% ||
 Davidson:                               112755.782 45238.853  12.7% |----|
  Apply hamiltonian:                      6898.227  6898.227   1.9% ||
  Subspace diag:                         15883.731     0.755   0.0% |
   calc_h_matrix:                         9649.869  2867.566   0.8% |
    Apply hamiltonian:                    6782.303  6782.303   1.9% ||
   diagonalize:                            531.787   531.787   0.1% |
   rotate_psi:                            5701.320  5701.320   1.6% ||
  calc. matrices:                        33639.143 21017.619   5.9% |-|
   Apply hamiltonian:                    12621.524 12621.524   3.5% ||
  diagonalize:                              49.323    49.323   0.0% |
  rotate_psi:                            11046.505 11046.505   3.1% ||
 Density:                                 2258.031     0.119   0.0% |
  Atomic density matrices:                 569.013   569.013   0.2% |
  Mix:                                     697.955   697.955   0.2% |
  Multipole moments:                         8.475     8.475   0.0% |
  Pseudo density:                          982.469   982.390   0.3% |
   Symmetrize density:                       0.079     0.079   0.0% |
 Hamiltonian:                            226890.152     0.750   0.0% |
  Atomic:                                  363.717     4.879   0.0% |
   XC Correction:                          358.839   358.839   0.1% |
  Calculate atomic Hamiltonians:          1197.508  1197.508   0.3% |
  Communicate:                            1145.575  1145.575   0.3% |
  Hartree integrate/restrict:              432.174   432.174   0.1% |
  Poisson:                                9379.229  4236.028   1.2% |
   Communicate from 1D:                    682.049   682.049   0.2% |
   Communicate from 2D:                   1141.666  1141.666   0.3% |
   Communicate to 1D:                      285.596   285.596   0.1% |
   Communicate to 2D:                     1069.683  1069.683   0.3% |
   FFT 1D:                                 973.475   973.475   0.3% |
   FFT 2D:                                 990.732   990.732   0.3% |
  XC 3D grid:                            214269.455 22805.288   6.4% |--|
   VdW-DF integral:                      191464.166   493.663   0.1% |
    Convolution:                         13897.753 13897.753   3.9% |-|
    FFT:                                  2357.011  2357.011   0.7% |
    gather:                              149847.315 149847.315  42.0% |----------------|
    hmm1:                                 2331.641  2331.641   0.7% |
    hmm2:                                 3114.434  3114.434   0.9% |
    iFFT:                                 2440.733  2440.733   0.7% |
    potential:                           16981.582   202.500   0.1% |
     collect:                             1580.540  1580.540   0.4% |
     p1:                                  6765.597  6765.597   1.9% ||
     p2:                                  4466.951  4466.951   1.3% ||
     sum:                                 3965.995  3965.995   1.1% |
    splines:                                 0.036     0.036   0.0% |
  vbar:                                    101.745   101.745   0.0% |
 Orthonormalize:                           265.823     0.035   0.0% |
  calc_s_matrix:                            44.572    44.572   0.0% |
  inverse-cholesky:                          6.350     6.350   0.0% |
  projections:                             123.317   123.317   0.0% |
  rotate_psi_s:                             91.549    91.549   0.0% |
Set symmetry:                                0.003     0.003   0.0% |
Other:                                    2085.318  2085.318   0.6% |
-------------------------------------------------------------------
Total:                                             356719.974 100.0%

Memory usage: 1.57 GiB
Date: Sat Feb 11 10:24:25 2023
