
  ___ ___ ___ _ _ _  
 |   |   |_  | | | | 
 | | | | | . | | | | 
 |__ |  _|___|_____|  22.8.0
 |___|_|             

User:   vazumah@c05.hercules
Date:   Fri Feb 24 17:09:21 2023
Arch:   x86_64
Pid:    10867
CWD:    /home/vazumah/Python_projects/LiNRR/Li_adsorb_studies/proton_donors/N2_with_proton_donor/Li_BCC_100/adsorbates/BH3/bridge/8.085_1.617/N2_x
Python: 3.10.8
gpaw:   /home/vazumah/.conda/envs/GPAW/lib/python3.10/site-packages/gpaw
_gpaw:  /home/vazumah/.conda/envs/GPAW/lib/python3.10/site-packages/
        _gpaw.cpython-310-x86_64-linux-gnu.so
ase:    /home/vazumah/.conda/envs/GPAW/lib/python3.10/site-packages/ase (version 3.22.1)
numpy:  /home/vazumah/.conda/envs/GPAW/lib/python3.10/site-packages/numpy (version 1.24.1)
scipy:  /home/vazumah/.conda/envs/GPAW/lib/python3.10/site-packages/scipy (version 1.10.0)
libxc:  5.2.3
units:  Angstrom and eV
cores: 24
OpenMP: True
OMP_NUM_THREADS: 1

Input parameters:
  h: 0.16
  kpts: {size: [4, 4, 1]}
  occupations: {name: fermi-dirac,
                width: 0.05}
  poissonsolver: {dipolelayer: xy}
  xc: BEEF-vdW

System changes: positions, numbers, cell, pbc, initial_charges, initial_magmoms 

Initialize ...

species:
  Li:
    name: Lithium
    id: 830b4218f175192f93f959cfc0aad614
    Z: 3.0
    valence: 1
    core: 2
    charge: 0.0
    file: /home/vazumah/.conda/envs/GPAW/share/gpaw/Li.PBE.gz
    compensation charges: {type: gauss,
                           rc: 0.33,
                           lmax: 2}
    cutoffs: {filter: 1.91,
              core: 2.55}
    valence states:
      #              energy  rcut
      - 2s(1.00)    -2.874   1.058
      - 2p(0.00)    -1.090   1.058
      -  s          24.337   1.058
  
    # Using partial waves for Li as LCAO basis

  B:
    name: Boron
    id: 6e91439235a05fd7549e31636e8f777c
    Z: 5.0
    valence: 3
    core: 2
    charge: 0.0
    file: /home/vazumah/.conda/envs/GPAW/share/gpaw/B.PBE.gz
    compensation charges: {type: gauss,
                           rc: 0.20,
                           lmax: 2}
    cutoffs: {filter: 1.14,
              core: 1.38}
    valence states:
      #              energy  rcut
      - 2s(2.00)    -9.443   0.635
      - 2p(1.00)    -3.606   0.635
      -  s          17.768   0.635
      -  p          23.605   0.635
      -  d           0.000   0.635
  
    # Using partial waves for B as LCAO basis

  H:
    name: Hydrogen
    id: d65de229564ff8ea4db303e23b6d1ecf
    Z: 1.0
    valence: 1
    core: 0
    charge: 0.0
    file: /home/vazumah/.conda/envs/GPAW/share/gpaw/H.PBE.gz
    compensation charges: {type: gauss,
                           rc: 0.15,
                           lmax: 2}
    cutoffs: {filter: 0.85,
              core: 0.53}
    valence states:
      #              energy  rcut
      - 1s(1.00)    -6.494   0.476
      -  s          20.717   0.476
      -  p           0.000   0.476
  
    # Using partial waves for H as LCAO basis

  N:
    name: Nitrogen
    id: f7500608b86eaa90eef8b1d9a670dc53
    Z: 7.0
    valence: 5
    core: 2
    charge: 0.0
    file: /home/vazumah/.conda/envs/GPAW/share/gpaw/N.PBE.gz
    compensation charges: {type: gauss,
                           rc: 0.18,
                           lmax: 2}
    cutoffs: {filter: 1.11,
              core: 0.96}
    valence states:
      #              energy  rcut
      - 2s(2.00)   -18.583   0.603
      - 2p(3.00)    -7.089   0.529
      -  s           8.629   0.603
      -  p          20.123   0.529
      -  d           0.000   0.577
  
    # Using partial waves for N as LCAO basis

Reference energy: -10970.764591  # eV

Spin-paired calculation

Convergence criteria:
 Maximum [total energy] change in last 3 cyles: 0.0005 eV / electron
 Maximum integral of absolute [dens]ity change: 0.0001 electrons / valence electron
 Maximum integral of absolute [eigenst]ate change: 4e-08 eV^2 / valence electron
 Maximum number of scf [iter]ations: 333
 (Square brackets indicate name in SCF output, whereas a 'c' in
 the SCF output indicates the quantity has converged.)

Symmetries present (total): 1

  ( 1  0  0)
  ( 0  1  0)
  ( 0  0  1)

16 k-points: 4 x 4 x 1 Monkhorst-Pack grid
8 k-points in the irreducible part of the Brillouin zone
       k-points in crystal coordinates                weights
   0:     0.12500000   -0.37500000    0.00000000          2/16
   1:     0.12500000   -0.12500000    0.00000000          2/16
   2:     0.12500000    0.12500000    0.00000000          2/16
   3:     0.12500000    0.37500000    0.00000000          2/16
   4:     0.37500000   -0.37500000    0.00000000          2/16
   5:     0.37500000   -0.12500000    0.00000000          2/16
   6:     0.37500000    0.12500000    0.00000000          2/16
   7:     0.37500000    0.37500000    0.00000000          2/16

Wave functions: Uniform real-space grid
  Kinetic energy operator: 6*3+1=19 point O(h^6) finite-difference Laplacian
  ScaLapack parameters: grid=1x1, blocksize=None
  Wavefunction extrapolation:
    Improved wavefunction reuse through dual PAW basis 

Occupation numbers: Fermi-Dirac:
  width: 0.0500  # eV
 

Eigensolver
   Davidson(niter=2) 

Densities:
  Coarse grid: 60*60*156 grid
  Fine grid: 120*120*312 grid
  Total Charge: 0.000000 

Density mixing:
  Method: separate
  Backend: pulay
  Linear mixing parameter: 0.05
  old densities: 5
  Damping of long wavelength oscillations: 50 

Hamiltonian:
  XC and Coulomb potentials evaluated on a 120*120*312 grid
  Using the BEEF-vdW Exchange-Correlation functional
  Interpolation: tri-quintic (5. degree polynomial)
  Poisson solver: FastPoissonSolver using
    Stencil: 6*3+1=19 point O(h^6) finite-difference Laplacian
    FFT axes: [0, 1]
    FST axes: [2]

Dipole correction along z-axis 

XC parameters: BEEF-vdW with 2 nearest neighbor stencil

Memory estimate:
  Process memory now: 218.32 MiB
  Calculator: 365.21 MiB
    Density: 116.66 MiB
      Arrays: 36.75 MiB
      Localized functions: 65.90 MiB
      Mixer: 14.01 MiB
    Hamiltonian: 29.25 MiB
      Arrays: 24.03 MiB
      XC: 0.00 MiB
      Poisson: 0.00 MiB
      vbar: 5.22 MiB
    Wavefunctions: 219.30 MiB
      Arrays psit_nG: 100.85 MiB
      Eigensolver: 115.06 MiB
      Projections: 0.04 MiB
      Projectors: 3.35 MiB

Total number of cores used: 24
Parallelization over k-points: 8
Domain decomposition: 1 x 1 x 3

Number of atoms: 42
Number of atomic orbitals: 159
Number of bands in calculation: 36
Number of valence electrons: 52
Bands to converge: occupied

... initialized

Initializing position-dependent things.

Density initialized from atomic densities
Creating initial wave functions:
  36 bands from LCAO basis set

       .-----------------------.  
      /|                       |  
     / |                       |  
    /  |                       |  
   /   |                       |  
  /    |                       |  
 *     |                       |  
 |     |                       |  
 |     |                       |  
 |     |            H B  H     |  
 |     |             H         |  
 |     |                       |  
 |     |                       |  
 |     |              N  N     |  
 |   Li|     Li      Li        |  
 |     |  Li      Li      Li   |  
 | Li  |   Li      Li          |  
 |     |Li      Li      Li     |  
 Li    | Li      Li            |  
 |   LLi     LLi     LLi       |  
 |     |  Li      Li      Li   |  
 | Li  |   Li      Li          |  
 |     |Li      Li      Li     |  
 Li    | Li      Li            |  
 |    Li      Li      Li       |  
 |     |                       |  
 |     |                       |  
 |     |                       |  
 |     |                       |  
 |     |                       |  
 |     |                       |  
 |     .-----------------------.  
 |    /                       /   
 |   /                       /    
 |  /                       /     
 | /                       /      
 |/                       /       
 *-----------------------*        

Positions:
   0 Li     1.617037    1.617037   10.000000    ( 0.0000,  0.0000,  0.0000)
   1 Li     4.851111    1.617037   10.000000    ( 0.0000,  0.0000,  0.0000)
   2 Li     8.085185    1.617037   10.000000    ( 0.0000,  0.0000,  0.0000)
   3 Li     1.617037    4.851111   10.000000    ( 0.0000,  0.0000,  0.0000)
   4 Li     4.851111    4.851111   10.000000    ( 0.0000,  0.0000,  0.0000)
   5 Li     8.085185    4.851111   10.000000    ( 0.0000,  0.0000,  0.0000)
   6 Li     1.617037    8.085185   10.000000    ( 0.0000,  0.0000,  0.0000)
   7 Li     4.851111    8.085185   10.000000    ( 0.0000,  0.0000,  0.0000)
   8 Li     8.085185    8.085185   10.000000    ( 0.0000,  0.0000,  0.0000)
   9 Li     0.000000    0.000000   11.617037    ( 0.0000,  0.0000,  0.0000)
  10 Li     3.234074    0.000000   11.617037    ( 0.0000,  0.0000,  0.0000)
  11 Li     6.468148    0.000000   11.617037    ( 0.0000,  0.0000,  0.0000)
  12 Li     0.000000    3.234074   11.617037    ( 0.0000,  0.0000,  0.0000)
  13 Li     3.234074    3.234074   11.617037    ( 0.0000,  0.0000,  0.0000)
  14 Li     6.468148    3.234074   11.617037    ( 0.0000,  0.0000,  0.0000)
  15 Li     0.000000    6.468148   11.617037    ( 0.0000,  0.0000,  0.0000)
  16 Li     3.234074    6.468148   11.617037    ( 0.0000,  0.0000,  0.0000)
  17 Li     6.468148    6.468148   11.617037    ( 0.0000,  0.0000,  0.0000)
  18 Li     1.617038    1.617038   13.469728    ( 0.0000,  0.0000,  0.0000)
  19 Li     4.851111    1.617038   13.469729    ( 0.0000,  0.0000,  0.0000)
  20 Li     8.085184    1.617038   13.469728    ( 0.0000,  0.0000,  0.0000)
  21 Li     1.617038    4.851111   13.469729    ( 0.0000,  0.0000,  0.0000)
  22 Li     4.851111    4.851111   13.469730    ( 0.0000,  0.0000,  0.0000)
  23 Li     8.085184    4.851111   13.469729    ( 0.0000,  0.0000,  0.0000)
  24 Li     1.617038    8.085184   13.469728    ( 0.0000,  0.0000,  0.0000)
  25 Li     4.851111    8.085184   13.469729    ( 0.0000,  0.0000,  0.0000)
  26 Li     8.085184    8.085184   13.469728    ( 0.0000,  0.0000,  0.0000)
  27 Li    -0.000000   -0.000000   15.445939    ( 0.0000,  0.0000,  0.0000)
  28 Li     3.234074    0.000000   15.445939    ( 0.0000,  0.0000,  0.0000)
  29 Li     6.468148    0.000000   15.445939    ( 0.0000,  0.0000,  0.0000)
  30 Li     0.000000    3.234074   15.445939    ( 0.0000,  0.0000,  0.0000)
  31 Li     3.234076    3.234076   15.445938    ( 0.0000,  0.0000,  0.0000)
  32 Li     6.468146    3.234076   15.445938    ( 0.0000,  0.0000,  0.0000)
  33 Li     0.000000    6.468148   15.445939    ( 0.0000,  0.0000,  0.0000)
  34 Li     3.234076    6.468146   15.445938    ( 0.0000,  0.0000,  0.0000)
  35 Li     6.468146    6.468146   15.445938    ( 0.0000,  0.0000,  0.0000)
  36 B      8.085185    1.617037   21.445939    ( 0.0000,  0.0000,  0.0000)
  37 H      9.117754    2.209323   21.445939    ( 0.0000,  0.0000,  0.0000)
  38 H      7.055276    2.213996   21.445939    ( 0.0000,  0.0000,  0.0000)
  39 H      8.085271    0.428437   21.445939    ( 0.0000,  0.0000,  0.0000)
  40 N      8.085000    1.617000   18.445939    ( 0.0000,  0.0000,  0.0000)
  41 N      9.181622    1.617000   18.445939    ( 0.0000,  0.0000,  0.0000)

Unit cell:
           periodic     x           y           z      points  spacing
  1. axis:    yes    9.702222    0.000000    0.000000    60     0.1617
  2. axis:    yes    0.000000    9.702222    0.000000    60     0.1617
  3. axis:    no     0.000000    0.000000   24.851111   156     0.1593

  Lengths:   9.702222   9.702222  24.851111
  Angles:   90.000000  90.000000  90.000000

Effective grid spacing dv^(1/3) = 0.1609

     iter     time        total  log10-change:
                         energy  eigst   dens
iter:   1 17:12:33  -375.012809
iter:   2 17:15:03  -122.598184  +2.35  -0.07
iter:   3 17:17:27    -9.190059  +3.22  -0.17
iter:   4 17:19:45   -38.326415  +2.91  -0.13
Writing to output.gpw (mode='')

iter:   5 17:22:10  -148.188018  +3.32  -0.44
iter:   6 17:24:31  -394.987406  +3.50  -0.31
iter:   7 17:26:56  -362.294942  +2.80  -0.17
iter:   8 17:29:24  -339.582332  +2.40  -0.19
iter:   9 17:31:45  -368.766197  +2.16  -0.24
Writing to output.gpw (mode='')

iter:  10 17:34:08  -346.352243  +1.97  -0.20
iter:  11 17:36:36  -294.239454  +1.75  -0.24
iter:  12 17:39:01  -292.327300  +1.47  -0.51
iter:  13 17:41:21  -336.070690  +1.80  -0.49
iter:  14 17:43:49  -257.732395  +1.49  -0.32
Writing to output.gpw (mode='')

iter:  15 17:46:15  -257.690727  +1.07  -0.71
iter:  16 17:48:36  -257.453884  +0.91  -0.73
iter:  17 17:51:02  -257.946779  +0.69  -0.75
iter:  18 17:53:25  -257.607806  +0.72  -0.70
iter:  19 17:55:56  -267.369548  +1.78  -0.77
Writing to output.gpw (mode='')

iter:  20 17:58:17  -257.009435  +0.79  -0.60
iter:  21 18:00:38  -256.028758  +0.46  -0.87
iter:  22 18:03:07  -256.700736  -0.05  -1.01
iter:  23 18:05:38  -258.925237  +0.49  -0.98
iter:  24 18:08:00  -255.654031  -0.16  -0.73
Writing to output.gpw (mode='')

iter:  25 18:10:26  -255.644126  -0.23  -1.28
iter:  26 18:12:50  -255.420172  -0.19  -1.34
iter:  27 18:15:07  -255.351551  -0.54  -1.37
iter:  28 18:17:33  -255.225614  -0.69  -1.41
iter:  29 18:20:06  -255.184228  -0.78  -1.56
Writing to output.gpw (mode='')

iter:  30 18:22:29  -255.126837  -1.02  -1.56
iter:  31 18:24:49  -255.094430  -1.25  -1.61
iter:  32 18:27:05  -255.069440  -1.11  -1.71
iter:  33 18:29:31  -255.061916  -1.14  -1.76
iter:  34 18:31:52  -255.049791c -1.49  -1.90
Writing to output.gpw (mode='')

iter:  35 18:34:21  -255.059266c -1.09  -2.07
iter:  36 18:36:42  -255.045735c -1.65  -1.90
iter:  37 18:39:10  -255.047458c -1.63  -2.32
iter:  38 18:41:35  -255.048905c -1.98  -2.40
iter:  39 18:44:00  -255.050450c -2.02  -2.43
Writing to output.gpw (mode='')

iter:  40 18:46:24  -255.052809c -1.80  -2.51
iter:  41 18:48:41  -255.052660c -2.23  -2.52
iter:  42 18:51:12  -255.053178c -2.20  -2.71
iter:  43 18:53:36  -255.054220c -2.32  -2.71
iter:  44 18:56:03  -255.054677c -2.43  -2.98
Writing to output.gpw (mode='')

iter:  45 18:58:23  -255.055063c -2.34  -3.14
iter:  46 19:00:49  -255.055568c -2.57  -3.12
iter:  47 19:03:14  -255.055948c -2.60  -3.23
iter:  48 19:05:37  -255.056300c -2.52  -3.27
iter:  49 19:08:05  -255.056663c -2.63  -3.36
Writing to output.gpw (mode='')

iter:  50 19:10:33  -255.056982c -2.69  -3.41
iter:  51 19:12:51  -255.057250c -2.73  -3.44
iter:  52 19:15:09  -255.057538c -2.74  -3.61
iter:  53 19:17:45  -255.057756c -2.83  -3.71
iter:  54 19:20:15  -255.057967c -2.86  -3.76
Writing to output.gpw (mode='')

iter:  55 19:22:34  -255.058174c -2.79  -3.65
iter:  56 19:25:01  -255.058353c -2.92  -3.69
iter:  57 19:27:26  -255.058519c -2.95  -3.64
iter:  58 19:29:55  -255.058672c -2.90  -3.58
iter:  59 19:32:24  -255.058817c -2.89  -3.55
Writing to output.gpw (mode='')

iter:  60 19:34:49  -255.058971c -2.96  -3.52
iter:  61 19:37:13  -255.059098c -2.98  -3.44
iter:  62 19:39:36  -255.059220c -3.06  -3.45
iter:  63 19:41:54  -255.059311c -3.15  -3.38
iter:  64 19:44:20  -255.059397c -3.12  -3.40
Writing to output.gpw (mode='')

iter:  65 19:46:40  -255.059480c -3.18  -3.42
iter:  66 19:49:10  -255.059564c -3.17  -3.40
iter:  67 19:51:36  -255.059643c -3.21  -3.36
iter:  68 19:54:06  -255.059721c -3.22  -3.33
iter:  69 19:56:35  -255.059778c -3.30  -3.31
Writing to output.gpw (mode='')

iter:  70 19:58:59  -255.059828c -3.20  -3.32
iter:  71 20:01:31  -255.059870c -3.37  -3.38
iter:  72 20:03:51  -255.059941c -3.33  -3.31
iter:  73 20:06:21  -255.059968c -3.36  -3.24
iter:  74 20:08:45  -255.060004c -3.38  -3.43
Writing to output.gpw (mode='')

iter:  75 20:11:15  -255.060043c -3.42  -3.45
iter:  76 20:13:41  -255.060082c -3.42  -3.44
iter:  77 20:16:09  -255.060116c -3.53  -3.41
iter:  78 20:18:33  -255.060143c -3.48  -3.41
iter:  79 20:20:53  -255.060171c -3.52  -3.40
Writing to output.gpw (mode='')

iter:  80 20:23:21  -255.060208c -3.58  -3.39
iter:  81 20:25:45  -255.060225c -3.56  -3.36
iter:  82 20:28:11  -255.060251c -3.57  -3.32
iter:  83 20:30:32  -255.060270c -3.62  -3.30
iter:  84 20:33:05  -255.060287c -3.63  -3.31
Writing to output.gpw (mode='')

iter:  85 20:35:34  -255.060310c -3.69  -3.42
iter:  86 20:38:05  -255.060327c -3.56  -3.41
iter:  87 20:40:34  -255.060348c -3.60  -3.44
iter:  88 20:43:02  -255.060367c -3.74  -3.55
iter:  89 20:45:31  -255.060375c -3.72  -3.64
Writing to output.gpw (mode='')

iter:  90 20:48:06  -255.060393c -3.72  -3.75
iter:  91 20:50:28  -255.060403c -3.82  -3.83
iter:  92 20:52:52  -255.060421c -3.73  -3.88
iter:  93 20:55:09  -255.060431c -3.84  -4.02c
iter:  94 20:57:29  -255.060440c -3.85  -4.07c
Writing to output.gpw (mode='')

iter:  95 20:59:59  -255.060445c -3.88  -4.16c
iter:  96 21:02:18  -255.060452c -3.90  -4.23c
iter:  97 21:04:44  -255.060459c -3.97  -4.27c
iter:  98 21:07:03  -255.060466c -4.03  -4.38c
iter:  99 21:09:36  -255.060472c -3.99  -4.59c
Writing to output.gpw (mode='')

iter: 100 21:11:59  -255.060480c -4.00  -4.69c
iter: 101 21:14:23  -255.060485c -4.15  -4.76c
iter: 102 21:16:43  -255.060489c -4.14  -4.70c
iter: 103 21:18:59  -255.060494c -4.17  -4.66c
iter: 104 21:21:22  -255.060498c -4.14  -4.57c
Writing to output.gpw (mode='')

iter: 105 21:23:51  -255.060502c -4.18  -4.53c
iter: 106 21:26:19  -255.060505c -4.17  -4.50c
iter: 107 21:28:42  -255.060508c -4.22  -4.46c
iter: 108 21:31:05  -255.060511c -4.25  -4.50c
iter: 109 21:33:25  -255.060513c -4.25  -4.43c
Writing to output.gpw (mode='')

iter: 110 21:36:00  -255.060516c -4.31  -4.41c
iter: 111 21:38:23  -255.060518c -4.36  -4.44c
iter: 112 21:40:53  -255.060520c -4.28  -4.38c
iter: 113 21:43:19  -255.060522c -4.36  -4.43c
iter: 114 21:45:49  -255.060524c -4.35  -4.41c
Writing to output.gpw (mode='')

iter: 115 21:48:22  -255.060526c -4.42  -4.40c
iter: 116 21:50:45  -255.060527c -4.40  -4.51c
iter: 117 21:53:09  -255.060530c -4.46  -4.44c
iter: 118 21:55:27  -255.060533c -4.51  -4.50c
iter: 119 21:57:48  -255.060534c -4.58  -4.49c
Writing to output.gpw (mode='')

iter: 120 22:00:16  -255.060535c -4.52  -4.50c
iter: 121 22:02:43  -255.060537c -4.61  -4.36c
iter: 122 22:05:10  -255.060533c -4.62  -4.55c
iter: 123 22:07:31  -255.060542c -4.62  -4.36c
iter: 124 22:09:53  -255.060544c -4.64  -4.59c
Writing to output.gpw (mode='')

iter: 125 22:12:16  -255.060546c -4.60  -4.60c
iter: 126 22:14:47  -255.060549c -4.60  -4.63c
iter: 127 22:17:17  -255.060550c -4.70  -4.67c
iter: 128 22:19:47  -255.060550c -4.71  -4.67c
iter: 129 22:22:08  -255.060550c -4.70  -4.62c
Writing to output.gpw (mode='')

iter: 130 22:24:39  -255.060553c -4.78  -4.67c
iter: 131 22:27:11  -255.060554c -4.81  -4.78c
iter: 132 22:29:38  -255.060555c -4.79  -4.81c
iter: 133 22:32:09  -255.060556c -4.85  -4.94c
iter: 134 22:34:27  -255.060555c -4.90  -5.23c
Writing to output.gpw (mode='')

iter: 135 22:36:55  -255.060556c -4.96  -5.23c
iter: 136 22:39:18  -255.060555c -4.90  -5.21c
iter: 137 22:41:53  -255.060555c -4.99  -5.10c
iter: 138 22:44:23  -255.060556c -5.02  -5.06c
iter: 139 22:46:49  -255.060555c -5.05  -5.06c
Writing to output.gpw (mode='')

iter: 140 22:49:25  -255.060556c -5.05  -4.95c
iter: 141 22:51:46  -255.060556c -5.04  -4.98c
iter: 142 22:54:17  -255.060556c -5.13  -4.96c
iter: 143 22:56:43  -255.060557c -5.12  -4.88c
iter: 144 22:59:04  -255.060558c -5.11  -4.93c
Writing to output.gpw (mode='')

iter: 145 23:01:25  -255.060557c -5.20  -4.99c
iter: 146 23:03:56  -255.060560c -5.22  -4.86c
iter: 147 23:06:29  -255.060560c -5.24  -5.00c
iter: 148 23:08:54  -255.060560c -5.16  -5.03c
iter: 149 23:11:16  -255.060560c -5.28  -5.12c
Writing to output.gpw (mode='')

iter: 150 23:13:41  -255.060561c -5.20  -5.22c
iter: 151 23:16:00  -255.060561c -5.28  -5.30c
iter: 152 23:18:31  -255.060561c -5.31  -5.38c
iter: 153 23:20:49  -255.060561c -5.32  -5.40c
iter: 154 23:23:08  -255.060562c -5.34  -5.48c
Writing to output.gpw (mode='')

iter: 155 23:25:41  -255.060562c -5.40  -5.69c
iter: 156 23:28:05  -255.060562c -5.40  -5.71c
iter: 157 23:30:30  -255.060562c -5.41  -5.82c
iter: 158 23:32:52  -255.060562c -5.41  -5.86c
iter: 159 23:35:18  -255.060562c -5.47  -5.87c
Writing to output.gpw (mode='')

iter: 160 23:37:47  -255.060562c -5.49  -5.80c
iter: 161 23:40:13  -255.060562c -5.44  -5.85c
iter: 162 23:42:42  -255.060561c -5.48  -5.74c
iter: 163 23:45:10  -255.060562c -5.54  -5.62c
iter: 164 23:47:39  -255.060561c -5.57  -5.68c
Writing to output.gpw (mode='')

iter: 165 23:50:07  -255.060561c -5.53  -5.63c
iter: 166 23:52:36  -255.060561c -5.59  -5.57c
iter: 167 23:55:03  -255.060561c -5.54  -5.53c
iter: 168 23:57:31  -255.060561c -5.68  -5.48c
iter: 169 23:59:56  -255.060561c -5.69  -5.42c
Writing to output.gpw (mode='')

iter: 170 00:02:19  -255.060561c -5.71  -5.49c
iter: 171 00:04:45  -255.060561c -5.68  -5.44c
iter: 172 00:07:14  -255.060561c -5.75  -5.40c
iter: 173 00:09:37  -255.060561c -5.72  -5.35c
iter: 174 00:12:04  -255.060561c -5.81  -5.36c
Writing to output.gpw (mode='')

iter: 175 00:14:29  -255.060560c -5.76  -5.42c
iter: 176 00:16:46  -255.060561c -5.85  -5.35c
iter: 177 00:19:10  -255.060562c -5.88  -5.47c
iter: 178 00:21:35  -255.060562c -5.88  -5.54c
iter: 179 00:24:07  -255.060562c -5.91  -5.61c
Writing to output.gpw (mode='')

iter: 180 00:26:31  -255.060562c -5.84  -5.64c
iter: 181 00:28:58  -255.060562c -5.89  -5.80c
iter: 182 00:31:23  -255.060562c -5.84  -5.85c
iter: 183 00:33:43  -255.060562c -5.97  -5.89c
iter: 184 00:36:07  -255.060562c -5.98  -5.96c
Writing to output.gpw (mode='')

iter: 185 00:38:30  -255.060561c -6.05  -6.05c
iter: 186 00:40:54  -255.060561c -6.07  -6.05c
iter: 187 00:43:24  -255.060561c -6.07  -6.04c
iter: 188 00:45:43  -255.060561c -6.10  -6.08c
iter: 189 00:48:08  -255.060561c -6.12  -6.16c
Writing to output.gpw (mode='')

iter: 190 00:50:35  -255.060561c -6.11  -6.28c
iter: 191 00:52:52  -255.060561c -6.15  -6.41c
iter: 192 00:55:15  -255.060561c -6.16  -6.47c
iter: 193 00:57:31  -255.060561c -6.19  -6.52c
iter: 194 00:59:57  -255.060561c -6.20  -6.55c
Writing to output.gpw (mode='')

iter: 195 01:02:26  -255.060561c -6.21  -6.56c
iter: 196 01:04:50  -255.060561c -6.28  -6.41c
iter: 197 01:07:15  -255.060561c -6.30  -6.47c
iter: 198 01:09:40  -255.060561c -6.31  -6.36c
iter: 199 01:12:03  -255.060561c -6.33  -6.24c
Writing to output.gpw (mode='')

iter: 200 01:14:27  -255.060560c -6.38  -6.09c
iter: 201 01:16:48  -255.060560c -6.37  -6.06c
iter: 202 01:19:14  -255.060560c -6.40  -5.98c
iter: 203 01:21:40  -255.060560c -6.39  -6.01c
iter: 204 01:24:04  -255.060560c -6.39  -6.02c
Writing to output.gpw (mode='')

iter: 205 01:26:31  -255.060560c -6.41  -6.02c
iter: 206 01:28:51  -255.060561c -6.46  -6.01c
iter: 207 01:31:16  -255.060560c -6.50  -6.23c
iter: 208 01:33:41  -255.060560c -6.51  -5.96c
iter: 209 01:36:07  -255.060560c -6.54  -6.38c
Writing to output.gpw (mode='')

iter: 210 01:38:36  -255.060560c -6.54  -6.10c
iter: 211 01:41:04  -255.060560c -6.54  -6.08c
iter: 212 01:43:26  -255.060560c -6.54  -5.95c
iter: 213 01:45:55  -255.060560c -6.60  -5.90c
iter: 214 01:48:21  -255.060560c -6.63  -6.18c
Writing to output.gpw (mode='')

iter: 215 01:50:52  -255.060560c -6.63  -6.04c
iter: 216 01:53:15  -255.060560c -6.65  -5.90c
iter: 217 01:55:40  -255.060560c -6.66  -6.19c
iter: 218 01:58:02  -255.060560c -6.67  -5.99c
iter: 219 02:00:24  -255.060560c -6.70  -5.87c
Writing to output.gpw (mode='')

iter: 220 02:02:53  -255.060560c -6.68  -5.90c
iter: 221 02:05:17  -255.060560c -6.73  -5.92c
iter: 222 02:07:44  -255.060560c -6.74  -6.20c
iter: 223 02:10:07  -255.060560c -6.73  -6.26c
iter: 224 02:12:36  -255.060560c -6.78  -6.29c
Writing to output.gpw (mode='')

iter: 225 02:15:00  -255.060560c -6.78  -6.21c
iter: 226 02:17:35  -255.060560c -6.79  -6.24c
iter: 227 02:20:04  -255.060560c -6.76  -6.18c
iter: 228 02:22:29  -255.060559c -6.82  -6.14c
iter: 229 02:24:48  -255.060559c -6.87  -6.16c
Writing to output.gpw (mode='')

iter: 230 02:27:11  -255.060559c -6.90  -6.12c
iter: 231 02:29:48  -255.060559c -6.91  -6.13c
iter: 232 02:32:07  -255.060559c -6.93  -6.14c
iter: 233 02:34:29  -255.060559c -6.96  -6.26c
iter: 234 02:36:43  -255.060559c -6.93  -6.06c
Writing to output.gpw (mode='')

iter: 235 02:39:12  -255.060559c -6.99  -6.18c
iter: 236 02:41:31  -255.060559c -7.02  -6.28c
iter: 237 02:43:52  -255.060559c -7.00  -6.20c
iter: 238 02:46:14  -255.060559c -7.03  -6.19c
iter: 239 02:48:34  -255.060559c -7.06  -6.14c
Writing to output.gpw (mode='')

iter: 240 02:50:51  -255.060559c -7.08  -6.24c
iter: 241 02:53:20  -255.060559c -7.08  -6.26c
iter: 242 02:55:43  -255.060559c -7.11  -6.34c
iter: 243 02:58:01  -255.060559c -7.12  -6.38c
iter: 244 03:00:24  -255.060559c -7.14  -6.42c
Writing to output.gpw (mode='')

iter: 245 03:02:41  -255.060559c -7.18  -6.70c
iter: 246 03:05:02  -255.060559c -7.18  -6.70c
iter: 247 03:07:17  -255.060559c -7.18  -6.77c
iter: 248 03:09:39  -255.060559c -7.21  -6.87c
iter: 249 03:11:52  -255.060559c -7.25  -7.08c
Writing to output.gpw (mode='')

iter: 250 03:14:10  -255.060559c -7.22  -7.15c
iter: 251 03:16:30  -255.060559c -7.22  -7.27c
iter: 252 03:18:56  -255.060559c -7.25  -7.36c
iter: 253 03:21:20  -255.060559c -7.29  -7.40c
iter: 254 03:23:40  -255.060559c -7.30  -7.34c
Writing to output.gpw (mode='')

iter: 255 03:26:12  -255.060559c -7.32  -7.19c
iter: 256 03:28:40  -255.060559c -7.33  -7.24c
iter: 257 03:30:58  -255.060559c -7.34  -7.22c
iter: 258 03:33:25  -255.060559c -7.38  -7.22c
iter: 259 03:35:44  -255.060559c -7.38  -7.05c
Writing to output.gpw (mode='')

iter: 260 03:38:03  -255.060559c -7.40c -7.03c

Converged after 260 iterations.

Dipole moment: (5.700925, -4.398156, 0.011144) |e|*Ang

Energy contributions relative to reference atoms: (reference = -10970.764591)

Kinetic:       +113.609125
Potential:     -107.124855
External:        +0.000000
XC:            -261.771957
Entropy (-ST):   -0.155309
Local:           +0.304782
--------------------------
Free energy:   -255.138213
Extrapolated:  -255.060559

Dipole-layer corrected work functions: 3.396100, 3.374677 eV

Showing only first 2 kpts
 Kpt  Band  Eigenvalues  Occupancy
  0    24     -3.63691    1.98701
  0    25     -3.54974    1.92796
  0    26     -3.23308    0.09077
  0    27     -3.13204    0.01252

  1    24     -3.40521    1.19569
  1    25     -3.37585    0.90486
  1    26     -3.34964    0.65702
  1    27     -3.33922    0.56854


Fermi level: -3.38539

No gap

Forces in eV/Ang:
  0 Li    0.00459   -0.00000   -0.27134
  1 Li   -0.00361   -0.00000   -0.27319
  2 Li   -0.00150    0.00000   -0.27131
  3 Li   -0.00148   -0.00188   -0.27256
  4 Li    0.00304   -0.00214   -0.27502
  5 Li   -0.00043    0.00463   -0.27339
  6 Li   -0.00147    0.00188   -0.27256
  7 Li    0.00305    0.00214   -0.27502
  8 Li   -0.00043   -0.00464   -0.27339
  9 Li    0.00112    0.00049    0.25868
 10 Li    0.00259    0.00158    0.25768
 11 Li   -0.00263   -0.00202    0.25421
 12 Li    0.00112   -0.00048    0.25868
 13 Li    0.00260   -0.00158    0.25770
 14 Li   -0.00263    0.00201    0.25421
 15 Li   -0.00078   -0.00000    0.25651
 16 Li   -0.00503   -0.00001    0.26493
 17 Li    0.00422    0.00001    0.25903
 18 Li   -0.00229    0.00000    0.04389
 19 Li    0.00439   -0.00001    0.04011
 20 Li   -0.00240   -0.00001    0.02035
 21 Li   -0.00174   -0.00253    0.03875
 22 Li   -0.00104    0.00092    0.03453
 23 Li    0.00122   -0.00582    0.04606
 24 Li   -0.00174    0.00252    0.03875
 25 Li   -0.00104   -0.00091    0.03458
 26 Li    0.00122    0.00582    0.04607
 27 Li    0.02939   -0.03253   -0.07199
 28 Li   -0.00418    0.00494   -0.01939
 29 Li   -0.02724   -0.01757   -0.04657
 30 Li    0.02941    0.03251   -0.07190
 31 Li   -0.00421   -0.00494   -0.01925
 32 Li   -0.02730    0.01758   -0.04650
 33 Li   -0.00608    0.00000   -0.01940
 34 Li   -0.00116   -0.00000   -0.02001
 35 Li    0.00831    0.00000   -0.01836
 36 B    -0.00696    0.03924    0.04707
 37 H    -0.03689   -0.01564    0.03245
 38 H     0.03159   -0.01464    0.00107
 39 H    -0.00348   -0.01683    0.00180
 40 N    -0.82817   -0.00291    0.01163
 41 N     0.88112   -0.00024    0.00334

System changes: positions 

Initializing position-dependent things.

Density initialized from wave functions
       .-----------------------.  
      /|                       |  
     / |                       |  
    /  |                       |  
   /   |                       |  
  /    |                       |  
 *     |                       |  
 |     |                       |  
 |     |                       |  
 |     |            H B  H     |  
 |     |             H         |  
 |     |                       |  
 |     Li              Li      |  
 |     |              N  N     |  
 |     |     Li      Li      Li|  
 |     |  Li      Li      Li   |  
 | Li  |   Li      Li          |  
 |     |Li      Li      Li     |  
 |     | Li                    |  
 |   LLi     LLi     LLi       |  
 |     |  Li      Li      Li   |  
 | Li  |   Li      Li          |  
 |     |Li      Li      Li     |  
 Li    | Li      Li            |  
 |    Li      Li      Li       |  
 |     |                       |  
 |     |                       |  
 |     |                       |  
 |     |                       |  
 |     |                       |  
 |     |                       |  
 |     .-----------------------.  
 |    /                       /   
 |   /                       /    
 |  /                       /     
 | /                       /      
 |/                       /       
 *-----------------------*        

Positions:
   0 Li     1.617037    1.617037   10.000000    ( 0.0000,  0.0000,  0.0000)
   1 Li     4.851111    1.617037   10.000000    ( 0.0000,  0.0000,  0.0000)
   2 Li     8.085185    1.617037   10.000000    ( 0.0000,  0.0000,  0.0000)
   3 Li     1.617037    4.851111   10.000000    ( 0.0000,  0.0000,  0.0000)
   4 Li     4.851111    4.851111   10.000000    ( 0.0000,  0.0000,  0.0000)
   5 Li     8.085185    4.851111   10.000000    ( 0.0000,  0.0000,  0.0000)
   6 Li     1.617037    8.085185   10.000000    ( 0.0000,  0.0000,  0.0000)
   7 Li     4.851111    8.085185   10.000000    ( 0.0000,  0.0000,  0.0000)
   8 Li     8.085185    8.085185   10.000000    ( 0.0000,  0.0000,  0.0000)
   9 Li     0.000000    0.000000   11.617037    ( 0.0000,  0.0000,  0.0000)
  10 Li     3.234074    0.000000   11.617037    ( 0.0000,  0.0000,  0.0000)
  11 Li     6.468148    0.000000   11.617037    ( 0.0000,  0.0000,  0.0000)
  12 Li     0.000000    3.234074   11.617037    ( 0.0000,  0.0000,  0.0000)
  13 Li     3.234074    3.234074   11.617037    ( 0.0000,  0.0000,  0.0000)
  14 Li     6.468148    3.234074   11.617037    ( 0.0000,  0.0000,  0.0000)
  15 Li     0.000000    6.468148   11.617037    ( 0.0000,  0.0000,  0.0000)
  16 Li     3.234074    6.468148   11.617037    ( 0.0000,  0.0000,  0.0000)
  17 Li     6.468148    6.468148   11.617037    ( 0.0000,  0.0000,  0.0000)
  18 Li     1.617005    1.617038   13.470355    ( 0.0000,  0.0000,  0.0000)
  19 Li     4.851174    1.617038   13.470302    ( 0.0000,  0.0000,  0.0000)
  20 Li     8.085150    1.617038   13.470019    ( 0.0000,  0.0000,  0.0000)
  21 Li     1.617014    4.851075   13.470283    ( 0.0000,  0.0000,  0.0000)
  22 Li     4.851096    4.851124   13.470224    ( 0.0000,  0.0000,  0.0000)
  23 Li     8.085201    4.851028   13.470387    ( 0.0000,  0.0000,  0.0000)
  24 Li     1.617013    8.085220   13.470281    ( 0.0000,  0.0000,  0.0000)
  25 Li     4.851096    8.085171   13.470223    ( 0.0000,  0.0000,  0.0000)
  26 Li     8.085201    8.085267   13.470386    ( 0.0000,  0.0000,  0.0000)
  27 Li     0.000420   -0.000465   15.444911    ( 0.0000,  0.0000,  0.0000)
  28 Li     3.234014    0.000071   15.445662    ( 0.0000,  0.0000,  0.0000)
  29 Li     6.467759   -0.000251   15.445274    ( 0.0000,  0.0000,  0.0000)
  30 Li     0.000420    3.234538   15.444912    ( 0.0000,  0.0000,  0.0000)
  31 Li     3.234016    3.234006   15.445663    ( 0.0000,  0.0000,  0.0000)
  32 Li     6.467756    3.234328   15.445274    ( 0.0000,  0.0000,  0.0000)
  33 Li    -0.000087    6.468148   15.445662    ( 0.0000,  0.0000,  0.0000)
  34 Li     3.234060    6.468146   15.445652    ( 0.0000,  0.0000,  0.0000)
  35 Li     6.468264    6.468146   15.445676    ( 0.0000,  0.0000,  0.0000)
  36 B      8.085086    1.617597   21.446612    ( 0.0000,  0.0000,  0.0000)
  37 H      9.117227    2.209099   21.446403    ( 0.0000,  0.0000,  0.0000)
  38 H      7.055727    2.213787   21.445955    ( 0.0000,  0.0000,  0.0000)
  39 H      8.085221    0.428197   21.445965    ( 0.0000,  0.0000,  0.0000)
  40 N      8.073169    1.616958   18.446105    ( 0.0000,  0.0000,  0.0000)
  41 N      9.194209    1.616997   18.445987    ( 0.0000,  0.0000,  0.0000)

Unit cell:
           periodic     x           y           z      points  spacing
  1. axis:    yes    9.702222    0.000000    0.000000    60     0.1617
  2. axis:    yes    0.000000    9.702222    0.000000    60     0.1617
  3. axis:    no     0.000000    0.000000   24.851111   156     0.1593

  Lengths:   9.702222   9.702222  24.851111
  Angles:   90.000000  90.000000  90.000000

Effective grid spacing dv^(1/3) = 0.1609

     iter     time        total  log10-change:
                         energy  eigst   dens
iter:   1 03:41:05  -255.804866  -0.17
iter:   2 03:43:31  -256.013384  +0.42  -1.00
iter:   3 03:46:02  -255.069966  -0.53  -1.07
iter:   4 03:48:13  -255.066054  -1.02  -1.84
Writing to output.gpw (mode='')

iter:   5 03:50:39  -255.043366  -0.68  -1.90
iter:   6 03:53:07  -255.044199c -1.50  -2.09
iter:   7 03:55:34  -255.053111c -1.72  -2.22
iter:   8 03:58:01  -255.041219c -1.77  -2.04
iter:   9 04:00:19  -255.041479c -1.83  -2.46
Writing to output.gpw (mode='')

iter:  10 04:02:36  -255.042267c -2.34  -2.52
iter:  11 04:05:00  -255.042100c -2.09  -2.60
iter:  12 04:07:19  -255.042440c -2.83  -2.76
iter:  13 04:09:48  -255.042501c -3.21  -2.92
iter:  14 04:12:10  -255.042503c -3.23  -2.94
Writing to output.gpw (mode='')

iter:  15 04:14:34  -255.042564c -3.41  -2.96
iter:  16 04:17:00  -255.042627c -3.37  -3.00
iter:  17 04:19:23  -255.042670c -3.47  -3.06
iter:  18 04:21:51  -255.042722c -3.90  -3.24
iter:  19 04:24:11  -255.042780c -3.74  -3.41
Writing to output.gpw (mode='')

iter:  20 04:26:33  -255.042769c -4.09  -3.51
iter:  21 04:29:02  -255.042782c -4.19  -3.53
iter:  22 04:31:25  -255.042783c -4.20  -3.67
iter:  23 04:32:51  -255.042773c -4.57  -3.71
iter:  24 04:33:38  -255.042774c -4.46  -3.81
Writing to output.gpw (mode='')

iter:  25 04:34:27  -255.042788c -4.65  -3.84
iter:  26 04:35:15  -255.042780c -4.76  -3.83
iter:  27 04:36:02  -255.042787c -4.92  -4.09c
iter:  28 04:36:49  -255.042792c -4.79  -4.14c
iter:  29 04:37:37  -255.042790c -4.85  -4.23c
Writing to output.gpw (mode='')

iter:  30 04:38:26  -255.042792c -5.19  -4.29c
iter:  31 04:39:13  -255.042797c -5.09  -4.34c
iter:  32 04:40:01  -255.042795c -5.31  -4.41c
iter:  33 04:40:48  -255.042794c -5.31  -4.65c
iter:  34 04:41:35  -255.042799c -5.23  -4.69c
Writing to output.gpw (mode='')

iter:  35 04:42:24  -255.042799c -5.48  -4.90c
iter:  36 04:43:12  -255.042801c -5.44  -4.92c
iter:  37 04:43:59  -255.042802c -5.40  -4.93c
iter:  38 04:44:47  -255.042803c -5.55  -4.96c
iter:  39 04:45:34  -255.042803c -5.75  -5.03c
Writing to output.gpw (mode='')

iter:  40 04:46:23  -255.042804c -5.85  -5.19c
iter:  41 04:47:10  -255.042804c -5.69  -5.21c
iter:  42 04:47:57  -255.042805c -5.79  -5.18c
iter:  43 04:48:45  -255.042805c -5.86  -5.29c
iter:  44 04:49:32  -255.042805c -5.88  -5.34c
Writing to output.gpw (mode='')

iter:  45 04:50:23  -255.042805c -5.98  -5.43c
iter:  46 04:51:10  -255.042805c -6.05  -5.33c
iter:  47 04:51:58  -255.042805c -6.04  -5.38c
iter:  48 04:52:45  -255.042806c -6.17  -5.42c
iter:  49 04:53:32  -255.042806c -6.25  -5.70c
Writing to output.gpw (mode='')

iter:  50 04:54:21  -255.042806c -6.28  -5.75c
iter:  51 04:55:09  -255.042806c -6.41  -5.78c
iter:  52 04:55:56  -255.042806c -6.13  -5.66c
iter:  53 04:56:44  -255.042806c -6.38  -5.50c
iter:  54 04:57:31  -255.042806c -6.35  -5.45c
Writing to output.gpw (mode='')

iter:  55 04:58:20  -255.042806c -6.54  -5.39c
iter:  56 04:59:07  -255.042806c -6.49  -5.42c
iter:  57 04:59:55  -255.042806c -6.50  -5.35c
iter:  58 05:00:42  -255.042806c -6.41  -5.30c
iter:  59 05:01:30  -255.042806c -6.63  -5.29c
Writing to output.gpw (mode='')

iter:  60 05:02:19  -255.042806c -6.71  -5.27c
iter:  61 05:03:06  -255.042806c -6.73  -5.23c
iter:  62 05:03:54  -255.042806c -6.80  -5.21c
iter:  63 05:04:41  -255.042807c -6.79  -5.43c
iter:  64 05:05:28  -255.042806c -6.79  -5.48c
Writing to output.gpw (mode='')

iter:  65 05:06:17  -255.042807c -6.84  -5.46c
iter:  66 05:07:04  -255.042807c -6.86  -5.37c
iter:  67 05:07:52  -255.042807c -6.77  -5.41c
iter:  68 05:08:39  -255.042807c -6.92  -5.40c
iter:  69 05:09:26  -255.042807c -7.03  -5.41c
Writing to output.gpw (mode='')

iter:  70 05:10:15  -255.042807c -7.05  -5.39c
iter:  71 05:11:02  -255.042807c -7.11  -5.39c
iter:  72 05:11:50  -255.042807c -7.04  -5.39c
iter:  73 05:12:37  -255.042807c -7.05  -5.40c
iter:  74 05:13:24  -255.042807c -7.06  -5.37c
Writing to output.gpw (mode='')

iter:  75 05:14:13  -255.042807c -7.19  -5.33c
iter:  76 05:15:00  -255.042807c -7.22  -5.32c
iter:  77 05:15:48  -255.042807c -7.26  -5.36c
iter:  78 05:16:35  -255.042807c -7.14  -5.35c
iter:  79 05:17:22  -255.042807c -7.12  -5.30c
Writing to output.gpw (mode='')

iter:  80 05:18:11  -255.042807c -7.16  -5.31c
iter:  81 05:18:59  -255.042807c -6.98  -5.30c
iter:  82 05:19:46  -255.042808c -7.29  -5.32c
iter:  83 05:20:33  -255.042808c -7.42c -5.59c

Converged after 83 iterations.

Dipole moment: (5.969436, -4.346368, -0.018484) |e|*Ang

Energy contributions relative to reference atoms: (reference = -10970.764591)

Kinetic:       +109.887004
Potential:     -104.098626
External:        +0.000000
XC:            -261.056937
Entropy (-ST):   -0.155980
Local:           +0.303740
--------------------------
Free energy:   -255.120798
Extrapolated:  -255.042808

Dipole-layer corrected work functions: 3.397666, 3.433198 eV

Showing only first 2 kpts
 Kpt  Band  Eigenvalues  Occupancy
  0    24     -3.66669    1.98695
  0    25     -3.57889    1.92671
  0    26     -3.26837    0.10031
  0    27     -3.16239    0.01260

  1    24     -3.43684    1.21084
  1    25     -3.40307    0.87700
  1    26     -3.38070    0.66598
  1    27     -3.36913    0.56748


Fermi level: -3.41543

No gap
Writing to output.gpw (mode='')


Forces in eV/Ang:
  0 Li    0.00483   -0.00000   -0.27116
  1 Li   -0.00376   -0.00000   -0.27324
  2 Li   -0.00165    0.00000   -0.27162
  3 Li   -0.00149   -0.00196   -0.27253
  4 Li    0.00355   -0.00203   -0.27533
  5 Li   -0.00063    0.00518   -0.27377
  6 Li   -0.00148    0.00196   -0.27253
  7 Li    0.00355    0.00204   -0.27532
  8 Li   -0.00063   -0.00519   -0.27377
  9 Li    0.00127    0.00053    0.25968
 10 Li    0.00269    0.00184    0.25840
 11 Li   -0.00269   -0.00235    0.25436
 12 Li    0.00126   -0.00053    0.25967
 13 Li    0.00271   -0.00184    0.25841
 14 Li   -0.00269    0.00234    0.25436
 15 Li   -0.00052   -0.00000    0.25654
 16 Li   -0.00576   -0.00001    0.26526
 17 Li    0.00422    0.00001    0.25900
 18 Li   -0.00217    0.00000    0.04238
 19 Li    0.00464   -0.00001    0.03839
 20 Li   -0.00301   -0.00001    0.01575
 21 Li   -0.00178   -0.00235    0.03734
 22 Li   -0.00136    0.00092    0.03353
 23 Li    0.00119   -0.00544    0.04415
 24 Li   -0.00178    0.00235    0.03734
 25 Li   -0.00136   -0.00091    0.03358
 26 Li    0.00119    0.00545    0.04416
 27 Li    0.02776   -0.02764   -0.05976
 28 Li   -0.00505    0.00517   -0.01776
 29 Li   -0.02674   -0.01586   -0.04068
 30 Li    0.02776    0.02762   -0.05964
 31 Li   -0.00508   -0.00517   -0.01762
 32 Li   -0.02679    0.01587   -0.04061
 33 Li   -0.00580    0.00000   -0.01930
 34 Li   -0.00074    0.00000   -0.01957
 35 Li    0.00787    0.00000   -0.01818
 36 B    -0.00316    0.00062    0.02184
 37 H    -0.02291   -0.00516    0.03893
 38 H     0.01343   -0.00277    0.00682
 39 H    -0.00406    0.00079    0.00795
 40 N     2.22578   -0.00300    0.03102
 41 N    -2.21117   -0.00014    0.01161

System changes: positions 

Initializing position-dependent things.

Density initialized from wave functions
       .-----------------------.  
      /|                       |  
     / |                       |  
    /  |                       |  
   /   |                       |  
  /    |                       |  
 *     |                       |  
 |     |                       |  
 |     |                       |  
 |     |            H B  H     |  
 |     |             H         |  
 |     |                       |  
 |     Li              Li      |  
 |     |              N  N     |  
 |     |     Li      Li      Li|  
 |     |  Li      Li      Li   |  
 | Li  |   Li      Li          |  
 |     |Li      Li      Li     |  
 |     | Li                    |  
 |   LLi     LLi     LLi       |  
 |     |  Li      Li      Li   |  
 | Li  |   Li      Li          |  
 |     |Li      Li      Li     |  
 Li    | Li      Li            |  
 |    Li      Li      Li       |  
 |     |                       |  
 |     |                       |  
 |     |                       |  
 |     |                       |  
 |     |                       |  
 |     |                       |  
 |     .-----------------------.  
 |    /                       /   
 |   /                       /    
 |  /                       /     
 | /                       /      
 |/                       /       
 *-----------------------*        

Positions:
   0 Li     1.617037    1.617037   10.000000    ( 0.0000,  0.0000,  0.0000)
   1 Li     4.851111    1.617037   10.000000    ( 0.0000,  0.0000,  0.0000)
   2 Li     8.085185    1.617037   10.000000    ( 0.0000,  0.0000,  0.0000)
   3 Li     1.617037    4.851111   10.000000    ( 0.0000,  0.0000,  0.0000)
   4 Li     4.851111    4.851111   10.000000    ( 0.0000,  0.0000,  0.0000)
   5 Li     8.085185    4.851111   10.000000    ( 0.0000,  0.0000,  0.0000)
   6 Li     1.617037    8.085185   10.000000    ( 0.0000,  0.0000,  0.0000)
   7 Li     4.851111    8.085185   10.000000    ( 0.0000,  0.0000,  0.0000)
   8 Li     8.085185    8.085185   10.000000    ( 0.0000,  0.0000,  0.0000)
   9 Li     0.000000    0.000000   11.617037    ( 0.0000,  0.0000,  0.0000)
  10 Li     3.234074    0.000000   11.617037    ( 0.0000,  0.0000,  0.0000)
  11 Li     6.468148    0.000000   11.617037    ( 0.0000,  0.0000,  0.0000)
  12 Li     0.000000    3.234074   11.617037    ( 0.0000,  0.0000,  0.0000)
  13 Li     3.234074    3.234074   11.617037    ( 0.0000,  0.0000,  0.0000)
  14 Li     6.468148    3.234074   11.617037    ( 0.0000,  0.0000,  0.0000)
  15 Li     0.000000    6.468148   11.617037    ( 0.0000,  0.0000,  0.0000)
  16 Li     3.234074    6.468148   11.617037    ( 0.0000,  0.0000,  0.0000)
  17 Li     6.468148    6.468148   11.617037    ( 0.0000,  0.0000,  0.0000)
  18 Li     1.616996    1.617038   13.470546    ( 0.0000,  0.0000,  0.0000)
  19 Li     4.851194    1.617038   13.470476    ( 0.0000,  0.0000,  0.0000)
  20 Li     8.085136    1.617038   13.470091    ( 0.0000,  0.0000,  0.0000)
  21 Li     1.617006    4.851064   13.470451    ( 0.0000,  0.0000,  0.0000)
  22 Li     4.851090    4.851128   13.470375    ( 0.0000,  0.0000,  0.0000)
  23 Li     8.085206    4.851003   13.470587    ( 0.0000,  0.0000,  0.0000)
  24 Li     1.617005    8.085231   13.470450    ( 0.0000,  0.0000,  0.0000)
  25 Li     4.851090    8.085166   13.470375    ( 0.0000,  0.0000,  0.0000)
  26 Li     8.085207    8.085292   13.470585    ( 0.0000,  0.0000,  0.0000)
  27 Li     0.000545   -0.000591   15.444637    ( 0.0000,  0.0000,  0.0000)
  28 Li     3.233992    0.000094   15.445581    ( 0.0000,  0.0000,  0.0000)
  29 Li     6.467639   -0.000323   15.445088    ( 0.0000,  0.0000,  0.0000)
  30 Li     0.000546    3.234664   15.444639    ( 0.0000,  0.0000,  0.0000)
  31 Li     3.233994    3.233983   15.445583    ( 0.0000,  0.0000,  0.0000)
  32 Li     6.467635    3.234400   15.445089    ( 0.0000,  0.0000,  0.0000)
  33 Li    -0.000113    6.468148   15.445575    ( 0.0000,  0.0000,  0.0000)
  34 Li     3.234056    6.468146   15.445564    ( 0.0000,  0.0000,  0.0000)
  35 Li     6.468300    6.468146   15.445594    ( 0.0000,  0.0000,  0.0000)
  36 B      8.085070    1.617616   21.446720    ( 0.0000,  0.0000,  0.0000)
  37 H      9.117119    2.209072   21.446575    ( 0.0000,  0.0000,  0.0000)
  38 H      7.055795    2.213769   21.445983    ( 0.0000,  0.0000,  0.0000)
  39 H      8.085203    0.428193   21.445998    ( 0.0000,  0.0000,  0.0000)
  40 N      8.081939    1.616945   18.446237    ( 0.0000,  0.0000,  0.0000)
  41 N      9.185520    1.616996   18.446036    ( 0.0000,  0.0000,  0.0000)

Unit cell:
           periodic     x           y           z      points  spacing
  1. axis:    yes    9.702222    0.000000    0.000000    60     0.1617
  2. axis:    yes    0.000000    9.702222    0.000000    60     0.1617
  3. axis:    no     0.000000    0.000000   24.851111   156     0.1593

  Lengths:   9.702222   9.702222  24.851111
  Angles:   90.000000  90.000000  90.000000

Effective grid spacing dv^(1/3) = 0.1609

     iter     time        total  log10-change:
                         energy  eigst   dens
iter:   1 05:21:44  -255.191144  -1.52
iter:   2 05:22:31  -255.099704  -0.90  -1.53
iter:   3 05:23:18  -255.084244  -1.68  -1.78
iter:   4 05:24:06  -255.069076  -1.15  -2.05
Writing to output.gpw (mode='')

iter:   5 05:24:54  -255.071848c -1.64  -2.05
iter:   6 05:25:42  -255.074470c -1.47  -2.14
iter:   7 05:26:29  -255.063366c -1.98  -2.12
iter:   8 05:27:17  -255.063756c -2.59  -2.59
iter:   9 05:28:04  -255.063853c -3.07  -2.68
Writing to output.gpw (mode='')

iter:  10 05:28:53  -255.063620c -2.86  -2.89
iter:  11 05:29:41  -255.063652c -3.26  -2.93
iter:  12 05:30:28  -255.063647c -3.16  -3.01
iter:  13 05:31:15  -255.063621c -3.44  -3.17
iter:  14 05:32:02  -255.063666c -3.55  -3.25
Writing to output.gpw (mode='')

iter:  15 05:32:53  -255.063771c -3.67  -3.31
iter:  16 05:33:40  -255.063741c -3.82  -3.52
iter:  17 05:34:28  -255.063752c -3.91  -3.56
iter:  18 05:35:15  -255.063781c -3.95  -3.58
iter:  19 05:36:02  -255.063775c -4.00  -3.70
Writing to output.gpw (mode='')

iter:  20 05:36:51  -255.063791c -4.12  -3.71
iter:  21 05:37:39  -255.063813c -4.21  -3.95
iter:  22 05:38:26  -255.063814c -4.33  -4.05c
iter:  23 05:39:14  -255.063828c -4.29  -4.13c
iter:  24 05:40:01  -255.063835c -4.35  -4.43c
Writing to output.gpw (mode='')

iter:  25 05:40:50  -255.063838c -4.46  -4.40c
iter:  26 05:41:37  -255.063840c -4.52  -4.28c
iter:  27 05:42:24  -255.063845c -4.55  -4.28c
iter:  28 05:43:12  -255.063848c -4.62  -4.31c
iter:  29 05:43:59  -255.063854c -4.58  -4.24c
Writing to output.gpw (mode='')

iter:  30 05:44:48  -255.063858c -4.66  -4.24c
iter:  31 05:45:35  -255.063861c -4.78  -4.23c
iter:  32 05:46:22  -255.063863c -4.81  -4.21c
iter:  33 05:47:10  -255.063867c -4.89  -4.20c
iter:  34 05:47:57  -255.063869c -4.84  -4.17c
Writing to output.gpw (mode='')

iter:  35 05:48:46  -255.063870c -4.99  -4.13c
iter:  36 05:49:33  -255.063871c -5.07  -4.11c
iter:  37 05:50:21  -255.063876c -4.97  -4.15c
iter:  38 05:51:08  -255.063875c -5.15  -4.16c
iter:  39 05:51:55  -255.063887c -4.87  -4.13c
Writing to output.gpw (mode='')

iter:  40 05:52:44  -255.063884c -5.15  -4.06c
iter:  41 05:53:32  -255.063885c -5.26  -4.08c
iter:  42 05:54:19  -255.063891c -4.95  -4.10c
iter:  43 05:55:06  -255.063895c -5.29  -4.03c
iter:  44 05:55:54  -255.063899c -5.31  -3.89
Writing to output.gpw (mode='')

iter:  45 05:56:43  -255.063902c -5.03  -3.98
iter:  46 05:57:30  -255.063907c -5.00  -4.00c
iter:  47 05:58:17  -255.063909c -5.55  -4.20c
iter:  48 05:59:04  -255.063911c -5.46  -4.24c
iter:  49 05:59:52  -255.063917c -5.21  -4.31c
Writing to output.gpw (mode='')

iter:  50 06:00:41  -255.063917c -5.36  -4.45c
iter:  51 06:01:28  -255.063917c -5.54  -4.47c
iter:  52 06:02:15  -255.063914c -5.80  -4.51c
iter:  53 06:03:03  -255.063915c -5.88  -4.61c
iter:  54 06:03:50  -255.063916c -5.64  -4.64c
Writing to output.gpw (mode='')

iter:  55 06:04:39  -255.063915c -6.04  -4.75c
iter:  56 06:05:26  -255.063916c -5.91  -4.82c
iter:  57 06:06:13  -255.063917c -6.17  -5.15c
iter:  58 06:07:00  -255.063917c -6.14  -5.12c
iter:  59 06:07:48  -255.063918c -6.08  -5.20c
Writing to output.gpw (mode='')

iter:  60 06:08:37  -255.063918c -6.14  -5.41c
iter:  61 06:09:24  -255.063918c -6.25  -5.49c
iter:  62 06:10:11  -255.063918c -6.40  -5.53c
iter:  63 06:10:59  -255.063918c -6.35  -5.51c
iter:  64 06:11:46  -255.063918c -6.55  -5.45c
Writing to output.gpw (mode='')

iter:  65 06:12:35  -255.063918c -6.48  -5.43c
iter:  66 06:13:22  -255.063918c -6.53  -5.39c
iter:  67 06:14:09  -255.063918c -6.53  -5.44c
iter:  68 06:14:57  -255.063918c -6.77  -5.43c
iter:  69 06:15:44  -255.063918c -6.68  -5.40c
Writing to output.gpw (mode='')

iter:  70 06:16:33  -255.063918c -6.52  -5.37c
iter:  71 06:17:21  -255.063918c -6.72  -5.35c
iter:  72 06:18:08  -255.063918c -6.72  -5.32c
iter:  73 06:18:55  -255.063918c -6.54  -5.29c
iter:  74 06:19:42  -255.063919c -6.40  -5.33c
Writing to output.gpw (mode='')

iter:  75 06:20:32  -255.063919c -6.46  -5.38c
iter:  76 06:21:19  -255.063919c -6.66  -5.39c
iter:  77 06:22:06  -255.063922c -6.83  -5.40c
iter:  78 06:22:54  -255.063919c -7.00  -5.31c
iter:  79 06:23:41  -255.063920c -7.21  -5.45c
Writing to output.gpw (mode='')

iter:  80 06:24:30  -255.063920c -6.97  -5.45c
iter:  81 06:25:17  -255.063921c -6.97  -5.56c
iter:  82 06:26:04  -255.063920c -7.14  -5.54c
iter:  83 06:26:52  -255.063920c -7.07  -5.42c
iter:  84 06:27:39  -255.063920c -7.40c -5.56c

Converged after 84 iterations.

Dipole moment: (5.772665, -4.376523, 0.003596) |e|*Ang

Energy contributions relative to reference atoms: (reference = -10970.764591)

Kinetic:       +112.533486
Potential:     -106.253851
External:        +0.000000
XC:            -261.570164
Entropy (-ST):   -0.155456
Local:           +0.304337
--------------------------
Free energy:   -255.141648
Extrapolated:  -255.063920

Dipole-layer corrected work functions: 3.396488, 3.389576 eV

Showing only first 2 kpts
 Kpt  Band  Eigenvalues  Occupancy
  0    24     -3.64440    1.98697
  0    25     -3.55718    1.92768
  0    26     -3.24190    0.09283
  0    27     -3.13966    0.01252

  1    24     -3.41315    1.19851
  1    25     -3.38263    0.89636
  1    26     -3.35779    0.66148
  1    27     -3.34697    0.56941


Fermi level: -3.39303

No gap
Writing to output.gpw (mode='')


Forces in eV/Ang:
  0 Li    0.00467   -0.00000   -0.27136
  1 Li   -0.00367   -0.00000   -0.27325
  2 Li   -0.00154    0.00000   -0.27149
  3 Li   -0.00149   -0.00191   -0.27261
  4 Li    0.00319   -0.00213   -0.27515
  5 Li   -0.00048    0.00479   -0.27356
  6 Li   -0.00149    0.00191   -0.27261
  7 Li    0.00319    0.00213   -0.27514
  8 Li   -0.00048   -0.00480   -0.27356
  9 Li    0.00122    0.00046    0.25950
 10 Li    0.00260    0.00169    0.25841
 11 Li   -0.00270   -0.00219    0.25474
 12 Li    0.00121   -0.00046    0.25949
 13 Li    0.00262   -0.00168    0.25842
 14 Li   -0.00269    0.00218    0.25474
 15 Li   -0.00074   -0.00000    0.25711
 16 Li   -0.00527   -0.00001    0.26550
 17 Li    0.00428    0.00001    0.25958
 18 Li   -0.00203    0.00000    0.04190
 19 Li    0.00423   -0.00001    0.03831
 20 Li   -0.00256   -0.00001    0.01836
 21 Li   -0.00151   -0.00221    0.03701
 22 Li   -0.00123    0.00103    0.03312
 23 Li    0.00110   -0.00545    0.04400
 24 Li   -0.00151    0.00221    0.03701
 25 Li   -0.00123   -0.00102    0.03317
 26 Li    0.00110    0.00545    0.04401
 27 Li    0.02838   -0.03058   -0.06739
 28 Li   -0.00434    0.00493   -0.01833
 29 Li   -0.02664   -0.01681   -0.04402
 30 Li    0.02839    0.03056   -0.06729
 31 Li   -0.00437   -0.00493   -0.01819
 32 Li   -0.02669    0.01682   -0.04396
 33 Li   -0.00584    0.00000   -0.01874
 34 Li   -0.00107   -0.00000   -0.01927
 35 Li    0.00803    0.00001   -0.01773
 36 B    -0.00470   -0.00147    0.03595
 37 H    -0.02051   -0.00398    0.03582
 38 H     0.01258   -0.00246    0.00438
 39 H    -0.00380    0.00154    0.00510
 40 N     0.13129   -0.00245    0.01019
 41 N    -0.04579   -0.00012    0.00835

System changes: positions 

Initializing position-dependent things.

Density initialized from wave functions
       .-----------------------.  
      /|                       |  
     / |                       |  
    /  |                       |  
   /   |                       |  
  /    |                       |  
 *     |                       |  
 |     |                       |  
 |     |                       |  
 |     |            H B  H     |  
 |     |             H         |  
 |     |                       |  
 |     Li              Li      |  
 |     |              N  N     |  
 |     |     Li      Li      Li|  
 |     |  Li      Li      Li   |  
 | Li  |   Li      Li          |  
 |     |Li      Li      Li     |  
 |     | Li                    |  
 |   LLi     LLi     LLi       |  
 |     |  Li      Li      Li   |  
 | Li  |   Li      Li          |  
 |     |Li      Li      Li     |  
 Li    | Li      Li            |  
 |    Li      Li      Li       |  
 |     |                       |  
 |     |                       |  
 |     |                       |  
 |     |                       |  
 |     |                       |  
 |     |                       |  
 |     .-----------------------.  
 |    /                       /   
 |   /                       /    
 |  /                       /     
 | /                       /      
 |/                       /       
 *-----------------------*        

Positions:
   0 Li     1.617037    1.617037   10.000000    ( 0.0000,  0.0000,  0.0000)
   1 Li     4.851111    1.617037   10.000000    ( 0.0000,  0.0000,  0.0000)
   2 Li     8.085185    1.617037   10.000000    ( 0.0000,  0.0000,  0.0000)
   3 Li     1.617037    4.851111   10.000000    ( 0.0000,  0.0000,  0.0000)
   4 Li     4.851111    4.851111   10.000000    ( 0.0000,  0.0000,  0.0000)
   5 Li     8.085185    4.851111   10.000000    ( 0.0000,  0.0000,  0.0000)
   6 Li     1.617037    8.085185   10.000000    ( 0.0000,  0.0000,  0.0000)
   7 Li     4.851111    8.085185   10.000000    ( 0.0000,  0.0000,  0.0000)
   8 Li     8.085185    8.085185   10.000000    ( 0.0000,  0.0000,  0.0000)
   9 Li     0.000000    0.000000   11.617037    ( 0.0000,  0.0000,  0.0000)
  10 Li     3.234074    0.000000   11.617037    ( 0.0000,  0.0000,  0.0000)
  11 Li     6.468148    0.000000   11.617037    ( 0.0000,  0.0000,  0.0000)
  12 Li     0.000000    3.234074   11.617037    ( 0.0000,  0.0000,  0.0000)
  13 Li     3.234074    3.234074   11.617037    ( 0.0000,  0.0000,  0.0000)
  14 Li     6.468148    3.234074   11.617037    ( 0.0000,  0.0000,  0.0000)
  15 Li     0.000000    6.468148   11.617037    ( 0.0000,  0.0000,  0.0000)
  16 Li     3.234074    6.468148   11.617037    ( 0.0000,  0.0000,  0.0000)
  17 Li     6.468148    6.468148   11.617037    ( 0.0000,  0.0000,  0.0000)
  18 Li     1.616965    1.617038   13.471180    ( 0.0000,  0.0000,  0.0000)
  19 Li     4.851258    1.617038   13.471055    ( 0.0000,  0.0000,  0.0000)
  20 Li     8.085098    1.617038   13.470370    ( 0.0000,  0.0000,  0.0000)
  21 Li     1.616983    4.851031   13.471011    ( 0.0000,  0.0000,  0.0000)
  22 Li     4.851072    4.851144   13.470875    ( 0.0000,  0.0000,  0.0000)
  23 Li     8.085223    4.850921   13.471252    ( 0.0000,  0.0000,  0.0000)
  24 Li     1.616982    8.085264   13.471009    ( 0.0000,  0.0000,  0.0000)
  25 Li     4.851072    8.085151   13.470876    ( 0.0000,  0.0000,  0.0000)
  26 Li     8.085223    8.085374   13.471251    ( 0.0000,  0.0000,  0.0000)
  27 Li     0.000975   -0.001054   15.443616    ( 0.0000,  0.0000,  0.0000)
  28 Li     3.233926    0.000168   15.445304    ( 0.0000,  0.0000,  0.0000)
  29 Li     6.467236   -0.000577   15.444422    ( 0.0000,  0.0000,  0.0000)
  30 Li     0.000975    3.235128   15.443619    ( 0.0000,  0.0000,  0.0000)
  31 Li     3.233928    3.233908   15.445308    ( 0.0000,  0.0000,  0.0000)
  32 Li     6.467232    3.234654   15.444423    ( 0.0000,  0.0000,  0.0000)
  33 Li    -0.000201    6.468148   15.445292    ( 0.0000,  0.0000,  0.0000)
  34 Li     3.234040    6.468145   15.445273    ( 0.0000,  0.0000,  0.0000)
  35 Li     6.468421    6.468146   15.445326    ( 0.0000,  0.0000,  0.0000)
  36 B      8.084998    1.617610   21.447271    ( 0.0000,  0.0000,  0.0000)
  37 H      9.116803    2.209007   21.447114    ( 0.0000,  0.0000,  0.0000)
  38 H      7.055993    2.213727   21.446047    ( 0.0000,  0.0000,  0.0000)
  39 H      8.085146    0.428209   21.446073    ( 0.0000,  0.0000,  0.0000)
  40 N      8.083004    1.616908   18.446386    ( 0.0000,  0.0000,  0.0000)
  41 N      9.185751    1.616994   18.446159    ( 0.0000,  0.0000,  0.0000)

Unit cell:
           periodic     x           y           z      points  spacing
  1. axis:    yes    9.702222    0.000000    0.000000    60     0.1617
  2. axis:    yes    0.000000    9.702222    0.000000    60     0.1617
  3. axis:    no     0.000000    0.000000   24.851111   156     0.1593

  Lengths:   9.702222   9.702222  24.851111
  Angles:   90.000000  90.000000  90.000000

Effective grid spacing dv^(1/3) = 0.1609

     iter     time        total  log10-change:
                         energy  eigst   dens
iter:   1 06:28:48  -255.066674  -2.74
iter:   2 06:29:35  -255.064666  -3.25  -2.40
iter:   3 06:30:23  -255.064614c -4.45  -2.88
iter:   4 06:31:10  -255.064551c -4.09  -3.46
Writing to output.gpw (mode='')

iter:   5 06:31:59  -255.064529c -4.34  -3.44
iter:   6 06:32:46  -255.064577c -4.33  -3.64
iter:   7 06:33:34  -255.064540c -4.78  -3.87
iter:   8 06:34:21  -255.064541c -4.89  -3.99
iter:   9 06:35:08  -255.064558c -5.33  -4.17c
Writing to output.gpw (mode='')

iter:  10 06:35:57  -255.064554c -5.85  -4.22c
iter:  11 06:36:45  -255.064555c -5.86  -4.31c
iter:  12 06:37:32  -255.064554c -5.78  -4.35c
iter:  13 06:38:19  -255.064555c -6.14  -4.45c
iter:  14 06:39:07  -255.064557c -6.01  -4.51c
Writing to output.gpw (mode='')

iter:  15 06:39:56  -255.064557c -6.12  -4.56c
iter:  16 06:40:43  -255.064557c -6.60  -4.68c
iter:  17 06:41:31  -255.064558c -6.94  -4.72c
iter:  18 06:42:18  -255.064557c -6.80  -4.91c
iter:  19 06:43:06  -255.064557c -6.88  -5.16c
Writing to output.gpw (mode='')

iter:  20 06:43:55  -255.064558c -7.08  -5.28c
iter:  21 06:44:42  -255.064558c -7.31  -5.31c
iter:  22 06:45:29  -255.064558c -7.22  -5.52c
iter:  23 06:46:17  -255.064558c -7.49c -5.58c

Converged after 23 iterations.

Dipole moment: (5.768065, -4.368957, 0.004792) |e|*Ang

Energy contributions relative to reference atoms: (reference = -10970.764591)

Kinetic:       +112.694300
Potential:     -106.381405
External:        +0.000000
XC:            -261.604161
Entropy (-ST):   -0.155420
Local:           +0.304418
--------------------------
Free energy:   -255.142268
Extrapolated:  -255.064558

Dipole-layer corrected work functions: 3.396450, 3.387239 eV

Showing only first 2 kpts
 Kpt  Band  Eigenvalues  Occupancy
  0    24     -3.64315    1.98696
  0    25     -3.55608    1.92780
  0    26     -3.24035    0.09218
  0    27     -3.13838    0.01249

  1    24     -3.41176    1.19659
  1    25     -3.38143    0.89619
  1    26     -3.35676    0.66285
  1    27     -3.34593    0.57062


Fermi level: -3.39184

No gap
Writing to output.gpw (mode='')


Forces in eV/Ang:
  0 Li    0.00467   -0.00000   -0.27147
  1 Li   -0.00367   -0.00000   -0.27332
  2 Li   -0.00155    0.00000   -0.27159
  3 Li   -0.00151   -0.00191   -0.27268
  4 Li    0.00317   -0.00213   -0.27520
  5 Li   -0.00046    0.00479   -0.27364
  6 Li   -0.00150    0.00191   -0.27268
  7 Li    0.00317    0.00214   -0.27520
  8 Li   -0.00046   -0.00479   -0.27363
  9 Li    0.00127    0.00041    0.26003
 10 Li    0.00257    0.00170    0.25891
 11 Li   -0.00274   -0.00226    0.25525
 12 Li    0.00126   -0.00040    0.26002
 13 Li    0.00259   -0.00169    0.25893
 14 Li   -0.00274    0.00225    0.25526
 15 Li   -0.00080   -0.00000    0.25770
 16 Li   -0.00528   -0.00001    0.26595
 17 Li    0.00435    0.00001    0.26014
 18 Li   -0.00180    0.00000    0.04031
 19 Li    0.00396   -0.00001    0.03702
 20 Li   -0.00252   -0.00001    0.01773
 21 Li   -0.00127   -0.00194    0.03567
 22 Li   -0.00133    0.00113    0.03201
 23 Li    0.00099   -0.00519    0.04249
 24 Li   -0.00127    0.00194    0.03567
 25 Li   -0.00133   -0.00113    0.03205
 26 Li    0.00100    0.00520    0.04250
 27 Li    0.02783   -0.03010   -0.06643
 28 Li   -0.00420    0.00482   -0.01780
 29 Li   -0.02614   -0.01653   -0.04318
 30 Li    0.02784    0.03009   -0.06634
 31 Li   -0.00423   -0.00482   -0.01766
 32 Li   -0.02619    0.01654   -0.04313
 33 Li   -0.00569    0.00000   -0.01813
 34 Li   -0.00109   -0.00000   -0.01868
 35 Li    0.00788    0.00000   -0.01716
 36 B    -0.00447   -0.00595    0.03309
 37 H    -0.01569   -0.00112    0.03707
 38 H     0.00721    0.00004    0.00564
 39 H    -0.00388    0.00101    0.00622
 40 N     0.01403   -0.00204    0.00823
 41 N     0.06119   -0.00014    0.00926

System changes: positions 

Initializing position-dependent things.

Density initialized from wave functions
       .-----------------------.  
      /|                       |  
     / |                       |  
    /  |                       |  
   /   |                       |  
  /    |                       |  
 *     |                       |  
 |     |                       |  
 |     |                       |  
 |     |            H B  H     |  
 |     |             H         |  
 |     |                       |  
 |     Li              Li      |  
 |     |              N  N     |  
 |     |     Li      Li      Li|  
 |     |  Li      Li      Li   |  
 | Li  |   Li      Li          |  
 |     |Li      Li      Li     |  
 |     | Li                    |  
 |   LLi     LLi     LLi       |  
 |     |  Li      Li      Li   |  
 | Li  |   Li      Li          |  
 |     |Li      Li      Li     |  
 Li    | Li      Li            |  
 |    Li      Li      Li       |  
 |     |                       |  
 |     |                       |  
 |     |                       |  
 |     |                       |  
 |     |                       |  
 |     |                       |  
 |     .-----------------------.  
 |    /                       /   
 |   /                       /    
 |  /                       /     
 | /                       /      
 |/                       /       
 *-----------------------*        

Positions:
   0 Li     1.617037    1.617037   10.000000    ( 0.0000,  0.0000,  0.0000)
   1 Li     4.851111    1.617037   10.000000    ( 0.0000,  0.0000,  0.0000)
   2 Li     8.085185    1.617037   10.000000    ( 0.0000,  0.0000,  0.0000)
   3 Li     1.617037    4.851111   10.000000    ( 0.0000,  0.0000,  0.0000)
   4 Li     4.851111    4.851111   10.000000    ( 0.0000,  0.0000,  0.0000)
   5 Li     8.085185    4.851111   10.000000    ( 0.0000,  0.0000,  0.0000)
   6 Li     1.617037    8.085185   10.000000    ( 0.0000,  0.0000,  0.0000)
   7 Li     4.851111    8.085185   10.000000    ( 0.0000,  0.0000,  0.0000)
   8 Li     8.085185    8.085185   10.000000    ( 0.0000,  0.0000,  0.0000)
   9 Li     0.000000    0.000000   11.617037    ( 0.0000,  0.0000,  0.0000)
  10 Li     3.234074    0.000000   11.617037    ( 0.0000,  0.0000,  0.0000)
  11 Li     6.468148    0.000000   11.617037    ( 0.0000,  0.0000,  0.0000)
  12 Li     0.000000    3.234074   11.617037    ( 0.0000,  0.0000,  0.0000)
  13 Li     3.234074    3.234074   11.617037    ( 0.0000,  0.0000,  0.0000)
  14 Li     6.468148    3.234074   11.617037    ( 0.0000,  0.0000,  0.0000)
  15 Li     0.000000    6.468148   11.617037    ( 0.0000,  0.0000,  0.0000)
  16 Li     3.234074    6.468148   11.617037    ( 0.0000,  0.0000,  0.0000)
  17 Li     6.468148    6.468148   11.617037    ( 0.0000,  0.0000,  0.0000)
  18 Li     1.616672    1.617039   13.477459    ( 0.0000,  0.0000,  0.0000)
  19 Li     4.851883    1.617037   13.476809    ( 0.0000,  0.0000,  0.0000)
  20 Li     8.084710    1.617037   13.473129    ( 0.0000,  0.0000,  0.0000)
  21 Li     1.616771    4.850714   13.476562    ( 0.0000,  0.0000,  0.0000)
  22 Li     4.850876    4.851309   13.475850    ( 0.0000,  0.0000,  0.0000)
  23 Li     8.085383    4.850108   13.477859    ( 0.0000,  0.0000,  0.0000)
  24 Li     1.616771    8.085580   13.476561    ( 0.0000,  0.0000,  0.0000)
  25 Li     4.850876    8.084987   13.475858    ( 0.0000,  0.0000,  0.0000)
  26 Li     8.085384    8.086188   13.477859    ( 0.0000,  0.0000,  0.0000)
  27 Li     0.005270   -0.005694   15.433382    ( 0.0000,  0.0000,  0.0000)
  28 Li     3.233275    0.000913   15.442543    ( 0.0000,  0.0000,  0.0000)
  29 Li     6.463204   -0.003125   15.437755    ( 0.0000,  0.0000,  0.0000)
  30 Li     0.005272    3.239765   15.433399    ( 0.0000,  0.0000,  0.0000)
  31 Li     3.233272    3.233164   15.442568    ( 0.0000,  0.0000,  0.0000)
  32 Li     6.463192    3.237204   15.437765    ( 0.0000,  0.0000,  0.0000)
  33 Li    -0.001083    6.468149   15.442476    ( 0.0000,  0.0000,  0.0000)
  34 Li     3.233875    6.468145   15.442374    ( 0.0000,  0.0000,  0.0000)
  35 Li     6.469638    6.468146   15.442661    ( 0.0000,  0.0000,  0.0000)
  36 B      8.084291    1.617174   21.452564    ( 0.0000,  0.0000,  0.0000)
  37 H      9.114004    2.208591   21.452682    ( 0.0000,  0.0000,  0.0000)
  38 H      7.057543    2.213511   21.446809    ( 0.0000,  0.0000,  0.0000)
  39 H      8.084559    0.428328   21.446935    ( 0.0000,  0.0000,  0.0000)
  40 N      8.090587    1.616566   18.447797    ( 0.0000,  0.0000,  0.0000)
  41 N      9.190211    1.616974   18.447493    ( 0.0000,  0.0000,  0.0000)

Unit cell:
           periodic     x           y           z      points  spacing
  1. axis:    yes    9.702222    0.000000    0.000000    60     0.1617
  2. axis:    yes    0.000000    9.702222    0.000000    60     0.1617
  3. axis:    no     0.000000    0.000000   24.851111   156     0.1593

  Lengths:   9.702222   9.702222  24.851111
  Angles:   90.000000  90.000000  90.000000

Effective grid spacing dv^(1/3) = 0.1609

     iter     time        total  log10-change:
                         energy  eigst   dens
iter:   1 06:47:25  -255.165367  -0.99
iter:   2 06:48:13  -255.074138  -1.69  -1.52
iter:   3 06:49:00  -255.068684  -2.80  -2.10
iter:   4 06:49:48  -255.068554c -2.98  -2.56
Writing to output.gpw (mode='')

iter:   5 06:50:36  -255.068513c -2.62  -2.65
iter:   6 06:51:24  -255.068523c -3.17  -2.98
iter:   7 06:52:11  -255.068627c -3.26  -2.98
iter:   8 06:52:58  -255.068605c -3.20  -2.93
iter:   9 06:53:46  -255.068580c -3.71  -3.17
Writing to output.gpw (mode='')

iter:  10 06:54:35  -255.068593c -3.78  -3.33
iter:  11 06:55:22  -255.068600c -3.97  -3.53
iter:  12 06:56:09  -255.068608c -4.36  -3.58
iter:  13 06:56:56  -255.068627c -4.50  -3.63
iter:  14 06:57:44  -255.068627c -4.22  -3.73
Writing to output.gpw (mode='')

iter:  15 06:58:33  -255.068638c -4.84  -3.81
iter:  16 06:59:20  -255.068643c -4.74  -3.88
iter:  17 07:00:07  -255.068647c -4.68  -3.88
iter:  18 07:00:55  -255.068649c -4.99  -3.91
iter:  19 07:01:42  -255.068648c -4.78  -3.87
Writing to output.gpw (mode='')

iter:  20 07:02:31  -255.068652c -5.38  -3.71
iter:  21 07:03:18  -255.068650c -5.10  -3.78
iter:  22 07:04:06  -255.068652c -5.09  -3.65
iter:  23 07:04:53  -255.068653c -5.22  -3.67
iter:  24 07:05:41  -255.068655c -5.54  -3.64
Writing to output.gpw (mode='')

iter:  25 07:06:30  -255.068655c -5.54  -3.71
iter:  26 07:07:17  -255.068659c -5.43  -3.75
iter:  27 07:08:05  -255.068662c -5.62  -3.74
iter:  28 07:08:52  -255.068667c -5.50  -3.86
iter:  29 07:09:39  -255.068663c -5.74  -3.90
Writing to output.gpw (mode='')

iter:  30 07:10:28  -255.068664c -5.81  -3.89
iter:  31 07:11:15  -255.068663c -6.35  -3.91
iter:  32 07:12:03  -255.068661c -5.89  -3.94
iter:  33 07:12:50  -255.068657c -5.81  -4.15c
iter:  34 07:13:37  -255.068657c -6.13  -4.24c
Writing to output.gpw (mode='')

iter:  35 07:14:26  -255.068657c -6.10  -4.29c
iter:  36 07:15:13  -255.068657c -6.47  -4.40c
iter:  37 07:16:01  -255.068656c -6.63  -4.52c
iter:  38 07:16:48  -255.068655c -6.74  -4.65c
iter:  39 07:17:35  -255.068655c -6.84  -4.79c
Writing to output.gpw (mode='')

iter:  40 07:18:24  -255.068655c -6.98  -4.87c
iter:  41 07:19:12  -255.068655c -7.11  -4.99c
iter:  42 07:19:59  -255.068655c -6.97  -5.05c
iter:  43 07:20:46  -255.068655c -7.28  -5.17c
iter:  44 07:21:34  -255.068655c -7.25  -5.23c
Writing to output.gpw (mode='')

iter:  45 07:22:22  -255.068655c -7.37  -5.34c
iter:  46 07:23:10  -255.068655c -7.47c -5.52c

Converged after 46 iterations.

Dipole moment: (5.771686, -4.285008, 0.009565) |e|*Ang

Energy contributions relative to reference atoms: (reference = -10970.764591)

Kinetic:       +113.452623
Potential:     -106.972798
External:        +0.000000
XC:            -261.775263
Entropy (-ST):   -0.155216
Local:           +0.304391
--------------------------
Free energy:   -255.146263
Extrapolated:  -255.068655

Dipole-layer corrected work functions: 3.395970, 3.377583 eV

Showing only first 2 kpts
 Kpt  Band  Eigenvalues  Occupancy
  0    24     -3.63738    1.98677
  0    25     -3.55161    1.92863
  0    26     -3.23291    0.08811
  0    27     -3.13244    0.01228

  1    24     -3.40515    1.18170
  1    25     -3.37565    0.88915
  1    26     -3.35339    0.67800
  1    27     -3.34220    0.58156


Fermi level: -3.38678

No gap
Writing to output.gpw (mode='')


Forces in eV/Ang:
  0 Li    0.00476   -0.00000   -0.27228
  1 Li   -0.00372   -0.00000   -0.27384
  2 Li   -0.00159    0.00000   -0.27251
  3 Li   -0.00161   -0.00195   -0.27326
  4 Li    0.00312   -0.00223   -0.27562
  5 Li   -0.00034    0.00478   -0.27426
  6 Li   -0.00160    0.00195   -0.27326
  7 Li    0.00312    0.00224   -0.27562
  8 Li   -0.00034   -0.00478   -0.27425
  9 Li    0.00181   -0.00004    0.26544
 10 Li    0.00240    0.00191    0.26401
 11 Li   -0.00322   -0.00298    0.26025
 12 Li    0.00180    0.00005    0.26543
 13 Li    0.00241   -0.00191    0.26403
 14 Li   -0.00321    0.00297    0.26025
 15 Li   -0.00130   -0.00000    0.26352
 16 Li   -0.00553   -0.00000    0.27047
 17 Li    0.00499    0.00001    0.26564
 18 Li    0.00051    0.00000    0.02454
 19 Li    0.00147   -0.00000    0.02397
 20 Li   -0.00230    0.00000    0.01062
 21 Li    0.00116    0.00076    0.02233
 22 Li   -0.00234    0.00219    0.02092
 23 Li   -0.00011   -0.00260    0.02743
 24 Li    0.00116   -0.00077    0.02233
 25 Li   -0.00234   -0.00219    0.02094
 26 Li   -0.00011    0.00260    0.02743
 27 Li    0.02225   -0.02446   -0.05451
 28 Li   -0.00310    0.00381   -0.01207
 29 Li   -0.02122   -0.01358   -0.03380
 30 Li    0.02226    0.02445   -0.05442
 31 Li   -0.00312   -0.00381   -0.01196
 32 Li   -0.02127    0.01359   -0.03379
 33 Li   -0.00410    0.00000   -0.01198
 34 Li   -0.00124   -0.00000   -0.01260
 35 Li    0.00627    0.00000   -0.01147
 36 B    -0.00317   -0.02748   -0.00031
 37 H     0.02257    0.01914    0.04716
 38 H    -0.03389    0.01673    0.01681
 39 H    -0.00450   -0.01170    0.01646
 40 N    -0.44025    0.00016    0.00460
 41 N     0.42642    0.00023    0.01684

System changes: positions 

Initializing position-dependent things.

Density initialized from wave functions
       .-----------------------.  
      /|                       |  
     / |                       |  
    /  |                       |  
   /   |                       |  
  /    |                       |  
 *     |                       |  
 |     |                       |  
 |     |                       |  
 |     |            H B  H     |  
 |     |             H         |  
 |     |                       |  
 |     Li              Li      |  
 |     |              N  N     |  
 |     |     Li      Li      Li|  
 |     |  Li      Li      Li   |  
 | Li  |   Li      Li          |  
 |     |Li      Li      Li     |  
 |     | Li                    |  
 |   LLi     LLi     LLi       |  
 |     |  Li      Li      Li   |  
 | Li  |   Li      Li          |  
 |     |Li      Li      Li     |  
 Li    | Li      Li            |  
 |    Li      Li      Li       |  
 |     |                       |  
 |     |                       |  
 |     |                       |  
 |     |                       |  
 |     |                       |  
 |     |                       |  
 |     .-----------------------.  
 |    /                       /   
 |   /                       /    
 |  /                       /     
 | /                       /      
 |/                       /       
 *-----------------------*        

Positions:
   0 Li     1.617037    1.617037   10.000000    ( 0.0000,  0.0000,  0.0000)
   1 Li     4.851111    1.617037   10.000000    ( 0.0000,  0.0000,  0.0000)
   2 Li     8.085185    1.617037   10.000000    ( 0.0000,  0.0000,  0.0000)
   3 Li     1.617037    4.851111   10.000000    ( 0.0000,  0.0000,  0.0000)
   4 Li     4.851111    4.851111   10.000000    ( 0.0000,  0.0000,  0.0000)
   5 Li     8.085185    4.851111   10.000000    ( 0.0000,  0.0000,  0.0000)
   6 Li     1.617037    8.085185   10.000000    ( 0.0000,  0.0000,  0.0000)
   7 Li     4.851111    8.085185   10.000000    ( 0.0000,  0.0000,  0.0000)
   8 Li     8.085185    8.085185   10.000000    ( 0.0000,  0.0000,  0.0000)
   9 Li     0.000000    0.000000   11.617037    ( 0.0000,  0.0000,  0.0000)
  10 Li     3.234074    0.000000   11.617037    ( 0.0000,  0.0000,  0.0000)
  11 Li     6.468148    0.000000   11.617037    ( 0.0000,  0.0000,  0.0000)
  12 Li     0.000000    3.234074   11.617037    ( 0.0000,  0.0000,  0.0000)
  13 Li     3.234074    3.234074   11.617037    ( 0.0000,  0.0000,  0.0000)
  14 Li     6.468148    3.234074   11.617037    ( 0.0000,  0.0000,  0.0000)
  15 Li     0.000000    6.468148   11.617037    ( 0.0000,  0.0000,  0.0000)
  16 Li     3.234074    6.468148   11.617037    ( 0.0000,  0.0000,  0.0000)
  17 Li     6.468148    6.468148   11.617037    ( 0.0000,  0.0000,  0.0000)
  18 Li     1.616376    1.617039   13.484527    ( 0.0000,  0.0000,  0.0000)
  19 Li     4.852569    1.617036   13.483314    ( 0.0000,  0.0000,  0.0000)
  20 Li     8.084257    1.617036   13.476223    ( 0.0000,  0.0000,  0.0000)
  21 Li     1.616572    4.850397   13.482822    ( 0.0000,  0.0000,  0.0000)
  22 Li     4.850624    4.851526   13.481479    ( 0.0000,  0.0000,  0.0000)
  23 Li     8.085548    4.849206   13.485327    ( 0.0000,  0.0000,  0.0000)
  24 Li     1.616571    8.085897   13.482822    ( 0.0000,  0.0000,  0.0000)
  25 Li     4.850624    8.084771   13.481494    ( 0.0000,  0.0000,  0.0000)
  26 Li     8.085549    8.087092   13.485327    ( 0.0000,  0.0000,  0.0000)
  27 Li     0.010210   -0.011031   15.421605    ( 0.0000,  0.0000,  0.0000)
  28 Li     3.232528    0.001769   15.439413    ( 0.0000,  0.0000,  0.0000)
  29 Li     6.458559   -0.006061   15.430112    ( 0.0000,  0.0000,  0.0000)
  30 Li     0.010214    3.245099   15.421639    ( 0.0000,  0.0000,  0.0000)
  31 Li     3.232520    3.232308   15.439462    ( 0.0000,  0.0000,  0.0000)
  32 Li     6.458538    3.240142   15.430130    ( 0.0000,  0.0000,  0.0000)
  33 Li    -0.002087    6.468149   15.439287    ( 0.0000,  0.0000,  0.0000)
  34 Li     3.233679    6.468145   15.439087    ( 0.0000,  0.0000,  0.0000)
  35 Li     6.471035    6.468147   15.439640    ( 0.0000,  0.0000,  0.0000)
  36 B      8.083485    1.616297   21.458061    ( 0.0000,  0.0000,  0.0000)
  37 H      9.111459    2.208488   21.459440    ( 0.0000,  0.0000,  0.0000)
  38 H      7.058566    2.213573   21.447936    ( 0.0000,  0.0000,  0.0000)
  39 H      8.083856    0.428182   21.448161    ( 0.0000,  0.0000,  0.0000)
  40 N      8.096881    1.616200   18.449478    ( 0.0000,  0.0000,  0.0000)
  41 N      9.196190    1.616960   18.449221    ( 0.0000,  0.0000,  0.0000)

Unit cell:
           periodic     x           y           z      points  spacing
  1. axis:    yes    9.702222    0.000000    0.000000    60     0.1617
  2. axis:    yes    0.000000    9.702222    0.000000    60     0.1617
  3. axis:    no     0.000000    0.000000   24.851111   156     0.1593

  Lengths:   9.702222   9.702222  24.851111
  Angles:   90.000000  90.000000  90.000000

Effective grid spacing dv^(1/3) = 0.1609

     iter     time        total  log10-change:
                         energy  eigst   dens
iter:   1 07:24:19  -255.156734  -1.07
iter:   2 07:25:06  -255.078447  -1.74  -1.54
iter:   3 07:25:53  -255.073126  -2.91  -2.10
iter:   4 07:26:41  -255.072099c -2.93  -2.43
Writing to output.gpw (mode='')

iter:   5 07:27:33  -255.072100c -2.53  -2.61
iter:   6 07:28:21  -255.071819c -3.12  -2.87
iter:   7 07:29:08  -255.071837c -3.11  -3.02
iter:   8 07:29:55  -255.071921c -3.34  -3.17
iter:   9 07:30:43  -255.071849c -4.02  -3.32
Writing to output.gpw (mode='')

iter:  10 07:31:32  -255.071845c -4.09  -3.44
iter:  11 07:32:19  -255.071864c -4.29  -3.56
iter:  12 07:33:07  -255.071890c -4.21  -3.61
iter:  13 07:33:54  -255.071874c -4.53  -3.71
iter:  14 07:34:41  -255.071881c -4.69  -3.88
Writing to output.gpw (mode='')

iter:  15 07:35:32  -255.071882c -4.88  -3.89
iter:  16 07:36:19  -255.071888c -4.91  -4.09c
iter:  17 07:37:07  -255.071888c -4.98  -4.14c
iter:  18 07:37:54  -255.071889c -5.01  -4.13c
iter:  19 07:38:41  -255.071891c -5.28  -4.14c
Writing to output.gpw (mode='')

iter:  20 07:39:32  -255.071890c -5.34  -4.19c
iter:  21 07:40:20  -255.071891c -5.46  -4.32c
iter:  22 07:41:07  -255.071892c -5.34  -4.43c
iter:  23 07:41:54  -255.071892c -5.68  -4.45c
iter:  24 07:42:42  -255.071892c -5.84  -4.43c
Writing to output.gpw (mode='')

iter:  25 07:43:33  -255.071891c -5.99  -4.39c
iter:  26 07:44:21  -255.071891c -5.93  -4.41c
iter:  27 07:45:08  -255.071891c -6.16  -4.45c
iter:  28 07:45:55  -255.071890c -6.25  -4.38c
iter:  29 07:46:43  -255.071891c -6.20  -4.44c
Writing to output.gpw (mode='')

iter:  30 07:47:32  -255.071890c -6.54  -4.55c
iter:  31 07:48:19  -255.071889c -6.60  -4.75c
iter:  32 07:49:06  -255.071889c -6.69  -4.84c
iter:  33 07:49:54  -255.071890c -6.62  -4.95c
iter:  34 07:50:41  -255.071890c -6.74  -5.05c
Writing to output.gpw (mode='')

iter:  35 07:51:32  -255.071890c -6.84  -5.10c
iter:  36 07:52:19  -255.071890c -6.65  -5.18c
iter:  37 07:53:07  -255.071890c -6.82  -5.46c
iter:  38 07:53:54  -255.071890c -7.14  -5.60c
iter:  39 07:54:42  -255.071890c -7.16  -5.61c
Writing to output.gpw (mode='')

iter:  40 07:55:31  -255.071890c -7.18  -5.56c
iter:  41 07:56:18  -255.071889c -7.09  -5.85c
iter:  42 07:57:05  -255.071889c -7.26  -5.66c
iter:  43 07:57:52  -255.071889c -7.17  -5.79c
iter:  44 07:58:40  -255.071889c -7.22  -5.75c
Writing to output.gpw (mode='')

iter:  45 07:59:29  -255.071890c -7.33  -5.84c
iter:  46 08:00:16  -255.071889c -7.37  -5.52c
iter:  47 08:01:04  -255.071889c -7.42c -5.81c

Converged after 47 iterations.

Dipole moment: (5.798079, -4.183706, 0.010818) |e|*Ang

Energy contributions relative to reference atoms: (reference = -10970.764591)

Kinetic:       +113.751122
Potential:     -107.192070
External:        +0.000000
XC:            -261.857498
Entropy (-ST):   -0.155040
Local:           +0.304077
--------------------------
Free energy:   -255.149409
Extrapolated:  -255.071889

Dipole-layer corrected work functions: 3.395676, 3.374880 eV

Showing only first 2 kpts
 Kpt  Band  Eigenvalues  Occupancy
  0    24     -3.63512    1.98657
  0    25     -3.55065    1.92937
  0    26     -3.22938    0.08474
  0    27     -3.13008    0.01207

  1    24     -3.40210    1.16664
  1    25     -3.37308    0.87863
  1    26     -3.35393    0.69638
  1    27     -3.34205    0.59278


Fermi level: -3.38528

No gap
Writing to output.gpw (mode='')


[...]
iter:   4 07:18:37  -255.091637c -3.73  -3.03
Writing to output.gpw (mode='')

iter:   5 07:21:02  -255.091671c -4.31  -3.25
iter:   6 07:23:33  -255.091584c -4.24  -3.45
iter:   7 07:25:59  -255.091611c -4.43  -3.67
iter:   8 07:28:26  -255.091609c -4.85  -3.71
iter:   9 07:30:55  -255.091595c -5.01  -3.90
Writing to output.gpw (mode='')

iter:  10 07:33:29  -255.091595c -5.21  -4.14c
iter:  11 07:35:50  -255.091596c -5.58  -4.08c
iter:  12 07:38:19  -255.091605c -5.42  -4.11c
iter:  13 07:40:49  -255.091603c -6.02  -4.20c
iter:  14 07:43:10  -255.091600c -5.64  -4.42c
Writing to output.gpw (mode='')

iter:  15 07:45:37  -255.091601c -6.38  -4.40c
iter:  16 07:47:59  -255.091601c -6.56  -4.53c
iter:  17 07:50:26  -255.091600c -6.47  -4.58c
iter:  18 07:52:46  -255.091599c -6.40  -4.69c
iter:  19 07:55:06  -255.091599c -7.04  -4.80c
Writing to output.gpw (mode='')

iter:  20 07:57:47  -255.091599c -6.94  -4.82c
iter:  21 08:00:12  -255.091599c -6.80  -4.87c
iter:  22 08:02:43  -255.091600c -7.21  -4.81c
iter:  23 08:05:12  -255.091599c -7.52c -5.19c

Converged after 23 iterations.

Dipole moment: (7.370054, -4.137238, -0.031000) |e|*Ang

Energy contributions relative to reference atoms: (reference = -10970.764591)

Kinetic:       +114.110889
Potential:     -107.371644
External:        +0.000000
XC:            -262.056478
Entropy (-ST):   -0.154183
Local:           +0.302725
--------------------------
Free energy:   -255.168691
Extrapolated:  -255.091599

Dipole-layer corrected work functions: 3.395796, 3.455389 eV

Showing only first 2 kpts
 Kpt  Band  Eigenvalues  Occupancy
  0    24     -3.69127    1.99020
  0    25     -3.59853    1.93898
  0    26     -3.26370    0.07553
  0    27     -3.18846    0.01728

  1    24     -3.43047    1.04874
  1    25     -3.40976    0.84298
  1    26     -3.39506    0.70381
  1    27     -3.38250    0.59391


Fermi level: -3.42559

No gap
Writing to output.gpw (mode='')


Forces in eV/Ang:
  0 Li    0.00508    0.00001   -0.27590
  1 Li   -0.00309    0.00000   -0.27445
  2 Li   -0.00195   -0.00001   -0.27692
  3 Li   -0.00117   -0.00037   -0.27425
  4 Li    0.00175   -0.00165   -0.27614
  5 Li    0.00017    0.00491   -0.27646
  6 Li   -0.00117    0.00037   -0.27432
  7 Li    0.00176    0.00165   -0.27610
  8 Li    0.00018   -0.00491   -0.27646
  9 Li    0.00485   -0.00905    0.27938
 10 Li    0.00845   -0.00791    0.25568
 11 Li   -0.01529   -0.01135    0.26623
 12 Li    0.00477    0.00906    0.27933
 13 Li    0.00854    0.00796    0.25561
 14 Li   -0.01528    0.01133    0.26634
 15 Li    0.00478   -0.00001    0.25901
 16 Li    0.00191   -0.00006    0.24307
 17 Li   -0.00912    0.00004    0.25376
 18 Li   -0.00588   -0.00004    0.00237
 19 Li    0.00429    0.00004   -0.00075
 20 Li    0.00366   -0.00005   -0.00544
 21 Li   -0.00273   -0.00079   -0.00109
 22 Li    0.00247   -0.00220   -0.00076
 23 Li    0.00091   -0.00836    0.00341
 24 Li   -0.00278    0.00084   -0.00107
 25 Li    0.00234    0.00213   -0.00080
 26 Li    0.00103    0.00840    0.00343
 27 Li    0.00449   -0.00722    0.01059
 28 Li    0.00224    0.00591    0.00636
 29 Li   -0.00457   -0.00319    0.00164
 30 Li    0.00449    0.00734    0.00994
 31 Li    0.00215   -0.00588    0.00633
 32 Li   -0.00472    0.00313    0.00189
 33 Li   -0.00657   -0.00000    0.00903
 34 Li   -0.00092   -0.00001   -0.01129
 35 Li    0.00696   -0.00003    0.00259
 36 B    -0.00847   -0.01129    0.00434
 37 H    -0.02283    0.00446    0.00353
 38 H     0.00984    0.01049    0.02322
 39 H    -0.00160   -0.00887    0.00207
 40 N     0.05589    0.00758    0.00168
 41 N    -0.06401   -0.00261    0.01017

System changes: positions 

Initializing position-dependent things.

Density initialized from wave functions
       .-----------------------.  
      /|                       |  
     / |                       |  
    /  |                       |  
   /   |                       |  
  /    |                       |  
 *     |                       |  
 |     |                       |  
 |     |                       |  
 |     |            H B  H     |  
 |     |             H         |  
 |     |                       |  
 |     Li      Li      Li      |  
 |     |              N  N     |  
 |   Li|     Li      Li        |  
 |     |  Li      Li      Li   |  
 | Li  |   Li      Li          |  
 |     |Li      Li      Li     |  
 |     |                       |  
 |   LLi     LLi     LLi       |  
 |     |  Li      Li      Li   |  
 | Li  |   Li      Li          |  
 |     |Li      Li      Li     |  
 Li    | Li      Li            |  
 |    Li      Li      Li       |  
 |     |                       |  
 |     |                       |  
 |     |                       |  
 |     |                       |  
 |     |                       |  
 |     |                       |  
 |     .-----------------------.  
 |    /                       /   
 |   /                       /    
 |  /                       /     
 | /                       /      
 |/                       /       
 *-----------------------*        

Positions:
   0 Li     1.617037    1.617037   10.000000    ( 0.0000,  0.0000,  0.0000)
   1 Li     4.851111    1.617037   10.000000    ( 0.0000,  0.0000,  0.0000)
   2 Li     8.085185    1.617037   10.000000    ( 0.0000,  0.0000,  0.0000)
   3 Li     1.617037    4.851111   10.000000    ( 0.0000,  0.0000,  0.0000)
   4 Li     4.851111    4.851111   10.000000    ( 0.0000,  0.0000,  0.0000)
   5 Li     8.085185    4.851111   10.000000    ( 0.0000,  0.0000,  0.0000)
   6 Li     1.617037    8.085185   10.000000    ( 0.0000,  0.0000,  0.0000)
   7 Li     4.851111    8.085185   10.000000    ( 0.0000,  0.0000,  0.0000)
   8 Li     8.085185    8.085185   10.000000    ( 0.0000,  0.0000,  0.0000)
   9 Li     0.000000    0.000000   11.617037    ( 0.0000,  0.0000,  0.0000)
  10 Li     3.234074    0.000000   11.617037    ( 0.0000,  0.0000,  0.0000)
  11 Li     6.468148    0.000000   11.617037    ( 0.0000,  0.0000,  0.0000)
  12 Li     0.000000    3.234074   11.617037    ( 0.0000,  0.0000,  0.0000)
  13 Li     3.234074    3.234074   11.617037    ( 0.0000,  0.0000,  0.0000)
  14 Li     6.468148    3.234074   11.617037    ( 0.0000,  0.0000,  0.0000)
  15 Li     0.000000    6.468148   11.617037    ( 0.0000,  0.0000,  0.0000)
  16 Li     3.234074    6.468148   11.617037    ( 0.0000,  0.0000,  0.0000)
  17 Li     6.468148    6.468148   11.617037    ( 0.0000,  0.0000,  0.0000)
  18 Li     1.635314    1.617112   13.454326    ( 0.0000,  0.0000,  0.0000)
  19 Li     4.840661    1.617012   13.471258    ( 0.0000,  0.0000,  0.0000)
  20 Li     8.071628    1.617043   13.451416    ( 0.0000,  0.0000,  0.0000)
  21 Li     1.633982    4.865106   13.469192    ( 0.0000,  0.0000,  0.0000)
  22 Li     4.839424    4.864970   13.476401    ( 0.0000,  0.0000,  0.0000)
  23 Li     8.077420    4.865477   13.466098    ( 0.0000,  0.0000,  0.0000)
  24 Li     1.634034    8.071071   13.469044    ( 0.0000,  0.0000,  0.0000)
  25 Li     4.839516    8.071403   13.476476    ( 0.0000,  0.0000,  0.0000)
  26 Li     8.077322    8.070827   13.466070    ( 0.0000,  0.0000,  0.0000)
  27 Li     0.014514   -0.013038   15.336779    ( 0.0000,  0.0000,  0.0000)
  28 Li     3.229531   -0.003754   15.411003    ( 0.0000,  0.0000,  0.0000)
  29 Li     6.449625   -0.011584   15.380026    ( 0.0000,  0.0000,  0.0000)
  30 Li     0.014500    3.247013   15.336784    ( 0.0000,  0.0000,  0.0000)
  31 Li     3.229570    3.237820   15.411190    ( 0.0000,  0.0000,  0.0000)
  32 Li     6.449571    3.245757   15.379912    ( 0.0000,  0.0000,  0.0000)
  33 Li     0.004918    6.468142   15.404367    ( 0.0000,  0.0000,  0.0000)
  34 Li     3.232762    6.468140   15.452512    ( 0.0000,  0.0000,  0.0000)
  35 Li     6.465984    6.468154   15.423847    ( 0.0000,  0.0000,  0.0000)
  36 B      8.050004    1.596810   21.561630    ( 0.0000,  0.0000,  0.0000)
  37 H      9.077224    2.187712   21.666211    ( 0.0000,  0.0000,  0.0000)
  38 H      7.021820    2.189548   21.496199    ( 0.0000,  0.0000,  0.0000)
  39 H      8.053059    0.408369   21.531732    ( 0.0000,  0.0000,  0.0000)
  40 N      8.188374    1.629960   18.618341    ( 0.0000,  0.0000,  0.0000)
  41 N      9.267169    1.617463   18.394063    ( 0.0000,  0.0000,  0.0000)

Unit cell:
           periodic     x           y           z      points  spacing
  1. axis:    yes    9.702222    0.000000    0.000000    60     0.1617
  2. axis:    yes    0.000000    9.702222    0.000000    60     0.1617
  3. axis:    no     0.000000    0.000000   24.851111   156     0.1593

  Lengths:   9.702222   9.702222  24.851111
  Angles:   90.000000  90.000000  90.000000

Effective grid spacing dv^(1/3) = 0.1609

     iter     time        total  log10-change:
                         energy  eigst   dens
iter:   1 08:08:19  -255.092092  -2.81
iter:   2 08:10:43  -255.091940  -3.44  -2.59
iter:   3 08:13:03  -255.091805c -4.15  -2.93
iter:   4 08:15:38  -255.091775c -3.98  -3.12
Writing to output.gpw (mode='')

iter:   5 08:18:19  -255.091768c -4.67  -3.47
iter:   6 08:20:39  -255.091726c -4.55  -3.51
iter:   7 08:22:58  -255.091733c -4.24  -3.63
iter:   8 08:25:20  -255.091719c -5.07  -3.76
iter:   9 08:27:52  -255.091716c -5.58  -4.02c
Writing to output.gpw (mode='')

iter:  10 08:30:34  -255.091718c -5.39  -4.20c
iter:  11 08:33:01  -255.091728c -5.95  -4.22c
iter:  12 08:35:20  -255.091730c -6.09  -4.33c
iter:  13 08:37:41  -255.091729c -6.10  -4.42c
iter:  14 08:40:05  -255.091727c -6.26  -4.61c
Writing to output.gpw (mode='')

iter:  15 08:42:35  -255.091727c -6.55  -4.65c
iter:  16 08:44:59  -255.091725c -6.77  -4.69c
iter:  17 08:47:15  -255.091724c -7.01  -4.78c
iter:  18 08:49:43  -255.091723c -7.28  -5.02c
iter:  19 08:52:07  -255.091723c -7.26  -5.06c
Writing to output.gpw (mode='')

iter:  20 08:54:45  -255.091723c -7.33  -5.15c
iter:  21 08:57:02  -255.091723c -7.25  -5.19c
iter:  22 08:59:20  -255.091723c -7.60c -5.25c

Converged after 22 iterations.

Dipole moment: (7.393717, -4.125978, -0.031709) |e|*Ang

Energy contributions relative to reference atoms: (reference = -10970.764591)

Kinetic:       +114.175525
Potential:     -107.420743
External:        +0.000000
XC:            -262.072221
Entropy (-ST):   -0.154148
Local:           +0.302790
--------------------------
Free energy:   -255.168797
Extrapolated:  -255.091723

Dipole-layer corrected work functions: 3.395823, 3.456779 eV

Showing only first 2 kpts
 Kpt  Band  Eigenvalues  Occupancy
  0    24     -3.69226    1.99025
  0    25     -3.59933    1.93909
  0    26     -3.26424    0.07529
  0    27     -3.18949    0.01739

  1    24     -3.43106    1.04751
  1    25     -3.41046    0.84289
  1    26     -3.39580    0.70410
  1    27     -3.38303    0.59238


Fermi level: -3.42630

No gap
Writing to output.gpw (mode='')


Forces in eV/Ang:
  0 Li    0.00514    0.00001   -0.27594
  1 Li   -0.00314    0.00000   -0.27446
  2 Li   -0.00196   -0.00001   -0.27699
  3 Li   -0.00116   -0.00033   -0.27422
  4 Li    0.00173   -0.00166   -0.27611
  5 Li    0.00018    0.00494   -0.27650
  6 Li   -0.00116    0.00033   -0.27430
  7 Li    0.00174    0.00166   -0.27608
  8 Li    0.00019   -0.00494   -0.27649
  9 Li    0.00499   -0.00928    0.27930
 10 Li    0.00855   -0.00808    0.25527
 11 Li   -0.01553   -0.01151    0.26608
 12 Li    0.00491    0.00929    0.27926
 13 Li    0.00865    0.00814    0.25520
 14 Li   -0.01552    0.01149    0.26620
 15 Li    0.00463   -0.00001    0.25875
 16 Li    0.00217   -0.00007    0.24219
 17 Li   -0.00923    0.00005    0.25350
 18 Li   -0.00581   -0.00004    0.00278
 19 Li    0.00418    0.00003   -0.00058
 20 Li    0.00364   -0.00005   -0.00442
 21 Li   -0.00291   -0.00115   -0.00063
 22 Li    0.00253   -0.00228   -0.00066
 23 Li    0.00103   -0.00795    0.00339
 24 Li   -0.00296    0.00119   -0.00062
 25 Li    0.00241    0.00221   -0.00069
 26 Li    0.00115    0.00799    0.00342
 27 Li    0.00381   -0.00632    0.01118
 28 Li    0.00221    0.00550    0.00583
 29 Li   -0.00371   -0.00259    0.00201
 30 Li    0.00380    0.00646    0.01045
 31 Li    0.00211   -0.00546    0.00579
 32 Li   -0.00387    0.00252    0.00230
 33 Li   -0.00621   -0.00000    0.00842
 34 Li   -0.00081   -0.00002   -0.01097
 35 Li    0.00649   -0.00003    0.00234
 36 B    -0.01067   -0.01156    0.02177
 37 H    -0.01672    0.00534   -0.00394
 38 H     0.00538    0.01066    0.01659
 39 H    -0.00112   -0.01062   -0.00374
 40 N     0.01881    0.00401    0.00791
 41 N    -0.02785   -0.00174    0.00409

Timing:                                      incl.     excl.
-------------------------------------------------------------------
Density initialized from wave functions:    89.967    89.966   0.0% |
 Symmetrize density:                         0.001     0.001   0.0% |
Forces:                                    274.196   274.196   0.1% |
Hamiltonian:                              3623.225     0.031   0.0% |
 Atomic:                                     5.910     0.092   0.0% |
  XC Correction:                             5.818     5.818   0.0% |
 Calculate atomic Hamiltonians:             17.608    17.608   0.0% |
 Communicate:                               16.720    16.720   0.0% |
 Hartree integrate/restrict:                 6.736     6.736   0.0% |
 Initialize Hamiltonian:                     0.000     0.000   0.0% |
 Poisson:                                  146.064    64.475   0.0% |
  Communicate from 1D:                       9.977     9.977   0.0% |
  Communicate from 2D:                      20.657    20.657   0.0% |
  Communicate to 1D:                         4.529     4.529   0.0% |
  Communicate to 2D:                        16.112    16.112   0.0% |
  FFT 1D:                                   14.875    14.875   0.0% |
  FFT 2D:                                   15.440    15.440   0.0% |
 XC 3D grid:                              3428.632   353.535   0.2% |
  VdW-DF integral:                        3075.098     7.330   0.0% |
   Convolution:                            210.178   210.178   0.1% |
   FFT:                                     35.930    35.930   0.0% |
   gather:                                2423.105  2423.105   1.1% |
   hmm1:                                    36.383    36.383   0.0% |
   hmm2:                                    49.263    49.263   0.0% |
   iFFT:                                    38.526    38.526   0.0% |
   potential:                              259.503     3.262   0.0% |
    collect:                                23.919    23.919   0.0% |
    p1:                                    104.852   104.852   0.0% |
    p2:                                     69.735    69.735   0.0% |
    sum:                                    57.736    57.736   0.0% |
   splines:                                 14.879    14.879   0.0% |
 vbar:                                       1.524     1.524   0.0% |
LCAO initialization:                        10.910     0.472   0.0% |
 LCAO eigensolver:                           3.445     0.001   0.0% |
  Calculate projections:                     0.000     0.000   0.0% |
  DenseAtomicCorrection:                     0.000     0.000   0.0% |
  Distribute overlap matrix:                 3.301     3.301   0.0% |
  Orbital Layouts:                           0.085     0.085   0.0% |
  Potential matrix:                          0.053     0.053   0.0% |
  Sum over cells:                            0.004     0.004   0.0% |
 LCAO to grid:                               5.011     5.011   0.0% |
 Set positions (LCAO WFS):                   1.982     1.693   0.0% |
  Basic WFS set positions:                   0.004     0.004   0.0% |
  Basis functions set positions:             0.001     0.001   0.0% |
  P tci:                                     0.000     0.000   0.0% |
  ST tci:                                    0.198     0.198   0.0% |
  mktci:                                     0.086     0.086   0.0% |
Redistribute:                                0.062     0.062   0.0% |
SCF-cycle:                               224810.233  4395.201   1.9% ||
 Davidson:                               60158.307 25226.194  11.0% |---|
  Apply hamiltonian:                      3902.893  3902.893   1.7% ||
  Subspace diag:                          8306.064     0.499   0.0% |
   calc_h_matrix:                         5210.034  1389.864   0.6% |
    Apply hamiltonian:                    3820.170  3820.170   1.7% ||
   diagonalize:                            302.922   302.922   0.1% |
   rotate_psi:                            2792.608  2792.608   1.2% |
  calc. matrices:                        17462.684 10397.989   4.5% |-|
   Apply hamiltonian:                     7064.695  7064.695   3.1% ||
  diagonalize:                              22.203    22.203   0.0% |
  rotate_psi:                             5238.269  5238.269   2.3% ||
 Density:                                 1459.348     0.084   0.0% |
  Atomic density matrices:                 381.384   381.384   0.2% |
  Mix:                                     487.558   487.558   0.2% |
  Multipole moments:                         6.069     6.069   0.0% |
  Pseudo density:                          584.252   584.170   0.3% |
   Symmetrize density:                       0.081     0.081   0.0% |
 Hamiltonian:                            158697.097     0.462   0.0% |
  Atomic:                                  257.967     3.565   0.0% |
   XC Correction:                          254.402   254.402   0.1% |
  Calculate atomic Hamiltonians:           828.861   828.861   0.4% |
  Communicate:                             743.399   743.399   0.3% |
  Hartree integrate/restrict:              289.853   289.853   0.1% |
  Poisson:                                6478.294  2922.102   1.3% ||
   Communicate from 1D:                    482.535   482.535   0.2% |
   Communicate from 2D:                    786.918   786.918   0.3% |
   Communicate to 1D:                      198.054   198.054   0.1% |
   Communicate to 2D:                      740.461   740.461   0.3% |
   FFT 1D:                                 667.233   667.233   0.3% |
   FFT 2D:                                 680.991   680.991   0.3% |
  XC 3D grid:                            150027.282 15740.043   6.8% |--|
   VdW-DF integral:                      134287.239   342.979   0.1% |
    Convolution:                          9392.414  9392.414   4.1% |-|
    FFT:                                  1623.993  1623.993   0.7% |
    gather:                              105762.782 105762.782  46.0% |-----------------|
    hmm1:                                 1610.123  1610.123   0.7% |
    hmm2:                                 2155.158  2155.158   0.9% |
    iFFT:                                 1700.225  1700.225   0.7% |
    potential:                           11699.523   142.595   0.1% |
     collect:                             1070.638  1070.638   0.5% |
     p1:                                  4688.427  4688.427   2.0% ||
     p2:                                  3098.046  3098.046   1.3% ||
     sum:                                 2699.817  2699.817   1.2% |
    splines:                                 0.041     0.041   0.0% |
  vbar:                                     70.977    70.977   0.0% |
 Orthonormalize:                           100.281     0.011   0.0% |
  calc_s_matrix:                            15.611    15.611   0.0% |
  inverse-cholesky:                          2.690     2.690   0.0% |
  projections:                              50.150    50.150   0.0% |
  rotate_psi_s:                             31.819    31.819   0.0% |
Set symmetry:                                0.003     0.003   0.0% |
Other:                                    1004.187  1004.187   0.4% |
-------------------------------------------------------------------
Total:                                             229812.783 100.0%

Memory usage: 1.51 GiB
Date: Mon Feb 27 08:59:33 2023
