
  ___ ___ ___ _ _ _  
 |   |   |_  | | | | 
 | | | | | . | | | | 
 |__ |  _|___|_____|  22.8.0
 |___|_|             

User:   vazumah@d003
Date:   Fri Mar  3 16:21:54 2023
Arch:   x86_64
Pid:    3999
CWD:    /home/vazumah/Research_Projects/LiMEAS/LiNRR_proton_donors/on_pure_surface/Li_BCC100/adsorbates/butanol_z/ontop/9.702_9.702
Python: 3.10.6
gpaw:   /home/vazumah/anaconda3/envs/NAME/lib/python3.10/site-packages/gpaw
_gpaw:  /home/vazumah/anaconda3/envs/NAME/lib/python3.10/site-packages/
        _gpaw.cpython-310-x86_64-linux-gnu.so
ase:    /home/vazumah/anaconda3/envs/NAME/lib/python3.10/site-packages/ase (version 3.22.1)
numpy:  /home/vazumah/anaconda3/envs/NAME/lib/python3.10/site-packages/numpy (version 1.23.3)
scipy:  /home/vazumah/anaconda3/envs/NAME/lib/python3.10/site-packages/scipy (version 1.9.1)
libxc:  5.2.3
units:  Angstrom and eV
cores: 32
OpenMP: True
OMP_NUM_THREADS: 1

Input parameters:
  h: 0.16
  kpts: {size: [4, 4, 1]}
  occupations: {name: fermi-dirac,
                width: 0.05}
  poissonsolver: {dipolelayer: xy}
  xc: BEEF-vdW

System changes: positions, numbers, cell, pbc, initial_charges, initial_magmoms 

Initialize ...

species:
  Li:
    name: Lithium
    id: 830b4218f175192f93f959cfc0aad614
    Z: 3.0
    valence: 1
    core: 2
    charge: 0.0
    file: /home/vazumah/anaconda3/envs/NAME/share/gpaw/Li.PBE.gz
    compensation charges: {type: gauss,
                           rc: 0.33,
                           lmax: 2}
    cutoffs: {filter: 1.91,
              core: 2.55}
    valence states:
      #              energy  rcut
      - 2s(1.00)    -2.874   1.058
      - 2p(0.00)    -1.090   1.058
      -  s          24.337   1.058
  
    # Using partial waves for Li as LCAO basis

  O:
    name: Oxygen
    id: 32ecd46bf208036f09c70b0ec9a88b78
    Z: 8.0
    valence: 6
    core: 2
    charge: 0.0
    file: /home/vazumah/anaconda3/envs/NAME/share/gpaw/O.PBE.gz
    compensation charges: {type: gauss,
                           rc: 0.21,
                           lmax: 2}
    cutoffs: {filter: 1.17,
              core: 0.83}
    valence states:
      #              energy  rcut
      - 2s(2.00)   -23.961   0.688
      - 2p(4.00)    -9.029   0.598
      -  s           3.251   0.688
      -  p          18.182   0.598
      -  d           0.000   0.619
  
    # Using partial waves for O as LCAO basis

  C:
    name: Carbon
    id: 4aa54d4b901d75f77cc0ea3eec22967b
    Z: 6.0
    valence: 4
    core: 2
    charge: 0.0
    file: /home/vazumah/anaconda3/envs/NAME/share/gpaw/C.PBE.gz
    compensation charges: {type: gauss,
                           rc: 0.20,
                           lmax: 2}
    cutoffs: {filter: 1.14,
              core: 1.14}
    valence states:
      #              energy  rcut
      - 2s(2.00)   -13.751   0.635
      - 2p(2.00)    -5.284   0.635
      -  s          13.461   0.635
      -  p          21.927   0.635
      -  d           0.000   0.635
  
    # Using partial waves for C as LCAO basis

  H:
    name: Hydrogen
    id: d65de229564ff8ea4db303e23b6d1ecf
    Z: 1.0
    valence: 1
    core: 0
    charge: 0.0
    file: /home/vazumah/anaconda3/envs/NAME/share/gpaw/H.PBE.gz
    compensation charges: {type: gauss,
                           rc: 0.15,
                           lmax: 2}
    cutoffs: {filter: 0.85,
              core: 0.53}
    valence states:
      #              energy  rcut
      - 1s(1.00)    -6.494   0.476
      -  s          20.717   0.476
      -  p           0.000   0.476
  
    # Using partial waves for H as LCAO basis

Reference energy: -13576.627914  # eV

Spin-paired calculation

Convergence criteria:
 Maximum [total energy] change in last 3 cyles: 0.0005 eV / electron
 Maximum integral of absolute [dens]ity change: 0.0001 electrons / valence electron
 Maximum integral of absolute [eigenst]ate change: 4e-08 eV^2 / valence electron
 Maximum number of scf [iter]ations: 333
 (Square brackets indicate name in SCF output, whereas a 'c' in
 the SCF output indicates the quantity has converged.)

Symmetries present (total): 1

  ( 1  0  0)
  ( 0  1  0)
  ( 0  0  1)

16 k-points: 4 x 4 x 1 Monkhorst-Pack grid
8 k-points in the irreducible part of the Brillouin zone
       k-points in crystal coordinates                weights
   0:     0.12500000   -0.37500000    0.00000000          2/16
   1:     0.12500000   -0.12500000    0.00000000          2/16
   2:     0.12500000    0.12500000    0.00000000          2/16
   3:     0.12500000    0.37500000    0.00000000          2/16
   4:     0.37500000   -0.37500000    0.00000000          2/16
   5:     0.37500000   -0.12500000    0.00000000          2/16
   6:     0.37500000    0.12500000    0.00000000          2/16
   7:     0.37500000    0.37500000    0.00000000          2/16

Wave functions: Uniform real-space grid
  Kinetic energy operator: 6*3+1=19 point O(h^6) finite-difference Laplacian
  ScaLapack parameters: grid=1x1, blocksize=None
  Wavefunction extrapolation:
    Improved wavefunction reuse through dual PAW basis 

Occupation numbers: Fermi-Dirac:
  width: 0.0500  # eV
 

Eigensolver
   Davidson(niter=2) 

Densities:
  Coarse grid: 60*60*168 grid
  Fine grid: 120*120*336 grid
  Total Charge: 0.000000 

Density mixing:
  Method: separate
  Backend: pulay
  Linear mixing parameter: 0.05
  old densities: 5
  Damping of long wavelength oscillations: 50 

Hamiltonian:
  XC and Coulomb potentials evaluated on a 120*120*336 grid
  Using the BEEF-vdW Exchange-Correlation functional
  Interpolation: tri-quintic (5. degree polynomial)
  Poisson solver: FastPoissonSolver using
    Stencil: 6*3+1=19 point O(h^6) finite-difference Laplacian
    FFT axes: [0, 1]
    FST axes: [2]

Dipole correction along z-axis 

XC parameters: BEEF-vdW with 2 nearest neighbor stencil

Memory estimate:
  Process memory now: 220.73 MiB
  Calculator: 332.02 MiB
    Density: 91.69 MiB
      Arrays: 29.61 MiB
      Localized functions: 50.83 MiB
      Mixer: 11.26 MiB
    Hamiltonian: 23.38 MiB
      Arrays: 19.36 MiB
      XC: 0.00 MiB
      Poisson: 0.00 MiB
      vbar: 4.01 MiB
    Wavefunctions: 216.94 MiB
      Arrays psit_nG: 101.35 MiB
      Eigensolver: 112.92 MiB
      Projections: 0.05 MiB
      Projectors: 2.62 MiB

Total number of cores used: 32
Parallelization over k-points: 8
Domain decomposition: 1 x 1 x 4

Number of atoms: 51
Number of atomic orbitals: 174
Number of bands in calculation: 45
Number of valence electrons: 68
Bands to converge: occupied

... initialized

Initializing position-dependent things.

Density initialized from atomic densities
Creating initial wave functions:
  45 bands from LCAO basis set

       .-----------------------.  
      /|                       |  
     / |                       |  
    /  |                       H  
   /   |                       |  
  /    |                       |  
 *     |                      C|  
 |     |H                   H  |  
 |     |                       |  
 |     |                      C|  
 |  H  |H              H C  H  |  
 |     |                       |  
 |     |                       |  
 | H   |               H C     |  
 |     |                       |  
 |     |                       |  
 | H Li|     Li      Li  O     |  
 |     |  Li      Li      Li   |  
 | Li  |   Li      Li          |  
 |     |Li      Li      Li     |  
 Li    | Li      Li            |  
 |   LLi     LLi     LLi       |  
 |     |  Li      Li      Li   |  
 | Li  |   Li      Li          |  
 |     |Li      Li      Li     |  
 Li    | Li      Li            |  
 |    Li      Li      Li       |  
 |     |                       |  
 |     |                       |  
 |     |                       |  
 |     |                       |  
 |     |                       |  
 |     |                       |  
 |     .-----------------------.  
 |    /                       /   
 |   /                       /    
 |  /                       /     
 | /                       /      
 |/                       /       
 *-----------------------*        

Positions:
   0 Li     1.617037    1.617037   10.000000    ( 0.0000,  0.0000,  0.0000)
   1 Li     4.851111    1.617037   10.000000    ( 0.0000,  0.0000,  0.0000)
   2 Li     8.085185    1.617037   10.000000    ( 0.0000,  0.0000,  0.0000)
   3 Li     1.617037    4.851111   10.000000    ( 0.0000,  0.0000,  0.0000)
   4 Li     4.851111    4.851111   10.000000    ( 0.0000,  0.0000,  0.0000)
   5 Li     8.085185    4.851111   10.000000    ( 0.0000,  0.0000,  0.0000)
   6 Li     1.617037    8.085185   10.000000    ( 0.0000,  0.0000,  0.0000)
   7 Li     4.851111    8.085185   10.000000    ( 0.0000,  0.0000,  0.0000)
   8 Li     8.085185    8.085185   10.000000    ( 0.0000,  0.0000,  0.0000)
   9 Li     0.000000    0.000000   11.617037    ( 0.0000,  0.0000,  0.0000)
  10 Li     3.234074    0.000000   11.617037    ( 0.0000,  0.0000,  0.0000)
  11 Li     6.468148    0.000000   11.617037    ( 0.0000,  0.0000,  0.0000)
  12 Li     0.000000    3.234074   11.617037    ( 0.0000,  0.0000,  0.0000)
  13 Li     3.234074    3.234074   11.617037    ( 0.0000,  0.0000,  0.0000)
  14 Li     6.468148    3.234074   11.617037    ( 0.0000,  0.0000,  0.0000)
  15 Li     0.000000    6.468148   11.617037    ( 0.0000,  0.0000,  0.0000)
  16 Li     3.234074    6.468148   11.617037    ( 0.0000,  0.0000,  0.0000)
  17 Li     6.468148    6.468148   11.617037    ( 0.0000,  0.0000,  0.0000)
  18 Li     1.617038    1.617038   13.469728    ( 0.0000,  0.0000,  0.0000)
  19 Li     4.851111    1.617038   13.469729    ( 0.0000,  0.0000,  0.0000)
  20 Li     8.085184    1.617038   13.469728    ( 0.0000,  0.0000,  0.0000)
  21 Li     1.617038    4.851111   13.469729    ( 0.0000,  0.0000,  0.0000)
  22 Li     4.851111    4.851111   13.469730    ( 0.0000,  0.0000,  0.0000)
  23 Li     8.085184    4.851111   13.469729    ( 0.0000,  0.0000,  0.0000)
  24 Li     1.617038    8.085184   13.469728    ( 0.0000,  0.0000,  0.0000)
  25 Li     4.851111    8.085184   13.469729    ( 0.0000,  0.0000,  0.0000)
  26 Li     8.085184    8.085184   13.469728    ( 0.0000,  0.0000,  0.0000)
  27 Li    -0.000000   -0.000000   15.445939    ( 0.0000,  0.0000,  0.0000)
  28 Li     3.234074    0.000000   15.445939    ( 0.0000,  0.0000,  0.0000)
  29 Li     6.468148    0.000000   15.445939    ( 0.0000,  0.0000,  0.0000)
  30 Li     0.000000    3.234074   15.445939    ( 0.0000,  0.0000,  0.0000)
  31 Li     3.234076    3.234076   15.445938    ( 0.0000,  0.0000,  0.0000)
  32 Li     6.468146    3.234076   15.445938    ( 0.0000,  0.0000,  0.0000)
  33 Li     0.000000    6.468148   15.445939    ( 0.0000,  0.0000,  0.0000)
  34 Li     3.234076    6.468146   15.445938    ( 0.0000,  0.0000,  0.0000)
  35 Li     6.468146    6.468146   15.445938    ( 0.0000,  0.0000,  0.0000)
  36 O      9.702222    9.702222   18.445939    ( 0.0000,  0.0000,  0.0000)
  37 C      9.666396    9.714563   20.912999    ( 0.0000,  0.0000,  0.0000)
  38 C      9.679807    8.859511   22.182560    ( 0.0000,  0.0000,  0.0000)
  39 C      9.702015    8.891743   19.630422    ( 0.0000,  0.0000,  0.0000)
  40 C      9.695436    9.710497   23.455270    ( 0.0000,  0.0000,  0.0000)
  41 H      8.772903   10.347732   20.898200    ( 0.0000,  0.0000,  0.0000)
  42 H     10.537752   10.384751   20.926315    ( 0.0000,  0.0000,  0.0000)
  43 H     10.556016    8.200436   22.169599    ( 0.0000,  0.0000,  0.0000)
  44 H      8.801836    8.203347   22.187463    ( 0.0000,  0.0000,  0.0000)
  45 H     10.576154    8.226176   19.636976    ( 0.0000,  0.0000,  0.0000)
  46 H      8.807396    8.268428   19.545907    ( 0.0000,  0.0000,  0.0000)
  47 H     10.579479   10.352977   23.482857    ( 0.0000,  0.0000,  0.0000)
  48 H      8.817984   10.360510   23.500588    ( 0.0000,  0.0000,  0.0000)
  49 H      9.701580    9.096771   24.358445    ( 0.0000,  0.0000,  0.0000)
  50 H     10.464401   10.291321   18.495250    ( 0.0000,  0.0000,  0.0000)

Unit cell:
           periodic     x           y           z      points  spacing
  1. axis:    yes    9.702222    0.000000    0.000000    60     0.1617
  2. axis:    yes    0.000000    9.702222    0.000000    60     0.1617
  3. axis:    no     0.000000    0.000000   26.851111   168     0.1598

  Lengths:   9.702222   9.702222  26.851111
  Angles:   90.000000  90.000000  90.000000

Effective grid spacing dv^(1/3) = 0.1611

     iter     time        total  log10-change:
                         energy  eigst   dens
iter:   1 16:23:18  -739.698596
iter:   2 16:24:43   125.996682  +2.68  +0.06
iter:   3 16:25:49   467.370464  +3.35  -0.07
iter:   4 16:26:41    44.275937  +3.73  -0.08
Writing to output.gpw (mode='')

iter:   5 16:27:37  -200.809431  +3.19  -0.07
iter:   6 16:28:43  -222.672106  +2.82  -0.22
iter:   7 16:29:52  -314.579578  +2.58  -0.50
iter:   8 16:31:26  -453.589267  +2.53  -0.46
iter:   9 16:32:38  -798.058278  +3.26  -0.26
Writing to output.gpw (mode='')

iter:  10 16:33:49  -605.162224  +2.53  -0.06
iter:  11 16:36:42  -324.916125  +2.32  -0.10
iter:  12 16:39:39  -345.823223  +1.54  -0.45
iter:  13 16:43:03  -385.754680  +2.29  -0.44
iter:  14 16:48:32  -316.171394  +2.47  -0.26
Writing to output.gpw (mode='')

iter:  15 16:54:10  -322.624897  +1.56  -0.67
iter:  16 16:58:21  -363.790546  +1.64  -0.70
iter:  17 17:01:15  -333.746743  +1.30  -0.33
iter:  18 17:04:43  -348.444828  +0.86  -0.54
iter:  19 17:07:39  -331.692008  +1.11  -0.40
Writing to output.gpw (mode='')

iter:  20 17:10:42  -326.267599  +1.74  -0.57
iter:  21 17:14:03  -324.448043  +1.41  -0.73
iter:  22 17:16:17  -327.318792  +1.40  -0.83
iter:  23 17:18:17  -327.364587  +0.99  -0.79
iter:  24 17:20:22  -326.669179  +0.76  -0.81
Writing to output.gpw (mode='')

iter:  25 17:23:44  -324.877263  +0.07  -0.85
iter:  26 17:27:46  -325.978742  +0.95  -0.95
iter:  27 17:29:51  -331.197090  +1.21  -0.87
iter:  28 17:31:57  -327.052598  +0.14  -0.74
iter:  29 17:34:03  -325.453867  +0.08  -0.89
Writing to output.gpw (mode='')

iter:  30 17:36:13  -324.766104  -0.18  -1.01
iter:  31 17:38:18  -323.283553  +0.48  -1.10
iter:  32 17:40:47  -323.347611  +0.14  -1.50
iter:  33 17:45:12  -323.413605  -0.45  -1.60
iter:  34 17:48:53  -323.410294  -0.79  -1.62
Writing to output.gpw (mode='')

iter:  35 17:53:23  -323.319993  -0.58  -1.68
iter:  36 17:57:12  -323.335586  -0.85  -1.91
iter:  37 18:01:49  -323.346248c -0.92  -1.92
iter:  38 18:07:05  -323.356967c -1.23  -1.94
iter:  39 18:17:18  -323.362221c -1.38  -2.05
Writing to output.gpw (mode='')

iter:  40 18:24:42  -323.366401c -1.38  -2.16
iter:  41 18:29:41  -323.370919c -1.56  -2.33
iter:  42 18:37:58  -323.375533c -1.69  -2.37
iter:  43 18:44:11  -323.380110c -1.55  -2.59
iter:  44 18:53:02  -323.382231c -1.85  -2.62
Writing to output.gpw (mode='')

iter:  45 19:00:13  -323.384654c -1.93  -2.67
iter:  46 19:10:17  -323.387333c -1.97  -2.63
iter:  47 19:19:15  -323.389893c -1.83  -2.68
iter:  48 19:28:30  -323.391744c -2.09  -2.77
iter:  49 19:41:02  -323.393409c -2.08  -2.75
Writing to output.gpw (mode='')

iter:  50 19:53:38  -323.396060c -1.86  -2.73
iter:  51 20:04:52  -323.397798c -2.30  -2.71
iter:  52 20:12:53  -323.398905c -2.39  -2.70
iter:  53 20:21:02  -323.400032c -2.41  -2.69
iter:  54 20:32:43  -323.400911c -2.39  -2.64
Writing to output.gpw (mode='')

iter:  55 20:43:05  -323.401669c -2.43  -2.72
iter:  56 20:51:19  -323.402287c -2.61  -2.75
iter:  57 20:58:52  -323.402494c -2.64  -2.69
iter:  58 21:07:32  -323.403268c -2.58  -2.71
iter:  59 21:16:40  -323.403860c -2.69  -2.83
Writing to output.gpw (mode='')

iter:  60 21:24:37  -323.404232c -2.82  -2.99
iter:  61 21:32:27  -323.404553c -2.86  -3.24
iter:  62 21:40:57  -323.404821c -2.92  -3.32
iter:  63 21:47:55  -323.405068c -2.98  -3.38
iter:  64 21:52:41  -323.405303c -3.12  -3.46
Writing to output.gpw (mode='')

iter:  65 21:57:36  -323.405492c -3.15  -3.56
iter:  66 22:02:47  -323.405643c -3.35  -3.65
iter:  67 22:07:39  -323.405766c -3.41  -3.72
iter:  68 22:13:16  -323.405887c -3.31  -3.77
iter:  69 22:18:16  -323.405989c -3.35  -3.90
Writing to output.gpw (mode='')

iter:  70 22:23:13  -323.406080c -3.43  -3.99
iter:  71 22:30:46  -323.406144c -3.68  -4.04c
iter:  72 22:35:47  -323.406204c -3.73  -4.07c
iter:  73 22:40:45  -323.406249c -3.88  -4.19c
iter:  74 22:45:07  -323.406294c -3.77  -4.27c
Writing to output.gpw (mode='')

iter:  75 22:50:02  -323.406328c -3.92  -4.44c
iter:  76 22:55:23  -323.406357c -3.94  -4.52c
iter:  77 23:01:38  -323.406380c -4.09  -4.52c
iter:  78 23:06:57  -323.406400c -4.15  -4.46c
iter:  79 23:12:08  -323.406417c -4.20  -4.37c
Writing to output.gpw (mode='')

iter:  80 23:17:03  -323.406432c -4.37  -4.30c
iter:  81 23:22:01  -323.406444c -4.39  -4.38c
iter:  82 23:25:23  -323.406455c -4.38  -4.47c
iter:  83 23:31:29  -323.406464c -4.43  -4.50c
iter:  84 23:35:41  -323.406473c -4.50  -4.51c
Writing to output.gpw (mode='')

iter:  85 23:41:23  -323.406480c -4.63  -4.56c
iter:  86 23:45:45  -323.406485c -4.58  -4.55c
iter:  87 23:51:44  -323.406490c -4.57  -4.57c
iter:  88 23:57:29  -323.406495c -4.74  -4.58c
iter:  89 00:02:28  -323.406499c -4.92  -4.74c
Writing to output.gpw (mode='')

iter:  90 00:11:16  -323.406501c -4.91  -4.67c
iter:  91 00:17:17  -323.406504c -4.91  -4.75c
iter:  92 00:24:56  -323.406506c -4.82  -4.76c
iter:  93 00:29:33  -323.406508c -5.09  -4.74c
iter:  94 00:34:12  -323.406510c -5.16  -4.64c
Writing to output.gpw (mode='')

iter:  95 00:39:46  -323.406511c -5.07  -4.65c
iter:  96 00:44:29  -323.406512c -5.36  -4.62c
iter:  97 00:49:34  -323.406513c -5.41  -4.65c
iter:  98 00:54:25  -323.406514c -5.47  -4.71c
iter:  99 00:59:19  -323.406515c -5.57  -4.84c
Writing to output.gpw (mode='')

iter: 100 01:05:58  -323.406515c -5.52  -4.88c
iter: 101 01:12:51  -323.406515c -5.56  -4.92c
iter: 102 01:18:13  -323.406516c -5.69  -5.02c
iter: 103 01:26:48  -323.406516c -5.79  -5.06c
iter: 104 01:33:57  -323.406516c -5.79  -5.20c
Writing to output.gpw (mode='')

iter: 105 01:38:56  -323.406517c -5.74  -5.25c
iter: 106 01:46:00  -323.406517c -5.91  -5.31c
iter: 107 01:51:30  -323.406517c -5.98  -5.41c
iter: 108 01:59:22  -323.406517c -6.03  -5.58c
iter: 109 02:05:48  -323.406517c -6.02  -5.62c
Writing to output.gpw (mode='')

iter: 110 02:11:06  -323.406517c -6.12  -5.68c
iter: 111 02:17:17  -323.406518c -6.14  -5.73c
iter: 112 02:23:27  -323.406518c -6.20  -5.91c
iter: 113 02:31:54  -323.406518c -6.26  -5.98c
iter: 114 02:38:23  -323.406518c -6.29  -6.07c
Writing to output.gpw (mode='')

iter: 115 02:47:49  -323.406518c -6.37  -6.06c
iter: 116 02:56:08  -323.406518c -6.45  -6.00c
iter: 117 03:03:41  -323.406518c -6.51  -5.75c
iter: 118 03:11:16  -323.406518c -6.57  -5.79c
iter: 119 03:18:31  -323.406518c -6.60  -5.73c
Writing to output.gpw (mode='')

iter: 120 03:24:00  -323.406518c -6.60  -5.70c
iter: 121 03:30:29  -323.406518c -6.72  -5.68c
iter: 122 03:37:47  -323.406518c -6.76  -5.63c
iter: 123 03:45:23  -323.406518c -6.83  -5.64c
iter: 124 03:53:02  -323.406518c -6.86  -5.53c
Writing to output.gpw (mode='')

iter: 125 04:03:07  -323.406518c -6.86  -5.59c
iter: 126 04:10:10  -323.406518c -6.90  -5.59c
iter: 127 04:18:44  -323.406518c -7.04  -5.57c
iter: 128 04:29:34  -323.406518c -7.02  -5.48c
iter: 129 04:38:46  -323.406518c -7.11  -5.58c
Writing to output.gpw (mode='')

iter: 130 04:48:26  -323.406518c -7.12  -5.54c
iter: 131 04:56:21  -323.406518c -7.17  -5.70c
iter: 132 05:03:38  -323.406518c -7.14  -5.67c
iter: 133 05:11:45  -323.406518c -7.03  -5.74c
iter: 134 05:18:58  -323.406518c -7.10  -5.82c
Writing to output.gpw (mode='')

iter: 135 05:24:53  -323.406518c -7.20  -5.92c
iter: 136 05:30:14  -323.406518c -7.36  -6.05c
iter: 137 05:35:13  -323.406518c -7.46c -6.09c

Converged after 137 iterations.

Dipole moment: (-16.185936, -11.529875, 0.306344) |e|*Ang

Energy contributions relative to reference atoms: (reference = -13576.627914)

Kinetic:       +160.882098
Potential:     -155.904414
External:        +0.000000
XC:            -328.643013
Entropy (-ST):   -0.152460
Local:           +0.335041
--------------------------
Free energy:   -323.482748
Extrapolated:  -323.406518

Dipole-layer corrected work functions: 3.378642, 2.789745 eV

Showing only first 2 kpts
 Kpt  Band  Eigenvalues  Occupancy
  0    32     -3.33766    1.98750
  0    33     -3.25165    1.93215
  0    34     -2.92099    0.07365
  0    35     -2.83100    0.01256

  1    32     -3.11420    1.29140
  1    33     -3.07872    0.94535
  1    34     -3.03916    0.57784
  1    35     -3.03358    0.53311


Fermi level: -3.08419

No gap
Writing to output.gpw (mode='')


Forces in eV/Ang:
  0 Li    0.00172    0.00116   -0.27163
  1 Li   -0.00243   -0.00170   -0.27227
  2 Li    0.00061    0.00214   -0.27091
  3 Li   -0.00199   -0.00197   -0.27217
  4 Li    0.00196    0.00169   -0.27405
  5 Li    0.00005    0.00169   -0.27240
  6 Li    0.00194    0.00068   -0.27163
  7 Li    0.00123    0.00023   -0.27284
  8 Li   -0.00315   -0.00380   -0.27184
  9 Li    0.00011   -0.00074    0.27137
 10 Li    0.00293    0.00110    0.25714
 11 Li   -0.00297   -0.00036    0.26018
 12 Li    0.00078    0.00360    0.25760
 13 Li   -0.00279   -0.00255    0.26308
 14 Li    0.00219    0.00152    0.26137
 15 Li   -0.00091   -0.00249    0.25913
 16 Li    0.00176    0.00162    0.26199
 17 Li   -0.00090   -0.00127    0.25559
 18 Li   -0.00356   -0.00265    0.04706
 19 Li    0.00352    0.00063    0.03699
 20 Li    0.00039    0.00001    0.02191
 21 Li    0.00018    0.00335    0.03718
 22 Li   -0.00035   -0.00118    0.03154
 23 Li    0.00012    0.00138    0.04211
 24 Li    0.00034   -0.00041    0.02472
 25 Li    0.00179    0.00025    0.04105
 26 Li   -0.00211   -0.00145    0.02284
 27 Li   -0.01154   -0.02339    0.20390
 28 Li    0.01289    0.00734   -0.03248
 29 Li   -0.01434   -0.00241   -0.01564
 30 Li    0.00889    0.01278   -0.02444
 31 Li   -0.00841   -0.00916   -0.01580
 32 Li   -0.00371    0.00767   -0.02370
 33 Li   -0.00096   -0.01623   -0.02443
 34 Li    0.00552   -0.00195   -0.02377
 35 Li   -0.00418   -0.00487   -0.02713
 36 O    -0.08812    0.01792   -0.21231
 37 C     0.01324    0.02849   -0.02837
 38 C    -0.00460   -0.01366    0.03395
 39 C    -0.02814   -0.12632    0.01735
 40 C     0.00076   -0.00743    0.00312
 41 H     0.02220    0.03676    0.01323
 42 H    -0.05133    0.00196   -0.01493
 43 H    -0.01414    0.02547    0.01948
 44 H    -0.00332    0.00619    0.01758
 45 H     0.00270   -0.02282   -0.03221
 46 H     0.02753   -0.02177    0.01822
 47 H     0.01168   -0.00842    0.00578
 48 H    -0.01438   -0.00613   -0.00051
 49 H     0.00116   -0.01719   -0.05241
 50 H     0.12874    0.12707   -0.05386

System changes: positions 

Initializing position-dependent things.

Density initialized from wave functions
       .-----------------------.  
      /|                       |  
     / |                       |  
    /  |                       H  
   /   |                       |  
  /    |                       |  
 *     |                      C|  
 |     |H                   H  |  
 |     |                       |  
 |     |                      C|  
 |  H  |H              H C  H  |  
 |     |                       |  
 |     |                       |  
 | H   |               H C     |  
 |     |               Li      Li 
 |     |                       |  
 | H   |     Li      Li  O   Li|  
 |     |  Li      Li      Li   |  
 | Li  |   Li      Li          |  
 |     |Li      Li      Li     |  
 |     | Li                    |  
 |   LLi     LLi     LLi       |  
 |     |  Li      Li      Li   |  
 | Li  |   Li      Li          |  
 |     |Li      Li      Li     |  
 Li    | Li      Li            |  
 |    Li      Li      Li       |  
 |     |                       |  
 |     |                       |  
 |     |                       |  
 |     |                       |  
 |     |                       |  
 |     |                       |  
 |     .-----------------------.  
 |    /                       /   
 |   /                       /    
 |  /                       /     
 | /                       /      
 |/                       /       
 *-----------------------*        

Positions:
   0 Li     1.617037    1.617037   10.000000    ( 0.0000,  0.0000,  0.0000)
   1 Li     4.851111    1.617037   10.000000    ( 0.0000,  0.0000,  0.0000)
   2 Li     8.085185    1.617037   10.000000    ( 0.0000,  0.0000,  0.0000)
   3 Li     1.617037    4.851111   10.000000    ( 0.0000,  0.0000,  0.0000)
   4 Li     4.851111    4.851111   10.000000    ( 0.0000,  0.0000,  0.0000)
   5 Li     8.085185    4.851111   10.000000    ( 0.0000,  0.0000,  0.0000)
   6 Li     1.617037    8.085185   10.000000    ( 0.0000,  0.0000,  0.0000)
   7 Li     4.851111    8.085185   10.000000    ( 0.0000,  0.0000,  0.0000)
   8 Li     8.085185    8.085185   10.000000    ( 0.0000,  0.0000,  0.0000)
   9 Li     0.000000    0.000000   11.617037    ( 0.0000,  0.0000,  0.0000)
  10 Li     3.234074    0.000000   11.617037    ( 0.0000,  0.0000,  0.0000)
  11 Li     6.468148    0.000000   11.617037    ( 0.0000,  0.0000,  0.0000)
  12 Li     0.000000    3.234074   11.617037    ( 0.0000,  0.0000,  0.0000)
  13 Li     3.234074    3.234074   11.617037    ( 0.0000,  0.0000,  0.0000)
  14 Li     6.468148    3.234074   11.617037    ( 0.0000,  0.0000,  0.0000)
  15 Li     0.000000    6.468148   11.617037    ( 0.0000,  0.0000,  0.0000)
  16 Li     3.234074    6.468148   11.617037    ( 0.0000,  0.0000,  0.0000)
  17 Li     6.468148    6.468148   11.617037    ( 0.0000,  0.0000,  0.0000)
  18 Li     1.616987    1.617000   13.470400    ( 0.0000,  0.0000,  0.0000)
  19 Li     4.851161    1.617047   13.470258    ( 0.0000,  0.0000,  0.0000)
  20 Li     8.085190    1.617038   13.470041    ( 0.0000,  0.0000,  0.0000)
  21 Li     1.617041    4.851159   13.470261    ( 0.0000,  0.0000,  0.0000)
  22 Li     4.851106    4.851094   13.470181    ( 0.0000,  0.0000,  0.0000)
  23 Li     8.085185    4.851131   13.470331    ( 0.0000,  0.0000,  0.0000)
  24 Li     1.617043    8.085178   13.470081    ( 0.0000,  0.0000,  0.0000)
  25 Li     4.851137    8.085187   13.470316    ( 0.0000,  0.0000,  0.0000)
  26 Li     8.085154    8.085163   13.470054    ( 0.0000,  0.0000,  0.0000)
  27 Li    -0.000165   -0.000334   15.448852    ( 0.0000,  0.0000,  0.0000)
  28 Li     3.234258    0.000105   15.445475    ( 0.0000,  0.0000,  0.0000)
  29 Li     6.467943   -0.000034   15.445715    ( 0.0000,  0.0000,  0.0000)
  30 Li     0.000127    3.234256   15.445590    ( 0.0000,  0.0000,  0.0000)
  31 Li     3.233956    3.233946   15.445712    ( 0.0000,  0.0000,  0.0000)
  32 Li     6.468093    3.234186   15.445599    ( 0.0000,  0.0000,  0.0000)
  33 Li    -0.000014    6.467916   15.445590    ( 0.0000,  0.0000,  0.0000)
  34 Li     3.234155    6.468118   15.445598    ( 0.0000,  0.0000,  0.0000)
  35 Li     6.468086    6.468076   15.445550    ( 0.0000,  0.0000,  0.0000)
  36 O      9.700963    9.702478   18.442906    ( 0.0000,  0.0000,  0.0000)
  37 C      9.666585    9.714970   20.912593    ( 0.0000,  0.0000,  0.0000)
  38 C      9.679741    8.859316   22.183045    ( 0.0000,  0.0000,  0.0000)
  39 C      9.701613    8.889938   19.630670    ( 0.0000,  0.0000,  0.0000)
  40 C      9.695447    9.710391   23.455315    ( 0.0000,  0.0000,  0.0000)
  41 H      8.773220   10.348257   20.898389    ( 0.0000,  0.0000,  0.0000)
  42 H     10.537019   10.384779   20.926102    ( 0.0000,  0.0000,  0.0000)
  43 H     10.555814    8.200799   22.169877    ( 0.0000,  0.0000,  0.0000)
  44 H      8.801789    8.203436   22.187714    ( 0.0000,  0.0000,  0.0000)
  45 H     10.576192    8.225850   19.636516    ( 0.0000,  0.0000,  0.0000)
  46 H      8.807790    8.268117   19.546167    ( 0.0000,  0.0000,  0.0000)
  47 H     10.579646   10.352857   23.482939    ( 0.0000,  0.0000,  0.0000)
  48 H      8.817779   10.360422   23.500580    ( 0.0000,  0.0000,  0.0000)
  49 H      9.701597    9.096526   24.357696    ( 0.0000,  0.0000,  0.0000)
  50 H     10.466241   10.293137   18.494480    ( 0.0000,  0.0000,  0.0000)

Unit cell:
           periodic     x           y           z      points  spacing
  1. axis:    yes    9.702222    0.000000    0.000000    60     0.1617
  2. axis:    yes    0.000000    9.702222    0.000000    60     0.1617
  3. axis:    no     0.000000    0.000000   26.851111   168     0.1598

  Lengths:   9.702222   9.702222  26.851111
  Angles:   90.000000  90.000000  90.000000

Effective grid spacing dv^(1/3) = 0.1611

     iter     time        total  log10-change:
                         energy  eigst   dens
iter:   1 05:43:10  -323.409427  -2.89
iter:   2 05:50:08  -323.409074  -3.64  -2.76
iter:   3 05:59:48  -323.408988c -4.22  -3.00
iter:   4 06:08:55  -323.408835c -2.93  -3.15
Writing to output.gpw (mode='')

iter:   5 06:15:13  -323.408560c -3.47  -3.00
iter:   6 06:23:35  -323.408575c -4.32  -3.36
iter:   7 06:30:54  -323.408574c -4.15  -3.34
iter:   8 06:36:57  -323.408547c -3.95  -3.42
iter:   9 06:42:27  -323.408535c -4.83  -3.60
Writing to output.gpw (mode='')

iter:  10 06:48:20  -323.408526c -4.75  -3.76
iter:  11 06:54:16  -323.408524c -4.76  -3.83
iter:  12 07:01:05  -323.408523c -5.27  -3.92
iter:  13 07:07:57  -323.408524c -5.75  -4.00c
iter:  14 07:16:17  -323.408523c -5.44  -4.04c
Writing to output.gpw (mode='')

iter:  15 07:21:04  -323.408529c -5.13  -4.06c
iter:  16 07:26:38  -323.408523c -5.25  -4.07c
iter:  17 07:34:08  -323.408524c -6.11  -4.30c
iter:  18 07:41:08  -323.408524c -5.74  -4.47c
iter:  19 07:47:16  -323.408524c -6.69  -4.49c
Writing to output.gpw (mode='')

iter:  20 07:52:36  -323.408523c -6.47  -4.58c
iter:  21 08:00:12  -323.408524c -6.91  -4.63c
iter:  22 08:04:49  -323.408523c -6.71  -4.66c
iter:  23 08:09:18  -323.408523c -6.96  -4.79c
iter:  24 08:14:17  -323.408523c -7.25  -5.04c
Writing to output.gpw (mode='')

iter:  25 08:18:31  -323.408523c -7.76c -5.13c

Converged after 25 iterations.

Dipole moment: (-16.055779, -11.580431, 0.309016) |e|*Ang

Energy contributions relative to reference atoms: (reference = -13576.627914)

Kinetic:       +160.633047
Potential:     -155.724379
External:        +0.000000
XC:            -328.575463
Entropy (-ST):   -0.152474
Local:           +0.334509
--------------------------
Free energy:   -323.484760
Extrapolated:  -323.408523

Dipole-layer corrected work functions: 3.378533, 2.784499 eV

Showing only first 2 kpts
 Kpt  Band  Eigenvalues  Occupancy
  0    32     -3.33479    1.98746
  0    33     -3.24893    1.93210
  0    34     -2.91830    0.07363
  0    35     -2.82811    0.01251

  1    32     -3.11161    1.29216
  1    33     -3.07597    0.94455
  1    34     -3.03653    0.57818
  1    35     -3.03104    0.53418


Fermi level: -3.08152

No gap

Forces in eV/Ang:
  0 Li    0.00173    0.00117   -0.27160
  1 Li   -0.00244   -0.00168   -0.27231
  2 Li    0.00060    0.00214   -0.27086
  3 Li   -0.00197   -0.00197   -0.27221
  4 Li    0.00195    0.00169   -0.27405
  5 Li    0.00004    0.00171   -0.27243
  6 Li    0.00195    0.00066   -0.27160
  7 Li    0.00124    0.00022   -0.27287
  8 Li   -0.00317   -0.00382   -0.27180
  9 Li    0.00017   -0.00071    0.27156
 10 Li    0.00301    0.00115    0.25761
 11 Li   -0.00310   -0.00037    0.26051
 12 Li    0.00084    0.00370    0.25804
 13 Li   -0.00289   -0.00264    0.26361
 14 Li    0.00223    0.00154    0.26184
 15 Li   -0.00093   -0.00260    0.25948
 16 Li    0.00179    0.00165    0.26246
 17 Li   -0.00092   -0.00129    0.25605
 18 Li   -0.00405   -0.00312    0.04636
 19 Li    0.00348    0.00066    0.03591
 20 Li    0.00086   -0.00048    0.02183
 21 Li    0.00023    0.00327    0.03611
 22 Li   -0.00039   -0.00121    0.03050
 23 Li    0.00011    0.00132    0.04088
 24 Li   -0.00012    0.00002    0.02445
 25 Li    0.00176    0.00023    0.03985
 26 Li   -0.00166   -0.00099    0.02267
 27 Li   -0.01153   -0.02341    0.20484
 28 Li    0.01283    0.00720   -0.03173
 29 Li   -0.01433   -0.00240   -0.01519
 30 Li    0.00872    0.01270   -0.02377
 31 Li   -0.00822   -0.00894   -0.01519
 32 Li   -0.00369    0.00758   -0.02303
 33 Li   -0.00098   -0.01627   -0.02397
 34 Li    0.00547   -0.00198   -0.02315
 35 Li   -0.00408   -0.00477   -0.02644
 36 O     0.04248    0.06631   -0.11955
 37 C    -0.01094   -0.01332   -0.02187
 38 C    -0.00756    0.01023    0.00966
 39 C    -0.00288   -0.02078   -0.03333
 40 C    -0.00168    0.00758   -0.00649
 41 H     0.02017    0.03388    0.00909
 42 H    -0.02700    0.01354   -0.01733
 43 H    -0.00482    0.01613    0.02012
 44 H    -0.00658    0.00318    0.01731
 45 H     0.00875   -0.02866   -0.03608
 46 H    -0.00593   -0.04630    0.01387
 47 H     0.00809   -0.01028    0.00587
 48 H    -0.00900   -0.00898    0.00023
 49 H     0.00101   -0.02486   -0.03413
 50 H    -0.00534    0.02499   -0.06334

System changes: positions 

Initializing position-dependent things.

Density initialized from wave functions
       .-----------------------.  
      /|                       |  
     / |                       |  
    /  |                       H  
   /   |                       |  
  /    |                       |  
 *     |                      C|  
 |     |H                   H  |  
 |     |                       |  
 |     |                      C|  
 |  H  |H              H C  H  |  
 |     |                       |  
 |     |                       |  
 | H   |               H C     |  
 |     |               Li      Li 
 |     |                       |  
 | H   |     Li      Li  O   Li|  
 |     |  Li      Li      Li   |  
 | Li  |   Li      Li          |  
 |     |Li      Li      Li     |  
 |     | Li                    |  
 |   LLi     LLi     LLi       |  
 |     |  Li      Li      Li   |  
 | Li  |   Li      Li          |  
 |     |Li      Li      Li     |  
 Li    | Li      Li            |  
 |    Li      Li      Li       |  
 |     |                       |  
 |     |                       |  
 |     |                       |  
 |     |                       |  
 |     |                       |  
 |     |                       |  
 |     .-----------------------.  
 |    /                       /   
 |   /                       /    
 |  /                       /     
 | /                       /      
 |/                       /       
 *-----------------------*        

Positions:
   0 Li     1.617037    1.617037   10.000000    ( 0.0000,  0.0000,  0.0000)
   1 Li     4.851111    1.617037   10.000000    ( 0.0000,  0.0000,  0.0000)
   2 Li     8.085185    1.617037   10.000000    ( 0.0000,  0.0000,  0.0000)
   3 Li     1.617037    4.851111   10.000000    ( 0.0000,  0.0000,  0.0000)
   4 Li     4.851111    4.851111   10.000000    ( 0.0000,  0.0000,  0.0000)
   5 Li     8.085185    4.851111   10.000000    ( 0.0000,  0.0000,  0.0000)
   6 Li     1.617037    8.085185   10.000000    ( 0.0000,  0.0000,  0.0000)
   7 Li     4.851111    8.085185   10.000000    ( 0.0000,  0.0000,  0.0000)
   8 Li     8.085185    8.085185   10.000000    ( 0.0000,  0.0000,  0.0000)
   9 Li     0.000000    0.000000   11.617037    ( 0.0000,  0.0000,  0.0000)
  10 Li     3.234074    0.000000   11.617037    ( 0.0000,  0.0000,  0.0000)
  11 Li     6.468148    0.000000   11.617037    ( 0.0000,  0.0000,  0.0000)
  12 Li     0.000000    3.234074   11.617037    ( 0.0000,  0.0000,  0.0000)
  13 Li     3.234074    3.234074   11.617037    ( 0.0000,  0.0000,  0.0000)
  14 Li     6.468148    3.234074   11.617037    ( 0.0000,  0.0000,  0.0000)
  15 Li     0.000000    6.468148   11.617037    ( 0.0000,  0.0000,  0.0000)
  16 Li     3.234074    6.468148   11.617037    ( 0.0000,  0.0000,  0.0000)
  17 Li     6.468148    6.468148   11.617037    ( 0.0000,  0.0000,  0.0000)
  18 Li     1.616799    1.616857   13.472658    ( 0.0000,  0.0000,  0.0000)
  19 Li     4.851330    1.617079   13.472016    ( 0.0000,  0.0000,  0.0000)
  20 Li     8.085224    1.617023   13.471100    ( 0.0000,  0.0000,  0.0000)
  21 Li     1.617051    4.851319   13.472028    ( 0.0000,  0.0000,  0.0000)
  22 Li     4.851088    4.851036   13.471676    ( 0.0000,  0.0000,  0.0000)
  23 Li     8.085191    4.851196   13.472332    ( 0.0000,  0.0000,  0.0000)
  24 Li     1.617045    8.085172   13.471270    ( 0.0000,  0.0000,  0.0000)
  25 Li     4.851222    8.085198   13.472267    ( 0.0000,  0.0000,  0.0000)
  26 Li     8.085066    8.085108   13.471156    ( 0.0000,  0.0000,  0.0000)
  27 Li    -0.000724   -0.001468   15.458763    ( 0.0000,  0.0000,  0.0000)
  28 Li     3.234880    0.000456   15.443925    ( 0.0000,  0.0000,  0.0000)
  29 Li     6.467249   -0.000151   15.444972    ( 0.0000,  0.0000,  0.0000)
  30 Li     0.000552    3.234873   15.444427    ( 0.0000,  0.0000,  0.0000)
  31 Li     3.233555    3.233509   15.444966    ( 0.0000,  0.0000,  0.0000)
  32 Li     6.467914    3.234555   15.444472    ( 0.0000,  0.0000,  0.0000)
  33 Li    -0.000061    6.467129   15.444421    ( 0.0000,  0.0000,  0.0000)
  34 Li     3.234421    6.468022   15.444466    ( 0.0000,  0.0000,  0.0000)
  35 Li     6.467887    6.467843   15.444258    ( 0.0000,  0.0000,  0.0000)
  36 O      9.700869    9.704894   18.435584    ( 0.0000,  0.0000,  0.0000)
  37 C      9.666454    9.715013   20.911427    ( 0.0000,  0.0000,  0.0000)
  38 C      9.679424    8.859418   22.183913    ( 0.0000,  0.0000,  0.0000)
  39 C      9.701057    8.887192   19.629890    ( 0.0000,  0.0000,  0.0000)
  40 C      9.695406    9.710510   23.455159    ( 0.0000,  0.0000,  0.0000)
  41 H      8.774231   10.349947   20.898898    ( 0.0000,  0.0000,  0.0000)
  42 H     10.535310   10.385244   20.925302    ( 0.0000,  0.0000,  0.0000)
  43 H     10.555427    8.201735   22.170841    ( 0.0000,  0.0000,  0.0000)
  44 H      8.801524    8.203639   22.188557    ( 0.0000,  0.0000,  0.0000)
  45 H     10.576517    8.224558   19.634832    ( 0.0000,  0.0000,  0.0000)
  46 H      8.808054    8.266278   19.546911    ( 0.0000,  0.0000,  0.0000)
  47 H     10.580097   10.352389   23.483222    ( 0.0000,  0.0000,  0.0000)
  48 H      8.817254   10.360034   23.500579    ( 0.0000,  0.0000,  0.0000)
  49 H      9.701648    9.095447   24.355741    ( 0.0000,  0.0000,  0.0000)
  50 H     10.468191   10.296030   18.491567    ( 0.0000,  0.0000,  0.0000)

Unit cell:
           periodic     x           y           z      points  spacing
  1. axis:    yes    9.702222    0.000000    0.000000    60     0.1617
  2. axis:    yes    0.000000    9.702222    0.000000    60     0.1617
  3. axis:    no     0.000000    0.000000   26.851111   168     0.1598

  Lengths:   9.702222   9.702222  26.851111
  Angles:   90.000000  90.000000  90.000000

Effective grid spacing dv^(1/3) = 0.1611

     iter     time        total  log10-change:
                         energy  eigst   dens
iter:   1 08:23:14  -323.419706  -2.16
iter:   2 08:29:16  -323.414634  -2.73  -2.16
iter:   3 08:34:08  -323.413345c -3.63  -2.45
iter:   4 08:38:51  -323.412297c -2.69  -2.81
Writing to output.gpw (mode='')

iter:   5 08:44:42  -323.412203c -3.99  -2.91
iter:   6 08:51:24  -323.412095c -3.57  -3.16
iter:   7 08:58:21  -323.412241c -3.39  -3.42
iter:   8 09:03:44  -323.412074c -3.71  -3.20
iter:   9 09:09:08  -323.412071c -3.86  -3.48
Writing to output.gpw (mode='')

iter:  10 09:14:28  -323.412085c -4.71  -3.72
iter:  11 09:21:20  -323.412073c -4.81  -3.72
iter:  12 09:24:56  -323.412072c -4.75  -3.77
iter:  13 09:33:37  -323.412071c -5.44  -3.85
iter:  14 09:39:18  -323.412073c -5.55  -3.91
Writing to output.gpw (mode='')

iter:  15 09:43:39  -323.412072c -5.45  -3.99
iter:  16 09:47:58  -323.412074c -5.67  -4.12c
iter:  17 09:51:50  -323.412073c -6.01  -4.18c
iter:  18 09:57:05  -323.412074c -6.23  -4.39c
iter:  19 10:00:47  -323.412074c -6.25  -4.49c
Writing to output.gpw (mode='')

iter:  20 10:04:23  -323.412074c -6.86  -4.64c
iter:  21 10:08:19  -323.412073c -6.83  -4.70c
iter:  22 10:11:25  -323.412074c -7.11  -4.77c
iter:  23 10:17:08  -323.412073c -7.13  -4.82c
iter:  24 10:24:40  -323.412073c -7.63c -4.89c

Converged after 24 iterations.

Dipole moment: (-15.964668, -11.797237, 0.315906) |e|*Ang

Energy contributions relative to reference atoms: (reference = -13576.627914)

Kinetic:       +160.195872
Potential:     -155.406079
External:        +0.000000
XC:            -328.459537
Entropy (-ST):   -0.152523
Local:           +0.333932
--------------------------
Free energy:   -323.488335
Extrapolated:  -323.412073

Dipole-layer corrected work functions: 3.378395, 2.771115 eV

Showing only first 2 kpts
 Kpt  Band  Eigenvalues  Occupancy
  0    32     -3.32739    1.98730
  0    33     -3.24204    1.93192
  0    34     -2.91150    0.07358
  0    35     -2.82064    0.01233

  1    32     -3.10506    1.29412
  1    33     -3.06898    0.94231
  1    34     -3.02995    0.57969
  1    35     -3.02475    0.53781


Fermi level: -3.07476

No gap
Writing to output.gpw (mode='')


Forces in eV/Ang:
  0 Li    0.00179    0.00123   -0.27151
  1 Li   -0.00246   -0.00160   -0.27253
  2 Li    0.00056    0.00216   -0.27075
  3 Li   -0.00190   -0.00198   -0.27243
  4 Li    0.00195    0.00170   -0.27416
  5 Li   -0.00003    0.00177   -0.27265
  6 Li    0.00197    0.00062   -0.27153
  7 Li    0.00129    0.00016   -0.27308
  8 Li   -0.00323   -0.00389   -0.27171
  9 Li    0.00035   -0.00062    0.27201
 10 Li    0.00325    0.00137    0.25921
 11 Li   -0.00350   -0.00041    0.26168
 12 Li    0.00104    0.00403    0.25956
 13 Li   -0.00323   -0.00299    0.26548
 14 Li    0.00238    0.00159    0.26342
 15 Li   -0.00099   -0.00296    0.26072
 16 Li    0.00185    0.00179    0.26408
 17 Li   -0.00093   -0.00132    0.25759
 18 Li   -0.00562   -0.00466    0.04425
 19 Li    0.00334    0.00074    0.03219
 20 Li    0.00239   -0.00211    0.02182
 21 Li    0.00039    0.00301    0.03235
 22 Li   -0.00056   -0.00130    0.02711
 23 Li    0.00007    0.00111    0.03664
 24 Li   -0.00166    0.00148    0.02390
 25 Li    0.00165    0.00019    0.03572
 26 Li   -0.00016    0.00055    0.02237
 27 Li   -0.01149   -0.02323    0.20546
 28 Li    0.01235    0.00671   -0.02936
 29 Li   -0.01415   -0.00234   -0.01384
 30 Li    0.00813    0.01208   -0.02168
 31 Li   -0.00775   -0.00843   -0.01326
 32 Li   -0.00348    0.00711   -0.02094
 33 Li   -0.00104   -0.01617   -0.02245
 34 Li    0.00510   -0.00188   -0.02110
 35 Li   -0.00359   -0.00425   -0.02424
 36 O     0.10810    0.01461    0.04606
 37 C    -0.03008   -0.04673   -0.01788
 38 C    -0.01187    0.02986   -0.04064
 39 C     0.03385    0.13536   -0.12398
 40 C    -0.00495    0.02283   -0.01623
 41 H     0.01271    0.02188   -0.00201
 42 H     0.00520    0.01888   -0.02032
 43 H     0.00638    0.00282    0.01900
 44 H    -0.00766    0.00143    0.01693
 45 H     0.00201   -0.01930   -0.04630
 46 H    -0.03339   -0.05418   -0.01156
 47 H     0.00323   -0.00891    0.00561
 48 H    -0.00291   -0.00746    0.00316
 49 H    -0.00004   -0.03332   -0.00503
 50 H    -0.08405   -0.03955   -0.06339

System changes: positions 

Initializing position-dependent things.

Density initialized from wave functions
       .-----------------------.  
      /|                       |  
     / |                       |  
    /  |                       H  
   /   |                       |  
  /    |                       |  
 *     |                      C|  
 |     |H                   H  |  
 |     |                       |  
 |     |                      C|  
 |  H  |H              H C  H  |  
 |     |                       |  
 |     |                       |  
 | H   |               H C     |  
 |     |               Li      Li 
 |     |                       |  
 | H   |     Li      Li  O   Li|  
 |     |  Li      Li      Li   |  
 | Li  |   Li      Li          |  
 |     |Li      Li      Li     |  
 |     | Li                    |  
 |   LLi     LLi     LLi       |  
 |     |  Li      Li      Li   |  
 | Li  |   Li      Li          |  
 |     |Li      Li      Li     |  
 Li    | Li      Li            |  
 |    Li      Li      Li       |  
 |     |                       |  
 |     |                       |  
 |     |                       |  
 |     |                       |  
 |     |                       |  
 |     |                       |  
 |     .-----------------------.  
 |    /                       /   
 |   /                       /    
 |  /                       /     
 | /                       /      
 |/                       /       
 *-----------------------*        

Positions:
   0 Li     1.617037    1.617037   10.000000    ( 0.0000,  0.0000,  0.0000)
   1 Li     4.851111    1.617037   10.000000    ( 0.0000,  0.0000,  0.0000)
   2 Li     8.085185    1.617037   10.000000    ( 0.0000,  0.0000,  0.0000)
   3 Li     1.617037    4.851111   10.000000    ( 0.0000,  0.0000,  0.0000)
   4 Li     4.851111    4.851111   10.000000    ( 0.0000,  0.0000,  0.0000)
   5 Li     8.085185    4.851111   10.000000    ( 0.0000,  0.0000,  0.0000)
   6 Li     1.617037    8.085185   10.000000    ( 0.0000,  0.0000,  0.0000)
   7 Li     4.851111    8.085185   10.000000    ( 0.0000,  0.0000,  0.0000)
   8 Li     8.085185    8.085185   10.000000    ( 0.0000,  0.0000,  0.0000)
   9 Li     0.000000    0.000000   11.617037    ( 0.0000,  0.0000,  0.0000)
  10 Li     3.234074    0.000000   11.617037    ( 0.0000,  0.0000,  0.0000)
  11 Li     6.468148    0.000000   11.617037    ( 0.0000,  0.0000,  0.0000)
  12 Li     0.000000    3.234074   11.617037    ( 0.0000,  0.0000,  0.0000)
  13 Li     3.234074    3.234074   11.617037    ( 0.0000,  0.0000,  0.0000)
  14 Li     6.468148    3.234074   11.617037    ( 0.0000,  0.0000,  0.0000)
  15 Li     0.000000    6.468148   11.617037    ( 0.0000,  0.0000,  0.0000)
  16 Li     3.234074    6.468148   11.617037    ( 0.0000,  0.0000,  0.0000)
  17 Li     6.468148    6.468148   11.617037    ( 0.0000,  0.0000,  0.0000)
  18 Li     1.616384    1.616530   13.477073    ( 0.0000,  0.0000,  0.0000)
  19 Li     4.851661    1.617144   13.475395    ( 0.0000,  0.0000,  0.0000)
  20 Li     8.085333    1.616948   13.473197    ( 0.0000,  0.0000,  0.0000)
  21 Li     1.617076    4.851628   13.475425    ( 0.0000,  0.0000,  0.0000)
  22 Li     4.851047    4.850918   13.474544    ( 0.0000,  0.0000,  0.0000)
  23 Li     8.085201    4.851319   13.476179    ( 0.0000,  0.0000,  0.0000)
  24 Li     1.617006    8.085200   13.473611    ( 0.0000,  0.0000,  0.0000)
  25 Li     4.851389    8.085220   13.476016    ( 0.0000,  0.0000,  0.0000)
  26 Li     8.084933    8.085040   13.473329    ( 0.0000,  0.0000,  0.0000)
  27 Li    -0.001829   -0.003708   15.478402    ( 0.0000,  0.0000,  0.0000)
  28 Li     3.236100    0.001138   15.440919    ( 0.0000,  0.0000,  0.0000)
  29 Li     6.465879   -0.000379   15.443536    ( 0.0000,  0.0000,  0.0000)
  30 Li     0.001379    3.236077   15.442181    ( 0.0000,  0.0000,  0.0000)
  31 Li     3.232773    3.232657   15.443541    ( 0.0000,  0.0000,  0.0000)
  32 Li     6.467565    3.235272   15.442297    ( 0.0000,  0.0000,  0.0000)
  33 Li    -0.000156    6.465572   15.442147    ( 0.0000,  0.0000,  0.0000)
  34 Li     3.234937    6.467836   15.442281    ( 0.0000,  0.0000,  0.0000)
  35 Li     6.467506    6.467396   15.441758    ( 0.0000,  0.0000,  0.0000)
  36 O      9.701789    9.707861   18.425358    ( 0.0000,  0.0000,  0.0000)
  37 C      9.665783    9.714382   20.909192    ( 0.0000,  0.0000,  0.0000)
  38 C      9.678687    8.860045   22.184311    ( 0.0000,  0.0000,  0.0000)
  39 C      9.700875    8.885669   19.626006    ( 0.0000,  0.0000,  0.0000)
  40 C      9.695244    9.711101   23.454624    ( 0.0000,  0.0000,  0.0000)
  41 H      8.776027   10.352958   20.899605    ( 0.0000,  0.0000,  0.0000)
  42 H     10.532716   10.386249   20.923644    ( 0.0000,  0.0000,  0.0000)
  43 H     10.554930    8.203257   22.172715    ( 0.0000,  0.0000,  0.0000)
  44 H      8.800987    8.204010   22.190218    ( 0.0000,  0.0000,  0.0000)
  45 H     10.576923    8.222309   19.631220    ( 0.0000,  0.0000,  0.0000)
  46 H      8.807981    8.262558   19.547665    ( 0.0000,  0.0000,  0.0000)
  47 H     10.580870   10.351515   23.483774    ( 0.0000,  0.0000,  0.0000)
  48 H      8.816359   10.359328   23.500658    ( 0.0000,  0.0000,  0.0000)
  49 H      9.701721    9.093112   24.352607    ( 0.0000,  0.0000,  0.0000)
  50 H     10.470586   10.300507   18.485856    ( 0.0000,  0.0000,  0.0000)

Unit cell:
           periodic     x           y           z      points  spacing
  1. axis:    yes    9.702222    0.000000    0.000000    60     0.1617
  2. axis:    yes    0.000000    9.702222    0.000000    60     0.1617
  3. axis:    no     0.000000    0.000000   26.851111   168     0.1598

  Lengths:   9.702222   9.702222  26.851111
  Angles:   90.000000  90.000000  90.000000

Effective grid spacing dv^(1/3) = 0.1611

     iter     time        total  log10-change:
                         energy  eigst   dens
iter:   1 10:30:42  -323.442037  -1.76
iter:   2 10:34:32  -323.423512  -2.30  -1.89
iter:   3 10:37:21  -323.418726c -3.32  -2.20
iter:   4 10:41:49  -323.417243c -2.90  -2.61
Writing to output.gpw (mode='')

iter:   5 10:44:27  -323.417036c -3.24  -2.87
iter:   6 10:47:37  -323.416844c -3.12  -3.01
iter:   7 10:51:25  -323.416870c -3.62  -3.22
iter:   8 10:54:36  -323.416882c -3.64  -3.19
iter:   9 10:58:10  -323.416835c -4.31  -3.31
Writing to output.gpw (mode='')

iter:  10 11:02:26  -323.416832c -4.05  -3.51
iter:  11 11:05:48  -323.416831c -4.53  -3.60
iter:  12 11:12:02  -323.416827c -4.51  -3.70
iter:  13 11:18:12  -323.416818c -4.76  -3.80
iter:  14 11:21:34  -323.416820c -5.10  -3.88
Writing to output.gpw (mode='')

iter:  15 11:25:58  -323.416826c -5.22  -3.89
iter:  16 11:30:01  -323.416825c -5.81  -4.11c
iter:  17 11:34:43  -323.416823c -6.08  -4.33c
iter:  18 11:38:35  -323.416823c -6.14  -4.44c
iter:  19 11:42:54  -323.416822c -6.10  -4.43c
Writing to output.gpw (mode='')

iter:  20 11:46:15  -323.416822c -6.36  -4.53c
iter:  21 11:50:43  -323.416822c -6.62  -4.72c
iter:  22 11:54:50  -323.416822c -6.54  -4.78c
iter:  23 11:58:18  -323.416822c -7.04  -4.79c
iter:  24 12:02:16  -323.416823c -7.01  -4.88c
Writing to output.gpw (mode='')

iter:  25 12:05:38  -323.416823c -7.07  -4.95c
iter:  26 12:09:55  -323.416823c -7.11  -4.99c
iter:  27 12:14:16  -323.416823c -7.50c -5.31c

Converged after 27 iterations.

Dipole moment: (-15.901740, -12.016740, 0.323710) |e|*Ang

Energy contributions relative to reference atoms: (reference = -13576.627914)

Kinetic:       +159.559524
Potential:     -154.938807
External:        +0.000000
XC:            -328.295305
Entropy (-ST):   -0.152626
Local:           +0.334078
--------------------------
Free energy:   -323.493136
Extrapolated:  -323.416823

Dipole-layer corrected work functions: 3.378346, 2.756065 eV

Showing only first 2 kpts
 Kpt  Band  Eigenvalues  Occupancy
  0    32     -3.31863    1.98699
  0    33     -3.23422    1.93157
  0    34     -2.90390    0.07350
  0    35     -2.81175    0.01201

  1    32     -3.09787    1.29740
  1    33     -3.06099    0.93797
  1    34     -3.02280    0.58298
  1    35     -3.01807    0.54471


Fermi level: -3.06721

No gap
Writing to output.gpw (mode='')


Forces in eV/Ang:
  0 Li    0.00186    0.00130   -0.27154
  1 Li   -0.00248   -0.00144   -0.27315
  2 Li    0.00050    0.00218   -0.27074
  3 Li   -0.00175   -0.00199   -0.27305
  4 Li    0.00195    0.00171   -0.27440
  5 Li   -0.00014    0.00187   -0.27322
  6 Li    0.00200    0.00054   -0.27156
  7 Li    0.00138    0.00005   -0.27363
  8 Li   -0.00334   -0.00400   -0.27169
  9 Li    0.00069   -0.00044    0.27258
 10 Li    0.00370    0.00175    0.26220
 11 Li   -0.00422   -0.00050    0.26383
 12 Li    0.00142    0.00463    0.26241
 13 Li   -0.00390   -0.00366    0.26902
 14 Li    0.00268    0.00170    0.26636
 15 Li   -0.00110   -0.00363    0.26302
 16 Li    0.00196    0.00206    0.26710
 17 Li   -0.00096   -0.00140    0.26049
 18 Li   -0.00864   -0.00763    0.04042
 19 Li    0.00309    0.00096    0.02499
 20 Li    0.00527   -0.00521    0.02206
 21 Li    0.00076    0.00251    0.02507
 22 Li   -0.00090   -0.00147    0.02074
 23 Li   -0.00005    0.00070    0.02846
 24 Li   -0.00464    0.00426    0.02308
 25 Li    0.00145    0.00004    0.02773
 26 Li    0.00270    0.00347    0.02197
 27 Li   -0.01155   -0.02294    0.20367
 28 Li    0.01133    0.00574   -0.02457
 29 Li   -0.01375   -0.00223   -0.01113
 30 Li    0.00696    0.01082   -0.01757
 31 Li   -0.00683   -0.00744   -0.00930
 32 Li   -0.00305    0.00617   -0.01670
 33 Li   -0.00115   -0.01592   -0.01917
 34 Li    0.00434   -0.00165   -0.01684
 35 Li   -0.00261   -0.00324   -0.01966
 36 O     0.17993   -0.04320    0.20750
 37 C    -0.02720   -0.03946   -0.02701
 38 C    -0.00897    0.03191   -0.09294
 39 C     0.03964    0.21042   -0.16250
 40 C    -0.00733    0.02074   -0.02250
 41 H    -0.00197   -0.00013   -0.02024
 42 H     0.03579    0.01182   -0.02060
 43 H     0.01242   -0.00971    0.00959
 44 H    -0.00622    0.00156    0.01226
 45 H    -0.02311    0.01768   -0.06168
 46 H    -0.01408   -0.01250   -0.05505
 47 H    -0.00207   -0.00211    0.00443
 48 H     0.00108    0.00203    0.00856
 49 H    -0.00250   -0.03349    0.01901
 50 H    -0.16591   -0.11231   -0.06232

System changes: positions 

Initializing position-dependent things.

Density initialized from wave functions
       .-----------------------.  
      /|                       |  
     / |                       |  
    /  |                       H  
   /   |                       |  
  /    |                       |  
 *     |                      C|  
 |     |H                   H  |  
 |     |                       |  
 |     |                      C|  
 |  H  |H              H C  H  |  
 |     |                       |  
 |     |                       |  
 | H   |               H C     |  
 |     |               Li      Li 
 |     |                       |  
 O H   |     Li      Li      Li|  
 |     |  Li      Li      Li   |  
 | Li  |   Li      Li          |  
 |     |Li      Li      Li     |  
 |     | Li                    |  
 |   LLi     LLi     LLi       |  
 |     |  Li      Li      Li   |  
 | Li  |   Li      Li          |  
 |     |Li      Li      Li     |  
 Li    | Li      Li            |  
 |    Li      Li      Li       |  
 |     |                       |  
 |     |                       |  
 |     |                       |  
 |     |                       |  
 |     |                       |  
 |     |                       |  
 |     .-----------------------.  
 |    /                       /   
 |   /                       /    
 |  /                       /     
 | /                       /      
 |/                       /       
 *-----------------------*        

Positions:
   0 Li     1.617037    1.617037   10.000000    ( 0.0000,  0.0000,  0.0000)
   1 Li     4.851111    1.617037   10.000000    ( 0.0000,  0.0000,  0.0000)
   2 Li     8.085185    1.617037   10.000000    ( 0.0000,  0.0000,  0.0000)
   3 Li     1.617037    4.851111   10.000000    ( 0.0000,  0.0000,  0.0000)
   4 Li     4.851111    4.851111   10.000000    ( 0.0000,  0.0000,  0.0000)
   5 Li     8.085185    4.851111   10.000000    ( 0.0000,  0.0000,  0.0000)
   6 Li     1.617037    8.085185   10.000000    ( 0.0000,  0.0000,  0.0000)
   7 Li     4.851111    8.085185   10.000000    ( 0.0000,  0.0000,  0.0000)
   8 Li     8.085185    8.085185   10.000000    ( 0.0000,  0.0000,  0.0000)
   9 Li     0.000000    0.000000   11.617037    ( 0.0000,  0.0000,  0.0000)
  10 Li     3.234074    0.000000   11.617037    ( 0.0000,  0.0000,  0.0000)
  11 Li     6.468148    0.000000   11.617037    ( 0.0000,  0.0000,  0.0000)
  12 Li     0.000000    3.234074   11.617037    ( 0.0000,  0.0000,  0.0000)
  13 Li     3.234074    3.234074   11.617037    ( 0.0000,  0.0000,  0.0000)
  14 Li     6.468148    3.234074   11.617037    ( 0.0000,  0.0000,  0.0000)
  15 Li     0.000000    6.468148   11.617037    ( 0.0000,  0.0000,  0.0000)
  16 Li     3.234074    6.468148   11.617037    ( 0.0000,  0.0000,  0.0000)
  17 Li     6.468148    6.468148   11.617037    ( 0.0000,  0.0000,  0.0000)
  18 Li     1.615589    1.615888   13.484418    ( 0.0000,  0.0000,  0.0000)
  19 Li     4.852214    1.617260   13.480887    ( 0.0000,  0.0000,  0.0000)
  20 Li     8.085606    1.616726   13.476751    ( 0.0000,  0.0000,  0.0000)
  21 Li     1.617129    4.852135   13.480944    ( 0.0000,  0.0000,  0.0000)
  22 Li     4.850967    4.850714   13.479198    ( 0.0000,  0.0000,  0.0000)
  23 Li     8.085214    4.851514   13.482432    ( 0.0000,  0.0000,  0.0000)
  24 Li     1.616849    8.085333   13.477543    ( 0.0000,  0.0000,  0.0000)
  25 Li     4.851665    8.085251   13.482111    ( 0.0000,  0.0000,  0.0000)
  26 Li     8.084796    8.085015   13.476991    ( 0.0000,  0.0000,  0.0000)
  27 Li    -0.003700   -0.007487   15.511550    ( 0.0000,  0.0000,  0.0000)
  28 Li     3.238130    0.002262   15.435985    ( 0.0000,  0.0000,  0.0000)
  29 Li     6.463575   -0.000762   15.441192    ( 0.0000,  0.0000,  0.0000)
  30 Li     0.002739    3.238073   15.438510    ( 0.0000,  0.0000,  0.0000)
  31 Li     3.231478    3.231248   15.441253    ( 0.0000,  0.0000,  0.0000)
  32 Li     6.466989    3.236455   15.438749    ( 0.0000,  0.0000,  0.0000)
  33 Li    -0.000319    6.462947   15.438403    ( 0.0000,  0.0000,  0.0000)
  34 Li     3.235785    6.467529   15.438716    ( 0.0000,  0.0000,  0.0000)
  35 Li     6.466892    6.466672   15.437672    ( 0.0000,  0.0000,  0.0000)
  36 O      9.705167    9.710781   18.413065    ( 0.0000,  0.0000,  0.0000)
  37 C      9.664756    9.713562   20.905138    ( 0.0000,  0.0000,  0.0000)
  38 C      9.677521    8.861148   22.183354    ( 0.0000,  0.0000,  0.0000)
  39 C      9.700780    8.885483   19.618157    ( 0.0000,  0.0000,  0.0000)
  40 C      9.694898    9.712039   23.453537    ( 0.0000,  0.0000,  0.0000)
  41 H      8.778613   10.357372   20.900243    ( 0.0000,  0.0000,  0.0000)
  42 H     10.529254   10.387717   20.920832    ( 0.0000,  0.0000,  0.0000)
  43 H     10.554274    8.205448   22.175600    ( 0.0000,  0.0000,  0.0000)
  44 H      8.800132    8.204647   22.192889    ( 0.0000,  0.0000,  0.0000)
  45 H     10.576827    8.219647   19.624641    ( 0.0000,  0.0000,  0.0000)
  46 H      8.808448    8.257552   19.547588    ( 0.0000,  0.0000,  0.0000)
  47 H     10.582019   10.350249   23.484672    ( 0.0000,  0.0000,  0.0000)
  48 H      8.814966   10.358429   23.500957    ( 0.0000,  0.0000,  0.0000)
  49 H      9.701767    9.089156   24.348054    ( 0.0000,  0.0000,  0.0000)
  50 H     10.472482   10.306113   18.476271    ( 0.0000,  0.0000,  0.0000)

Unit cell:
           periodic     x           y           z      points  spacing
  1. axis:    yes    9.702222    0.000000    0.000000    60     0.1617
  2. axis:    yes    0.000000    9.702222    0.000000    60     0.1617
  3. axis:    no     0.000000    0.000000   26.851111   168     0.1598

  Lengths:   9.702222   9.702222  26.851111
  Angles:   90.000000  90.000000  90.000000

Effective grid spacing dv^(1/3) = 0.1611

     iter     time        total  log10-change:
                         energy  eigst   dens
iter:   1 12:18:45  -323.500610  -1.35
iter:   2 12:24:05  -323.440635  -1.87  -1.65
iter:   3 12:28:06  -323.425554  -3.00  -1.97
iter:   4 12:32:48  -323.423364c -2.72  -2.44
Writing to output.gpw (mode='')

iter:   5 12:36:03  -323.423219c -3.20  -2.72
iter:   6 12:39:04  -323.422819c -2.89  -2.81
iter:   7 12:42:52  -323.422917c -3.04  -3.07
iter:   8 12:46:31  -323.422907c -3.72  -3.08
iter:   9 12:51:25  -323.422899c -3.94  -3.30
Writing to output.gpw (mode='')

iter:  10 12:54:18  -323.422898c -4.37  -3.32
iter:  11 12:58:04  -323.422876c -4.37  -3.49
iter:  12 13:01:29  -323.422880c -4.57  -3.66
iter:  13 13:04:42  -323.422877c -4.57  -3.73
iter:  14 13:08:30  -323.422878c -4.86  -3.94
Writing to output.gpw (mode='')

iter:  15 13:11:48  -323.422884c -5.12  -3.96
iter:  16 13:15:33  -323.422887c -5.34  -4.13c
iter:  17 13:19:14  -323.422885c -5.64  -4.14c
iter:  18 13:22:27  -323.422886c -5.76  -4.23c
iter:  19 13:26:10  -323.422885c -5.83  -4.28c
Writing to output.gpw (mode='')

iter:  20 13:32:36  -323.422885c -6.08  -4.35c
iter:  21 13:37:33  -323.422884c -5.86  -4.45c
iter:  22 13:42:16  -323.422884c -6.36  -4.73c
iter:  23 13:47:41  -323.422885c -6.51  -4.74c
iter:  24 13:51:24  -323.422885c -6.62  -4.78c
Writing to output.gpw (mode='')

iter:  25 13:55:55  -323.422885c -6.57  -4.97c
iter:  26 13:59:52  -323.422885c -6.75  -5.33c
iter:  27 14:06:35  -323.422885c -6.76  -5.31c
iter:  28 14:11:21  -323.422885c -6.94  -5.26c
iter:  29 14:15:46  -323.422885c -7.11  -5.22c
Writing to output.gpw (mode='')

iter:  30 14:20:35  -323.422885c -7.22  -5.21c
iter:  31 14:25:08  -323.422885c -7.31  -5.18c
iter:  32 14:29:15  -323.422886c -7.15  -5.15c
iter:  33 14:34:23  -323.422885c -7.34  -5.14c
iter:  34 14:42:10  -323.422885c -7.40c -5.15c

Converged after 34 iterations.

Dipole moment: (-15.974528, -12.209192, 0.331820) |e|*Ang

Energy contributions relative to reference atoms: (reference = -13576.627914)

Kinetic:       +158.907421
Potential:     -154.452840
External:        +0.000000
XC:            -328.135417
Entropy (-ST):   -0.152816
Local:           +0.334358
--------------------------
Free energy:   -323.499293
Extrapolated:  -323.422885

Dipole-layer corrected work functions: 3.378222, 2.740351 eV

Showing only first 2 kpts
 Kpt  Band  Eigenvalues  Occupancy
  0    32     -3.30863    1.98644
  0    33     -3.22581    1.93092
  0    34     -2.89599    0.07351
  0    35     -2.80155    0.01148

  1    32     -3.09056    1.30295
  1    33     -3.05243    0.93157
  1    34     -3.01562    0.58916
  1    35     -3.01144    0.55502


Fermi level: -3.05929

No gap
Writing to output.gpw (mode='')


Forces in eV/Ang:
  0 Li    0.00193    0.00137   -0.27145
  1 Li   -0.00253   -0.00117   -0.27406
  2 Li    0.00047    0.00216   -0.27055
  3 Li   -0.00150   -0.00202   -0.27396
  4 Li    0.00194    0.00173   -0.27467
  5 Li   -0.00033    0.00202   -0.27409
  6 Li    0.00201    0.00047   -0.27145
  7 Li    0.00152   -0.00013   -0.27445
  8 Li   -0.00347   -0.00412   -0.27151
  9 Li    0.00123   -0.00015    0.27314
 10 Li    0.00431    0.00239    0.26719
 11 Li   -0.00527   -0.00063    0.26744
 12 Li    0.00205    0.00547    0.26717
 13 Li   -0.00508   -0.00486    0.27486
 14 Li    0.00326    0.00178    0.27124
 15 Li   -0.00126   -0.00460    0.26687
 16 Li    0.00203    0.00260    0.27209
 17 Li   -0.00092   -0.00144    0.26532
 18 Li   -0.01345   -0.01236    0.03420
 19 Li    0.00268    0.00132    0.01311
 20 Li    0.00978   -0.01013    0.02242
 21 Li    0.00139    0.00165    0.01305
 22 Li   -0.00147   -0.00175    0.01031
 23 Li   -0.00025   -0.00000    0.01494
 24 Li   -0.00940    0.00869    0.02176
 25 Li    0.00112   -0.00020    0.01455
 26 Li    0.00730    0.00815    0.02131
 27 Li   -0.01177   -0.02250    0.19970
 28 Li    0.00930    0.00415   -0.01668
 29 Li   -0.01281   -0.00202   -0.00678
 30 Li    0.00501    0.00842   -0.01088
 31 Li   -0.00539   -0.00589   -0.00285
 32 Li   -0.00225    0.00451   -0.00977
 33 Li   -0.00132   -0.01517   -0.01373
 34 Li    0.00301   -0.00117   -0.00984
 35 Li   -0.00093   -0.00150   -0.01212
 36 O     0.16001   -0.12629    0.33561
 37 C    -0.01532   -0.01729   -0.03676
 38 C    -0.00001    0.02813   -0.12875
 39 C     0.05232    0.22213   -0.11989
 40 C    -0.00904    0.00473   -0.03102
 41 H    -0.02471   -0.03004   -0.04784
 42 H     0.07329    0.00058   -0.02130
 43 H     0.01668   -0.02436   -0.01626
 44 H    -0.00295    0.00267   -0.00352
 45 H    -0.05246    0.07117   -0.07165
 46 H     0.01734    0.05935   -0.11967
 47 H    -0.01213    0.00666    0.00172
 48 H     0.00771    0.01459    0.01526
 49 H    -0.00648   -0.02456    0.03239
 50 H    -0.17946   -0.14164   -0.03626

System changes: positions 

Initializing position-dependent things.

Density initialized from wave functions
       .-----------------------.  
      /|                       |  
     / |                       |  
    /  |                       H  
   /   |                       |  
  /    |                       |  
 *     |                      C|  
 |     |H                   H  |  
 |     |                       |  
 |     |                      C|  
 |  H  |H              H C  H  |  
 |     |                       |  
 |     |                       |  
 | H   |               H C     |  
 |     |               Li      Li 
 |     |                       |  
 O H   |     Li      Li      Li|  
 |     |  Li      Li      Li   |  
 | Li  |   Li      Li          |  
 |     |Li      Li      Li     |  
 |     | Li                    |  
 |   LLi     LLi     LLi       |  
 |     |  Li      Li      Li   |  
 | Li  |   Li      Li          |  
 |     |Li      Li      Li     |  
 Li    | Li      Li            |  
 |    Li      Li      Li       |  
 |     |                       |  
 |     |                       |  
 |     |                       |  
 |     |                       |  
 |     |                       |  
 |     |                       |  
 |     .-----------------------.  
 |    /                       /   
 |   /                       /    
 |  /                       /     
 | /                       /      
 |/                       /       
 *-----------------------*        

Positions:
   0 Li     1.617037    1.617037   10.000000    ( 0.0000,  0.0000,  0.0000)
   1 Li     4.851111    1.617037   10.000000    ( 0.0000,  0.0000,  0.0000)
   2 Li     8.085185    1.617037   10.000000    ( 0.0000,  0.0000,  0.0000)
   3 Li     1.617037    4.851111   10.000000    ( 0.0000,  0.0000,  0.0000)
   4 Li     4.851111    4.851111   10.000000    ( 0.0000,  0.0000,  0.0000)
   5 Li     8.085185    4.851111   10.000000    ( 0.0000,  0.0000,  0.0000)
   6 Li     1.617037    8.085185   10.000000    ( 0.0000,  0.0000,  0.0000)
   7 Li     4.851111    8.085185   10.000000    ( 0.0000,  0.0000,  0.0000)
   8 Li     8.085185    8.085185   10.000000    ( 0.0000,  0.0000,  0.0000)
   9 Li     0.000000    0.000000   11.617037    ( 0.0000,  0.0000,  0.0000)
  10 Li     3.234074    0.000000   11.617037    ( 0.0000,  0.0000,  0.0000)
  11 Li     6.468148    0.000000   11.617037    ( 0.0000,  0.0000,  0.0000)
  12 Li     0.000000    3.234074   11.617037    ( 0.0000,  0.0000,  0.0000)
  13 Li     3.234074    3.234074   11.617037    ( 0.0000,  0.0000,  0.0000)
  14 Li     6.468148    3.234074   11.617037    ( 0.0000,  0.0000,  0.0000)
  15 Li     0.000000    6.468148   11.617037    ( 0.0000,  0.0000,  0.0000)
  16 Li     3.234074    6.468148   11.617037    ( 0.0000,  0.0000,  0.0000)
  17 Li     6.468148    6.468148   11.617037    ( 0.0000,  0.0000,  0.0000)
  18 Li     1.614485    1.614969   13.493041    ( 0.0000,  0.0000,  0.0000)
  19 Li     4.852863    1.617410   13.487112    ( 0.0000,  0.0000,  0.0000)
  20 Li     8.086075    1.616307   13.481026    ( 0.0000,  0.0000,  0.0000)
  21 Li     1.617212    4.852718   13.487198    ( 0.0000,  0.0000,  0.0000)
  22 Li     4.850854    4.850461   13.484460    ( 0.0000,  0.0000,  0.0000)
  23 Li     8.085224    4.851727   13.489518    ( 0.0000,  0.0000,  0.0000)
  24 Li     1.616512    8.085631   13.482220    ( 0.0000,  0.0000,  0.0000)
  25 Li     4.851986    8.085282   13.489019    ( 0.0000,  0.0000,  0.0000)
  26 Li     8.084774    8.085131   13.481365    ( 0.0000,  0.0000,  0.0000)
  27 Li    -0.005950   -0.012007   15.551230    ( 0.0000,  0.0000,  0.0000)
  28 Li     3.240506    0.003561   15.430306    ( 0.0000,  0.0000,  0.0000)
  29 Li     6.460836   -0.001216   15.438513    ( 0.0000,  0.0000,  0.0000)
  30 Li     0.004313    3.240398   15.434311    ( 0.0000,  0.0000,  0.0000)
  31 Li     3.229970    3.229604   15.438706    ( 0.0000,  0.0000,  0.0000)
  32 Li     6.466322    3.237825   15.434705    ( 0.0000,  0.0000,  0.0000)
  33 Li    -0.000521    6.459818   15.434076    ( 0.0000,  0.0000,  0.0000)
  34 Li     3.236763    6.467175   15.434652    ( 0.0000,  0.0000,  0.0000)
  35 Li     6.466207    6.465857   15.432999    ( 0.0000,  0.0000,  0.0000)
  36 O      9.709799    9.711537   18.403771    ( 0.0000,  0.0000,  0.0000)
  37 C      9.663691    9.712925   20.899996    ( 0.0000,  0.0000,  0.0000)
  38 C      9.676330    8.862540   22.180601    ( 0.0000,  0.0000,  0.0000)
  39 C      9.701273    8.887195   19.608856    ( 0.0000,  0.0000,  0.0000)
  40 C      9.694400    9.712871   23.451910    ( 0.0000,  0.0000,  0.0000)
  41 H      8.781006   10.361698   20.900127    ( 0.0000,  0.0000,  0.0000)
  42 H     10.526463   10.389196   20.917416    ( 0.0000,  0.0000,  0.0000)
  43 H     10.553714    8.207535   22.178359    ( 0.0000,  0.0000,  0.0000)
  44 H      8.799186    8.205425   22.195674    ( 0.0000,  0.0000,  0.0000)
  45 H     10.575771    8.218084   19.616318    ( 0.0000,  0.0000,  0.0000)
  46 H      8.809714    8.253531   19.545434    ( 0.0000,  0.0000,  0.0000)
  47 H     10.583079   10.349001   23.485674    ( 0.0000,  0.0000,  0.0000)
  48 H      8.813528   10.357733   23.501539    ( 0.0000,  0.0000,  0.0000)
  49 H      9.701701    9.084564   24.343295    ( 0.0000,  0.0000,  0.0000)
  50 H     10.473206   10.311091   18.465399    ( 0.0000,  0.0000,  0.0000)

Unit cell:
           periodic     x           y           z      points  spacing
  1. axis:    yes    9.702222    0.000000    0.000000    60     0.1617
  2. axis:    yes    0.000000    9.702222    0.000000    60     0.1617
  3. axis:    no     0.000000    0.000000   26.851111   168     0.1598

  Lengths:   9.702222   9.702222  26.851111
  Angles:   90.000000  90.000000  90.000000

Effective grid spacing dv^(1/3) = 0.1611

     iter     time        total  log10-change:
                         energy  eigst   dens
iter:   1 14:48:20  -323.546052  -1.22
iter:   2 14:54:07  -323.455180  -1.70  -1.56
iter:   3 14:57:58  -323.432970  -2.88  -1.89
iter:   4 15:03:40  -323.430423c -2.59  -2.40
Writing to output.gpw (mode='')

iter:   5 15:06:34  -323.430494c -3.29  -2.71
iter:   6 15:11:17  -323.430025c -2.90  -2.74
iter:   7 15:14:53  -323.430140c -2.65  -2.96
iter:   8 15:18:37  -323.430117c -3.51  -2.98
iter:   9 15:20:31  -323.430106c -3.91  -3.21
Writing to output.gpw (mode='')

iter:  10 15:23:16  -323.430074c -3.77  -3.34
iter:  11 15:26:30  -323.430094c -4.26  -3.47
iter:  12 15:29:47  -323.430088c -4.51  -3.67
iter:  13 15:35:28  -323.430099c -4.87  -3.74
iter:  14 15:40:15  -323.430110c -4.55  -3.81
Writing to output.gpw (mode='')

iter:  15 15:43:41  -323.430102c -4.76  -3.91
iter:  16 15:47:02  -323.430100c -5.02  -4.01c
iter:  17 15:50:51  -323.430104c -5.14  -4.18c
iter:  18 15:54:29  -323.430108c -5.28  -4.26c
iter:  19 15:58:52  -323.430108c -5.64  -4.42c
Writing to output.gpw (mode='')

iter:  20 16:04:06  -323.430108c -5.90  -4.48c
iter:  21 16:09:39  -323.430110c -5.93  -4.51c
iter:  22 16:13:12  -323.430108c -6.12  -4.55c
iter:  23 16:17:11  -323.430110c -6.10  -4.67c
iter:  24 16:21:26  -323.430109c -6.39  -4.83c
Writing to output.gpw (mode='')

iter:  25 16:27:04  -323.430109c -6.39  -4.88c
iter:  26 16:32:44  -323.430109c -6.47  -5.10c
iter:  27 16:36:37  -323.430110c -6.61  -5.26c
iter:  28 16:43:36  -323.430110c -6.75  -5.26c
iter:  29 16:48:20  -323.430110c -6.75  -5.26c
Writing to output.gpw (mode='')

iter:  30 16:51:28  -323.430110c -6.97  -5.23c
iter:  31 16:55:50  -323.430110c -7.01  -5.19c
iter:  32 17:01:34  -323.430110c -6.93  -5.19c
iter:  33 17:06:37  -323.430110c -6.90  -5.23c
iter:  34 17:11:59  -323.430110c -7.20  -5.21c
Writing to output.gpw (mode='')

iter:  35 17:17:35  -323.430110c -7.25  -5.22c
iter:  36 17:22:55  -323.430110c -7.24  -5.28c
iter:  37 17:27:10  -323.430110c -7.49c -5.29c

Converged after 37 iterations.

Dipole moment: (-16.172428, -12.203631, 0.336761) |e|*Ang

Energy contributions relative to reference atoms: (reference = -13576.627914)

Kinetic:       +158.507679
Potential:     -154.148720
External:        +0.000000
XC:            -328.047178
Entropy (-ST):   -0.153064
Local:           +0.334641
--------------------------
Free energy:   -323.506642
Extrapolated:  -323.430110

Dipole-layer corrected work functions: 3.378147, 2.730777 eV

Showing only first 2 kpts
 Kpt  Band  Eigenvalues  Occupancy
  0    32     -3.30139    1.98577
  0    33     -3.22033    1.93005
  0    34     -2.89128    0.07368
  0    35     -2.79411    0.01090

  1    32     -3.08646    1.30950
  1    33     -3.04696    0.92513
  1    34     -3.01184    0.59786
  1    35     -3.00782    0.56468


Fermi level: -3.05446

No gap
Writing to output.gpw (mode='')


Forces in eV/Ang:
  0 Li    0.00201    0.00145   -0.27140
  1 Li   -0.00256   -0.00085   -0.27513
  2 Li    0.00041    0.00216   -0.27037
  3 Li   -0.00119   -0.00204   -0.27500
  4 Li    0.00193    0.00176   -0.27489
  5 Li   -0.00057    0.00220   -0.27511
  6 Li    0.00203    0.00039   -0.27137
  7 Li    0.00168   -0.00036   -0.27542
  8 Li   -0.00362   -0.00429   -0.27136
  9 Li    0.00182    0.00017    0.27331
 10 Li    0.00491    0.00311    0.27294
 11 Li   -0.00636   -0.00076    0.27160
 12 Li    0.00275    0.00632    0.27267
 13 Li   -0.00653   -0.00633    0.28159
 14 Li    0.00401    0.00177    0.27684
 15 Li   -0.00144   -0.00562    0.27134
 16 Li    0.00202    0.00331    0.27781
 17 Li   -0.00081   -0.00142    0.27087
 18 Li   -0.01865   -0.01750    0.02694
 19 Li    0.00219    0.00179   -0.00052
 20 Li    0.01457   -0.01544    0.02287
 21 Li    0.00216    0.00064   -0.00076
 22 Li   -0.00214   -0.00207   -0.00144
 23 Li   -0.00051   -0.00084   -0.00062
 24 Li   -0.01462    0.01345    0.02038
 25 Li    0.00072   -0.00053   -0.00060
 26 Li    0.01236    0.01327    0.02062
 27 Li   -0.01220   -0.02222    0.19411
 28 Li    0.00665    0.00229   -0.00726
 29 Li   -0.01149   -0.00175   -0.00165
 30 Li    0.00274    0.00537   -0.00296
 31 Li   -0.00370   -0.00408    0.00465
 32 Li   -0.00130    0.00256   -0.00167
 33 Li   -0.00148   -0.01400   -0.00717
 34 Li    0.00145   -0.00059   -0.00161
 35 Li    0.00098    0.00049   -0.00326
 36 O     0.09159   -0.15964    0.28952
 37 C     0.01045    0.02105   -0.03147
 38 C     0.01002    0.01234   -0.12250
 39 C     0.03752    0.14819   -0.00469
 40 C    -0.00853   -0.01604   -0.03537
 41 H    -0.04707   -0.05728   -0.07701
 42 H     0.09756   -0.01387   -0.02170
 43 H     0.01374   -0.03187   -0.05096
 44 H     0.00401    0.00682   -0.02954
 45 H    -0.05312    0.10549   -0.06533
 46 H     0.05059    0.13400   -0.17298
 47 H    -0.02515    0.01254   -0.00256
 48 H     0.01644    0.02303    0.01898
 49 H    -0.01075   -0.01095    0.02078
 50 H    -0.14819   -0.13724   -0.01141

System changes: positions 

Initializing position-dependent things.

Density initialized from wave functions
       .-----------------------.  
      /|                       |  
     / |                       |  
    /  |                       H  
   /   |                       |  
  /    |                       |  
 *     |                      C|  
 |     |H                   H  |  
 |     |                       |  
 |     |                      C|  
 |  H  |H              H C  H  |  
 |     |                       |  
 |     |                       |  
 | H   |               H C     |  
 |     |               Li      Li 
 |     |                       |  
 O H   |     Li      Li      Li|  
 |     |  Li      Li      Li   |  
 | Li  |   Li      Li          |  
 |     |Li      Li      Li     |  
 |     | Li                    |  
 |   LLi     LLi     LLi       |  
 |     |  Li      Li      Li   |  
 | Li  |   Li      Li          |  
 |     |Li      Li      Li     |  
 Li    | Li      Li            |  
 |    Li      Li      Li       |  
 |     |                       |  
 |     |                       |  
 |     |                       |  
 |     |                       |  
 |     |                       |  
 |     |                       |  
 |     .-----------------------.  
 |    /                       /   
 |   /                       /    
 |  /                       /     
 | /                       /      
 |/                       /       
 *-----------------------*        

Positions:
   0 Li     1.617037    1.617037   10.000000    ( 0.0000,  0.0000,  0.0000)
   1 Li     4.851111    1.617037   10.000000    ( 0.0000,  0.0000,  0.0000)
   2 Li     8.085185    1.617037   10.000000    ( 0.0000,  0.0000,  0.0000)
   3 Li     1.617037    4.851111   10.000000    ( 0.0000,  0.0000,  0.0000)
   4 Li     4.851111    4.851111   10.000000    ( 0.0000,  0.0000,  0.0000)
   5 Li     8.085185    4.851111   10.000000    ( 0.0000,  0.0000,  0.0000)
   6 Li     1.617037    8.085185   10.000000    ( 0.0000,  0.0000,  0.0000)
   7 Li     4.851111    8.085185   10.000000    ( 0.0000,  0.0000,  0.0000)
   8 Li     8.085185    8.085185   10.000000    ( 0.0000,  0.0000,  0.0000)
   9 Li     0.000000    0.000000   11.617037    ( 0.0000,  0.0000,  0.0000)
  10 Li     3.234074    0.000000   11.617037    ( 0.0000,  0.0000,  0.0000)
  11 Li     6.468148    0.000000   11.617037    ( 0.0000,  0.0000,  0.0000)
  12 Li     0.000000    3.234074   11.617037    ( 0.0000,  0.0000,  0.0000)
  13 Li     3.234074    3.234074   11.617037    ( 0.0000,  0.0000,  0.0000)
  14 Li     6.468148    3.234074   11.617037    ( 0.0000,  0.0000,  0.0000)
  15 Li     0.000000    6.468148   11.617037    ( 0.0000,  0.0000,  0.0000)
  16 Li     3.234074    6.468148   11.617037    ( 0.0000,  0.0000,  0.0000)
  17 Li     6.468148    6.468148   11.617037    ( 0.0000,  0.0000,  0.0000)
  18 Li     1.613229    1.613902   13.501489    ( 0.0000,  0.0000,  0.0000)
  19 Li     4.853502    1.617573   13.492979    ( 0.0000,  0.0000,  0.0000)
  20 Li     8.086683    1.615735   13.485326    ( 0.0000,  0.0000,  0.0000)
  21 Li     1.617315    4.853275   13.493089    ( 0.0000,  0.0000,  0.0000)
  22 Li     4.850723    4.850197   13.489410    ( 0.0000,  0.0000,  0.0000)
  23 Li     8.085227    4.851918   13.496198    ( 0.0000,  0.0000,  0.0000)
  24 Li     1.616027    8.086065   13.486872    ( 0.0000,  0.0000,  0.0000)
  25 Li     4.852297    8.085305   13.495529    ( 0.0000,  0.0000,  0.0000)
  26 Li     8.084896    8.085392   13.485733    ( 0.0000,  0.0000,  0.0000)
  27 Li    -0.008217   -0.016532   15.590909    ( 0.0000,  0.0000,  0.0000)
  28 Li     3.242822    0.004813   15.424866    ( 0.0000,  0.0000,  0.0000)
  29 Li     6.458121   -0.001664   15.435966    ( 0.0000,  0.0000,  0.0000)
  30 Li     0.005829    3.242650   15.430316    ( 0.0000,  0.0000,  0.0000)
  31 Li     3.228503    3.228006   15.436358    ( 0.0000,  0.0000,  0.0000)
  32 Li     6.465677    3.239147   15.430871    ( 0.0000,  0.0000,  0.0000)
  33 Li    -0.000729    6.456707   15.429913    ( 0.0000,  0.0000,  0.0000)
  34 Li     3.237702    6.466834   15.430801    ( 0.0000,  0.0000,  0.0000)
  35 Li     6.465572    6.465093   15.428554    ( 0.0000,  0.0000,  0.0000)
  36 O      9.714309    9.710787   18.396457    ( 0.0000,  0.0000,  0.0000)
  37 C      9.662984    9.712817   20.894875    ( 0.0000,  0.0000,  0.0000)
  38 C      9.675349    8.863829   22.177099    ( 0.0000,  0.0000,  0.0000)
  39 C      9.701890    8.889284   19.600953    ( 0.0000,  0.0000,  0.0000)
  40 C      9.693860    9.713364   23.450030    ( 0.0000,  0.0000,  0.0000)
  41 H      8.782746   10.365179   20.899152    ( 0.0000,  0.0000,  0.0000)
  42 H     10.524743   10.390385   20.913953    ( 0.0000,  0.0000,  0.0000)
  43 H     10.553249    8.209237   22.180299    ( 0.0000,  0.0000,  0.0000)
  44 H      8.798372    8.206268   22.197880    ( 0.0000,  0.0000,  0.0000)
  45 H     10.574381    8.217671   19.607872    ( 0.0000,  0.0000,  0.0000)
  46 H      8.811601    8.251353   19.541552    ( 0.0000,  0.0000,  0.0000)
  47 H     10.583783   10.347944   23.486578    ( 0.0000,  0.0000,  0.0000)
  48 H      8.812354   10.357309   23.502277    ( 0.0000,  0.0000,  0.0000)
  49 H      9.701515    9.080178   24.338744    ( 0.0000,  0.0000,  0.0000)
  50 H     10.473072   10.314889   18.455059    ( 0.0000,  0.0000,  0.0000)

Unit cell:
[...]
  6 Li   -0.00243    0.00173   -0.27275
  7 Li    0.00402    0.00267   -0.28335
  8 Li    0.00005   -0.00049   -0.27410
  9 Li   -0.00091   -0.00213    0.22081
 10 Li   -0.04116   -0.00319    0.31742
 11 Li    0.02662   -0.00713    0.32079
 12 Li   -0.00350   -0.04158    0.31401
 13 Li   -0.02957   -0.03358    0.31344
 14 Li    0.02323   -0.04608    0.32022
 15 Li   -0.00787    0.02417    0.32273
 16 Li   -0.04368    0.02477    0.32319
 17 Li    0.04248    0.04180    0.32749
 18 Li   -0.00334   -0.00274    0.00515
 19 Li    0.00425    0.00415    0.00160
 20 Li   -0.00101    0.00123   -0.00587
 21 Li    0.00417    0.00588    0.00129
 22 Li   -0.00207   -0.00279   -0.00140
 23 Li   -0.00029    0.00216    0.00897
 24 Li    0.00236   -0.00248   -0.00722
 25 Li    0.00045   -0.00010    0.00937
 26 Li   -0.00803   -0.00761   -0.01108
 27 Li    0.03424    0.03231   -0.02057
 28 Li   -0.01300    0.00689   -0.00977
 29 Li   -0.00012    0.00404    0.00541
 30 Li    0.00671   -0.01416   -0.00930
 31 Li   -0.00565   -0.00360    0.00806
 32 Li   -0.00044    0.00267    0.00451
 33 Li    0.00387    0.00101    0.00574
 34 Li    0.00504   -0.00288    0.00404
 35 Li   -0.00514   -0.00323    0.00555
 36 O    -0.02977   -0.00824   -0.06347
 37 C     0.03449   -0.01674   -0.02146
 38 C     0.01994    0.01747   -0.02701
 39 C    -0.01745   -0.02173    0.00737
 40 C    -0.01116    0.00518   -0.03708
 41 H     0.07657   -0.01164   -0.03976
 42 H    -0.03772    0.04036   -0.02740
 43 H    -0.01531    0.01404   -0.01947
 44 H     0.00442    0.03657   -0.00119
 45 H     0.02423    0.03464   -0.05627
 46 H     0.00706   -0.00917   -0.02335
 47 H    -0.00732   -0.01183   -0.01802
 48 H    -0.00268   -0.00950   -0.00482
 49 H    -0.01026   -0.02149   -0.01732
 50 H     0.04637   -0.01343   -0.01041

System changes: positions 

Initializing position-dependent things.

Density initialized from wave functions
       .-----------------------.  
      /|                       |  
     / |                       |  
    /  |                       |  
   /   |                       H  
  /    |                       |  
 *     |                       |  
 |     |H                   H C|  
 |     |                       |  
 |     |                       |  
 |  H  CH              H    H  |  
 |     |                       |  
 |     |                       |  
 |  H  |               H      Li  
 |     |       Li      LiC     |  
 |     |                       |  
 |  H  |     Li      Li      Li|  
 O     |  Li      Li      Li   |  
 |     |   Li      Li      Li  |  
 |     |Li      Li      Li     |  
 |     |                       |  
 |   LLi     LLi     LLi       |  
 |     |  Li      Li      Li   |  
 | Li  |   Li      Li          |  
 |     |Li      Li      Li     |  
 Li    | Li      Li            |  
 |    Li      Li      Li       |  
 |     |                       |  
 |     |                       |  
 |     |                       |  
 |     |                       |  
 |     |                       |  
 |     |                       |  
 |     .-----------------------.  
 |    /                       /   
 |   /                       /    
 |  /                       /     
 | /                       /      
 |/                       /       
 *-----------------------*        

Positions:
   0 Li     1.617037    1.617037   10.000000    ( 0.0000,  0.0000,  0.0000)
   1 Li     4.851111    1.617037   10.000000    ( 0.0000,  0.0000,  0.0000)
   2 Li     8.085185    1.617037   10.000000    ( 0.0000,  0.0000,  0.0000)
   3 Li     1.617037    4.851111   10.000000    ( 0.0000,  0.0000,  0.0000)
   4 Li     4.851111    4.851111   10.000000    ( 0.0000,  0.0000,  0.0000)
   5 Li     8.085185    4.851111   10.000000    ( 0.0000,  0.0000,  0.0000)
   6 Li     1.617037    8.085185   10.000000    ( 0.0000,  0.0000,  0.0000)
   7 Li     4.851111    8.085185   10.000000    ( 0.0000,  0.0000,  0.0000)
   8 Li     8.085185    8.085185   10.000000    ( 0.0000,  0.0000,  0.0000)
   9 Li     0.000000    0.000000   11.617037    ( 0.0000,  0.0000,  0.0000)
  10 Li     3.234074    0.000000   11.617037    ( 0.0000,  0.0000,  0.0000)
  11 Li     6.468148    0.000000   11.617037    ( 0.0000,  0.0000,  0.0000)
  12 Li     0.000000    3.234074   11.617037    ( 0.0000,  0.0000,  0.0000)
  13 Li     3.234074    3.234074   11.617037    ( 0.0000,  0.0000,  0.0000)
  14 Li     6.468148    3.234074   11.617037    ( 0.0000,  0.0000,  0.0000)
  15 Li     0.000000    6.468148   11.617037    ( 0.0000,  0.0000,  0.0000)
  16 Li     3.234074    6.468148   11.617037    ( 0.0000,  0.0000,  0.0000)
  17 Li     6.468148    6.468148   11.617037    ( 0.0000,  0.0000,  0.0000)
  18 Li     1.565787    1.563918   13.593430    ( 0.0000,  0.0000,  0.0000)
  19 Li     4.825424    1.610417   13.506440    ( 0.0000,  0.0000,  0.0000)
  20 Li     8.122023    1.547718   13.607826    ( 0.0000,  0.0000,  0.0000)
  21 Li     1.612251    4.818928   13.503948    ( 0.0000,  0.0000,  0.0000)
  22 Li     4.858371    4.859768   13.491791    ( 0.0000,  0.0000,  0.0000)
  23 Li     8.085684    4.821502   13.494533    ( 0.0000,  0.0000,  0.0000)
  24 Li     1.548213    8.121207   13.609799    ( 0.0000,  0.0000,  0.0000)
  25 Li     4.828117    8.088442   13.498838    ( 0.0000,  0.0000,  0.0000)
  26 Li     8.147027    8.145588   13.635965    ( 0.0000,  0.0000,  0.0000)
  27 Li    -0.185136   -0.210937   16.310418    ( 0.0000,  0.0000,  0.0000)
  28 Li     3.235565   -0.002903   15.520463    ( 0.0000,  0.0000,  0.0000)
  29 Li     6.345400   -0.009081   15.480862    ( 0.0000,  0.0000,  0.0000)
  30 Li    -0.003083    3.226680   15.522792    ( 0.0000,  0.0000,  0.0000)
  31 Li     3.241601    3.238931   15.462746    ( 0.0000,  0.0000,  0.0000)
  32 Li     6.452558    3.244580   15.454007    ( 0.0000,  0.0000,  0.0000)
  33 Li    -0.010332    6.328148   15.465276    ( 0.0000,  0.0000,  0.0000)
  34 Li     3.238186    6.455059   15.455363    ( 0.0000,  0.0000,  0.0000)
  35 Li     6.493012    6.488629   15.464814    ( 0.0000,  0.0000,  0.0000)
  36 O      9.876071    9.798457   18.235348    ( 0.0000,  0.0000,  0.0000)
  37 C      9.693188    9.761467   20.717261    ( 0.0000,  0.0000,  0.0000)
  38 C      9.669590    8.866877   21.967554    ( 0.0000,  0.0000,  0.0000)
  39 C      9.759088    8.959945   19.420778    ( 0.0000,  0.0000,  0.0000)
  40 C      9.678349    9.688217   23.260597    ( 0.0000,  0.0000,  0.0000)
  41 H      8.809779   10.413269   20.709104    ( 0.0000,  0.0000,  0.0000)
  42 H     10.579922   10.407958   20.775210    ( 0.0000,  0.0000,  0.0000)
  43 H     10.540218    8.200916   21.955520    ( 0.0000,  0.0000,  0.0000)
  44 H      8.787337    8.216520   21.941437    ( 0.0000,  0.0000,  0.0000)
  45 H     10.594177    8.248610   19.453181    ( 0.0000,  0.0000,  0.0000)
  46 H      8.841616    8.388038   19.268996    ( 0.0000,  0.0000,  0.0000)
  47 H     10.565786   10.325286   23.312962    ( 0.0000,  0.0000,  0.0000)
  48 H      8.802147   10.339292   23.317465    ( 0.0000,  0.0000,  0.0000)
  49 H      9.680695    9.048971   24.144719    ( 0.0000,  0.0000,  0.0000)
  50 H     10.564151   10.466077   18.376991    ( 0.0000,  0.0000,  0.0000)

Unit cell:
           periodic     x           y           z      points  spacing
  1. axis:    yes    9.702222    0.000000    0.000000    60     0.1617
  2. axis:    yes    0.000000    9.702222    0.000000    60     0.1617
  3. axis:    no     0.000000    0.000000   26.851111   168     0.1598

  Lengths:   9.702222   9.702222  26.851111
  Angles:   90.000000  90.000000  90.000000

Effective grid spacing dv^(1/3) = 0.1611

     iter     time        total  log10-change:
                         energy  eigst   dens
iter:   1 13:37:24  -324.193165  -0.35
iter:   2 13:40:53  -323.780513  -0.95  -1.26
iter:   3 13:46:01  -323.698422  -2.02  -1.55
iter:   4 13:50:13  -323.684021  -1.98  -1.92
Writing to output.gpw (mode='')

iter:   5 13:56:26  -323.681811c -1.89  -2.09
iter:   6 14:01:27  -323.676108c -1.94  -2.14
iter:   7 14:05:32  -323.676529c -1.67  -2.50
iter:   8 14:10:32  -323.676827c -2.42  -2.55
iter:   9 14:18:25  -323.677879c -2.21  -2.58
Writing to output.gpw (mode='')

iter:  10 14:23:50  -323.677127c -2.87  -2.45
iter:  11 14:28:29  -323.676776c -3.14  -2.54
iter:  12 14:32:58  -323.676439c -3.09  -2.62
iter:  13 14:37:05  -323.676653c -2.86  -2.89
iter:  14 14:40:46  -323.676748c -3.23  -3.21
Writing to output.gpw (mode='')

iter:  15 14:43:47  -323.676512c -3.74  -3.21
iter:  16 14:46:20  -323.676591c -4.22  -3.16
iter:  17 14:48:45  -323.676654c -3.85  -3.53
iter:  18 14:51:17  -323.676624c -4.61  -3.59
iter:  19 14:56:11  -323.676623c -4.68  -3.66
Writing to output.gpw (mode='')

iter:  20 14:59:31  -323.676634c -4.81  -3.77
iter:  21 15:03:14  -323.676639c -5.03  -3.89
iter:  22 15:06:11  -323.676630c -5.26  -3.94
iter:  23 15:08:54  -323.676628c -5.33  -4.05c
iter:  24 15:11:30  -323.676628c -5.39  -4.18c
Writing to output.gpw (mode='')

iter:  25 15:14:07  -323.676626c -5.67  -4.31c
iter:  26 15:17:15  -323.676625c -5.58  -4.34c
iter:  27 15:20:00  -323.676623c -5.74  -4.38c
iter:  28 15:22:47  -323.676626c -5.99  -4.51c
iter:  29 15:25:21  -323.676626c -6.26  -4.63c
Writing to output.gpw (mode='')

iter:  30 15:29:49  -323.676628c -6.15  -4.76c
iter:  31 15:34:24  -323.676628c -6.28  -4.82c
iter:  32 15:41:14  -323.676628c -6.48  -4.82c
iter:  33 15:47:30  -323.676628c -6.76  -4.82c
iter:  34 15:53:23  -323.676628c -6.76  -4.86c
Writing to output.gpw (mode='')

iter:  35 15:58:24  -323.676629c -6.99  -4.86c
iter:  36 16:04:00  -323.676628c -7.07  -5.08c
iter:  37 16:08:58  -323.676628c -7.20  -5.29c
iter:  38 16:15:34  -323.676628c -7.12  -5.39c
iter:  39 16:22:02  -323.676628c -7.24  -5.49c
Writing to output.gpw (mode='')

iter:  40 16:27:31  -323.676628c -7.35  -5.52c
iter:  41 16:31:32  -323.676629c -7.44c -5.61c

Converged after 41 iterations.

Dipole moment: (-24.712705, -15.430364, 0.496612) |e|*Ang

Energy contributions relative to reference atoms: (reference = -13576.627914)

Kinetic:       +156.949258
Potential:     -153.385615
External:        +0.000000
XC:            -327.502595
Entropy (-ST):   -0.161100
Local:           +0.342874
--------------------------
Free energy:   -323.757179
Extrapolated:  -323.676629

Dipole-layer corrected work functions: 3.368191, 2.413531 eV

Showing only first 2 kpts
 Kpt  Band  Eigenvalues  Occupancy
  0    32     -3.09044    1.96373
  0    33     -3.02762    1.87813
  0    34     -2.76218    0.14171
  0    35     -2.59005    0.00487

  1    32     -2.95926    1.59411
  1    33     -2.91203    1.20856
  1    34     -2.84103    0.53918
  1    35     -2.83038    0.45955


Fermi level: -2.89086

No gap
Writing to output.gpw (mode='')


Forces in eV/Ang:
  0 Li    0.00347    0.00342   -0.27318
  1 Li   -0.00318   -0.00275   -0.28355
  2 Li    0.00144   -0.00182   -0.27219
  3 Li   -0.00293   -0.00285   -0.28334
  4 Li    0.00237    0.00260   -0.25866
  5 Li    0.00272    0.00428   -0.28309
  6 Li   -0.00236    0.00149   -0.27368
  7 Li    0.00396    0.00297   -0.28319
  8 Li    0.00031   -0.00014   -0.27545
  9 Li   -0.00044   -0.00216    0.23038
 10 Li   -0.04337   -0.00551    0.31940
 11 Li    0.02572   -0.00885    0.32790
 12 Li   -0.00528   -0.04369    0.31635
 13 Li   -0.02632   -0.02992    0.31653
 14 Li    0.02031   -0.04921    0.32657
 15 Li   -0.00909    0.02352    0.32957
 16 Li   -0.04633    0.02209    0.32934
 17 Li    0.04481    0.04520    0.33499
 18 Li   -0.00914   -0.00767    0.00344
 19 Li    0.00882    0.00743   -0.00636
 20 Li    0.00088    0.00070   -0.01154
 21 Li    0.00752    0.01019   -0.00668
 22 Li   -0.00472   -0.00564   -0.00826
 23 Li   -0.00104    0.00448    0.00353
 24 Li    0.00204   -0.00088   -0.01434
 25 Li    0.00285   -0.00111    0.00356
 26 Li   -0.01037   -0.00928   -0.02216
 27 Li    0.05151    0.04775   -0.02206
 28 Li   -0.01624    0.00935   -0.01785
 29 Li    0.00847    0.00537    0.00582
 30 Li    0.00922   -0.01711   -0.01606
 31 Li   -0.00909   -0.00649    0.01457
 32 Li    0.00043    0.00343    0.00760
 33 Li    0.00533    0.01090    0.00548
 34 Li    0.00660   -0.00259    0.00708
 35 Li   -0.00843   -0.00576    0.00746
 36 O    -0.06910   -0.04988    0.01362
 37 C     0.03040   -0.01322   -0.01805
 38 C     0.01761    0.02528   -0.03254
 39 C    -0.02961   -0.03301    0.01379
 40 C    -0.01661   -0.00606   -0.01989
 41 H     0.10298   -0.03064   -0.05123
 42 H    -0.05819    0.03803   -0.02339
 43 H    -0.00619    0.02418   -0.02741
 44 H    -0.00824    0.04606    0.00044
 45 H     0.02142    0.07202   -0.07535
 46 H    -0.00979    0.00370   -0.03389
 47 H    -0.01239   -0.01660   -0.02085
 48 H    -0.00053   -0.01091    0.01381
 49 H    -0.02181   -0.03082   -0.02275
 50 H     0.06651   -0.02537    0.00028

System changes: positions 

Initializing position-dependent things.

Density initialized from wave functions
       .-----------------------.  
      /|                       |  
     / |                       |  
    /  |                       |  
   /   |                       H  
  /    |                       |  
 *     |                       |  
 |     |H                   H C|  
 |     |                       |  
 |     |                       |  
 |  H  CH              H    H  |  
 |     |                       |  
 |     |                       |  
 |  H  |               H      Li  
 |     |       Li      LiC     |  
 |     |                       |  
 |  H  |     Li      Li      Li|  
 O     |  Li      Li      Li   |  
 |     |   Li      Li      Li  |  
 |     |Li      Li      Li     |  
 |     |                       |  
 |   LLi     LLi     LLi       |  
 |     |  Li      Li      Li   |  
 | Li  |   Li      Li          |  
 |     |Li      Li      Li     |  
 Li    | Li      Li            |  
 |    Li      Li      Li       |  
 |     |                       |  
 |     |                       |  
 |     |                       |  
 |     |                       |  
 |     |                       |  
 |     |                       |  
 |     .-----------------------.  
 |    /                       /   
 |   /                       /    
 |  /                       /     
 | /                       /      
 |/                       /       
 *-----------------------*        

Positions:
   0 Li     1.617037    1.617037   10.000000    ( 0.0000,  0.0000,  0.0000)
   1 Li     4.851111    1.617037   10.000000    ( 0.0000,  0.0000,  0.0000)
   2 Li     8.085185    1.617037   10.000000    ( 0.0000,  0.0000,  0.0000)
   3 Li     1.617037    4.851111   10.000000    ( 0.0000,  0.0000,  0.0000)
   4 Li     4.851111    4.851111   10.000000    ( 0.0000,  0.0000,  0.0000)
   5 Li     8.085185    4.851111   10.000000    ( 0.0000,  0.0000,  0.0000)
   6 Li     1.617037    8.085185   10.000000    ( 0.0000,  0.0000,  0.0000)
   7 Li     4.851111    8.085185   10.000000    ( 0.0000,  0.0000,  0.0000)
   8 Li     8.085185    8.085185   10.000000    ( 0.0000,  0.0000,  0.0000)
   9 Li     0.000000    0.000000   11.617037    ( 0.0000,  0.0000,  0.0000)
  10 Li     3.234074    0.000000   11.617037    ( 0.0000,  0.0000,  0.0000)
  11 Li     6.468148    0.000000   11.617037    ( 0.0000,  0.0000,  0.0000)
  12 Li     0.000000    3.234074   11.617037    ( 0.0000,  0.0000,  0.0000)
  13 Li     3.234074    3.234074   11.617037    ( 0.0000,  0.0000,  0.0000)
  14 Li     6.468148    3.234074   11.617037    ( 0.0000,  0.0000,  0.0000)
  15 Li     0.000000    6.468148   11.617037    ( 0.0000,  0.0000,  0.0000)
  16 Li     3.234074    6.468148   11.617037    ( 0.0000,  0.0000,  0.0000)
  17 Li     6.468148    6.468148   11.617037    ( 0.0000,  0.0000,  0.0000)
  18 Li     1.566416    1.564490   13.595148    ( 0.0000,  0.0000,  0.0000)
  19 Li     4.825134    1.610359   13.508909    ( 0.0000,  0.0000,  0.0000)
  20 Li     8.121454    1.548031   13.608383    ( 0.0000,  0.0000,  0.0000)
  21 Li     1.612176    4.818948   13.506394    ( 0.0000,  0.0000,  0.0000)
  22 Li     4.858609    4.859919   13.493403    ( 0.0000,  0.0000,  0.0000)
  23 Li     8.085794    4.821345   13.497706    ( 0.0000,  0.0000,  0.0000)
  24 Li     1.548675    8.120454   13.610428    ( 0.0000,  0.0000,  0.0000)
  25 Li     4.827657    8.088641   13.502126    ( 0.0000,  0.0000,  0.0000)
  26 Li     8.146170    8.144680   13.636680    ( 0.0000,  0.0000,  0.0000)
  27 Li    -0.183533   -0.209185   16.308121    ( 0.0000,  0.0000,  0.0000)
  28 Li     3.234231   -0.002302   15.520412    ( 0.0000,  0.0000,  0.0000)
  29 Li     6.343518   -0.008809   15.481424    ( 0.0000,  0.0000,  0.0000)
  30 Li    -0.002529    3.225133   15.522565    ( 0.0000,  0.0000,  0.0000)
  31 Li     3.241346    3.238877   15.462508    ( 0.0000,  0.0000,  0.0000)
  32 Li     6.452254    3.244918   15.453805    ( 0.0000,  0.0000,  0.0000)
  33 Li    -0.010123    6.326158   15.465888    ( 0.0000,  0.0000,  0.0000)
  34 Li     3.238725    6.454483   15.455075    ( 0.0000,  0.0000,  0.0000)
  35 Li     6.492882    6.488636   15.464986    ( 0.0000,  0.0000,  0.0000)
  36 O      9.874571    9.800690   18.233394    ( 0.0000,  0.0000,  0.0000)
  37 C      9.694545    9.762160   20.713306    ( 0.0000,  0.0000,  0.0000)
  38 C      9.669461    8.868019   21.964045    ( 0.0000,  0.0000,  0.0000)
  39 C      9.760363    8.959930   19.416912    ( 0.0000,  0.0000,  0.0000)
  40 C      9.677747    9.687657   23.259417    ( 0.0000,  0.0000,  0.0000)
  41 H      8.811413   10.413093   20.703935    ( 0.0000,  0.0000,  0.0000)
  42 H     10.580658   10.409321   20.770372    ( 0.0000,  0.0000,  0.0000)
  43 H     10.538386    8.200526   21.950804    ( 0.0000,  0.0000,  0.0000)
  44 H      8.787474    8.217296   21.936325    ( 0.0000,  0.0000,  0.0000)
  45 H     10.596108    8.248676   19.447285    ( 0.0000,  0.0000,  0.0000)
  46 H      8.842198    8.389938   19.264166    ( 0.0000,  0.0000,  0.0000)
  47 H     10.565169   10.324612   23.311456    ( 0.0000,  0.0000,  0.0000)
  48 H      8.801451   10.338815   23.314868    ( 0.0000,  0.0000,  0.0000)
  49 H      9.680384    9.048826   24.145023    ( 0.0000,  0.0000,  0.0000)
  50 H     10.566143   10.465226   18.372267    ( 0.0000,  0.0000,  0.0000)

Unit cell:
           periodic     x           y           z      points  spacing
  1. axis:    yes    9.702222    0.000000    0.000000    60     0.1617
  2. axis:    yes    0.000000    9.702222    0.000000    60     0.1617
  3. axis:    no     0.000000    0.000000   26.851111   168     0.1598

  Lengths:   9.702222   9.702222  26.851111
  Angles:   90.000000  90.000000  90.000000

Effective grid spacing dv^(1/3) = 0.1611

     iter     time        total  log10-change:
                         energy  eigst   dens
iter:   1 16:36:53  -323.690775  -1.99
iter:   2 16:43:43  -323.681054  -2.50  -2.05
iter:   3 16:49:23  -323.678829c -3.65  -2.35
iter:   4 16:54:32  -323.678849c -4.01  -2.82
Writing to output.gpw (mode='')

iter:   5 16:58:53  -323.678388c -3.49  -2.81
iter:   6 17:04:43  -323.678424c -3.87  -3.02
iter:   7 17:10:06  -323.678457c -3.76  -2.99
iter:   8 17:14:25  -323.678436c -4.16  -2.93
iter:   9 17:18:22  -323.678174c -3.38  -2.94
Writing to output.gpw (mode='')

iter:  10 17:21:48  -323.678175c -4.38  -2.89
iter:  11 17:26:38  -323.678539c -3.15  -2.99
iter:  12 17:31:57  -323.678206c -3.92  -3.09
iter:  13 17:36:58  -323.678238c -4.64  -3.44
iter:  14 17:42:39  -323.678242c -5.08  -3.52
Writing to output.gpw (mode='')

iter:  15 17:50:33  -323.678271c -4.47  -3.57
iter:  16 17:56:38  -323.678217c -4.84  -3.67
iter:  17 18:01:00  -323.678222c -5.33  -3.80
iter:  18 18:06:02  -323.678255c -5.27  -3.86
iter:  19 18:10:13  -323.678236c -5.65  -4.09c
Writing to output.gpw (mode='')

iter:  20 18:14:15  -323.678237c -5.86  -4.22c
iter:  21 18:17:55  -323.678236c -6.14  -4.27c
iter:  22 18:21:11  -323.678241c -6.11  -4.44c
iter:  23 18:24:47  -323.678239c -6.58  -4.54c
iter:  24 18:29:11  -323.678238c -6.89  -4.79c
