
  ___ ___ ___ _ _ _  
 |   |   |_  | | | | 
 | | | | | . | | | | 
 |__ |  _|___|_____|  22.8.0
 |___|_|             

User:   vazumah@d018
Date:   Wed Mar  8 12:31:22 2023
Arch:   x86_64
Pid:    45761
CWD:    /home/vazumah/Research_Projects/LiMEAS/LiNRR_proton_donors/on_pure_surface/Li_BCC100/adsorbates/ethanediol_x/bridge/8.085_1.617
Python: 3.10.6
gpaw:   /home/vazumah/anaconda3/envs/NAME/lib/python3.10/site-packages/gpaw
_gpaw:  /home/vazumah/anaconda3/envs/NAME/lib/python3.10/site-packages/
        _gpaw.cpython-310-x86_64-linux-gnu.so
ase:    /home/vazumah/anaconda3/envs/NAME/lib/python3.10/site-packages/ase (version 3.22.1)
numpy:  /home/vazumah/anaconda3/envs/NAME/lib/python3.10/site-packages/numpy (version 1.23.3)
scipy:  /home/vazumah/anaconda3/envs/NAME/lib/python3.10/site-packages/scipy (version 1.9.1)
libxc:  5.2.3
units:  Angstrom and eV
cores: 32
OpenMP: True
OMP_NUM_THREADS: 1

Input parameters:
  h: 0.16
  kpts: {size: [4, 4, 1]}
  occupations: {name: fermi-dirac,
                width: 0.05}
  poissonsolver: {dipolelayer: xy}
  xc: BEEF-vdW

System changes: positions, numbers, cell, pbc, initial_charges, initial_magmoms 

Initialize ...

species:
  Li:
    name: Lithium
    id: 830b4218f175192f93f959cfc0aad614
    Z: 3.0
    valence: 1
    core: 2
    charge: 0.0
    file: /home/vazumah/anaconda3/envs/NAME/share/gpaw/Li.PBE.gz
    compensation charges: {type: gauss,
                           rc: 0.33,
                           lmax: 2}
    cutoffs: {filter: 1.91,
              core: 2.55}
    valence states:
      #              energy  rcut
      - 2s(1.00)    -2.874   1.058
      - 2p(0.00)    -1.090   1.058
      -  s          24.337   1.058
  
    # Using partial waves for Li as LCAO basis

  O:
    name: Oxygen
    id: 32ecd46bf208036f09c70b0ec9a88b78
    Z: 8.0
    valence: 6
    core: 2
    charge: 0.0
    file: /home/vazumah/anaconda3/envs/NAME/share/gpaw/O.PBE.gz
    compensation charges: {type: gauss,
                           rc: 0.21,
                           lmax: 2}
    cutoffs: {filter: 1.17,
              core: 0.83}
    valence states:
      #              energy  rcut
      - 2s(2.00)   -23.961   0.688
      - 2p(4.00)    -9.029   0.598
      -  s           3.251   0.688
      -  p          18.182   0.598
      -  d           0.000   0.619
  
    # Using partial waves for O as LCAO basis

  C:
    name: Carbon
    id: 4aa54d4b901d75f77cc0ea3eec22967b
    Z: 6.0
    valence: 4
    core: 2
    charge: 0.0
    file: /home/vazumah/anaconda3/envs/NAME/share/gpaw/C.PBE.gz
    compensation charges: {type: gauss,
                           rc: 0.20,
                           lmax: 2}
    cutoffs: {filter: 1.14,
              core: 1.14}
    valence states:
      #              energy  rcut
      - 2s(2.00)   -13.751   0.635
      - 2p(2.00)    -5.284   0.635
      -  s          13.461   0.635
      -  p          21.927   0.635
      -  d           0.000   0.635
  
    # Using partial waves for C as LCAO basis

  H:
    name: Hydrogen
    id: d65de229564ff8ea4db303e23b6d1ecf
    Z: 1.0
    valence: 1
    core: 0
    charge: 0.0
    file: /home/vazumah/anaconda3/envs/NAME/share/gpaw/H.PBE.gz
    compensation charges: {type: gauss,
                           rc: 0.15,
                           lmax: 2}
    cutoffs: {filter: 0.85,
              core: 0.53}
    valence states:
      #              energy  rcut
      - 1s(1.00)    -6.494   0.476
      -  s          20.717   0.476
      -  p           0.000   0.476
  
    # Using partial waves for H as LCAO basis

Reference energy: -13512.263335  # eV

Spin-paired calculation

Convergence criteria:
 Maximum [total energy] change in last 3 cyles: 0.0005 eV / electron
 Maximum integral of absolute [dens]ity change: 0.0001 electrons / valence electron
 Maximum integral of absolute [eigenst]ate change: 4e-08 eV^2 / valence electron
 Maximum number of scf [iter]ations: 333
 (Square brackets indicate name in SCF output, whereas a 'c' in
 the SCF output indicates the quantity has converged.)

Symmetries present (total): 1

  ( 1  0  0)
  ( 0  1  0)
  ( 0  0  1)

16 k-points: 4 x 4 x 1 Monkhorst-Pack grid
8 k-points in the irreducible part of the Brillouin zone
       k-points in crystal coordinates                weights
   0:     0.12500000   -0.37500000    0.00000000          2/16
   1:     0.12500000   -0.12500000    0.00000000          2/16
   2:     0.12500000    0.12500000    0.00000000          2/16
   3:     0.12500000    0.37500000    0.00000000          2/16
   4:     0.37500000   -0.37500000    0.00000000          2/16
   5:     0.37500000   -0.12500000    0.00000000          2/16
   6:     0.37500000    0.12500000    0.00000000          2/16
   7:     0.37500000    0.37500000    0.00000000          2/16

Wave functions: Uniform real-space grid
  Kinetic energy operator: 6*3+1=19 point O(h^6) finite-difference Laplacian
  ScaLapack parameters: grid=1x1, blocksize=None
  Wavefunction extrapolation:
    Improved wavefunction reuse through dual PAW basis 

Occupation numbers: Fermi-Dirac:
  width: 0.0500  # eV
 

Eigensolver
   Davidson(niter=2) 

Densities:
  Coarse grid: 60*60*156 grid
  Fine grid: 120*120*312 grid
  Total Charge: 0.000000 

Density mixing:
  Method: separate
  Backend: pulay
  Linear mixing parameter: 0.05
  old densities: 5
  Damping of long wavelength oscillations: 50 

Hamiltonian:
  XC and Coulomb potentials evaluated on a 120*120*312 grid
  Using the BEEF-vdW Exchange-Correlation functional
  Interpolation: tri-quintic (5. degree polynomial)
  Poisson solver: FastPoissonSolver using
    Stencil: 6*3+1=19 point O(h^6) finite-difference Laplacian
    FFT axes: [0, 1]
    FST axes: [2]

Dipole correction along z-axis 

XC parameters: BEEF-vdW with 2 nearest neighbor stencil

Memory estimate:
  Process memory now: 212.78 MiB
  Calculator: 298.81 MiB
    Density: 88.21 MiB
      Arrays: 27.47 MiB
      Localized functions: 50.30 MiB
      Mixer: 10.44 MiB
    Hamiltonian: 21.93 MiB
      Arrays: 17.96 MiB
      XC: 0.00 MiB
      Poisson: 0.00 MiB
      vbar: 3.97 MiB
    Wavefunctions: 188.67 MiB
      Arrays psit_nG: 87.67 MiB
      Eigensolver: 98.38 MiB
      Projections: 0.04 MiB
      Projectors: 2.58 MiB

Total number of cores used: 32
Parallelization over k-points: 8
Domain decomposition: 1 x 1 x 4

Number of atoms: 46
Number of atomic orbitals: 166
Number of bands in calculation: 42
Number of valence electrons: 62
Bands to converge: occupied

... initialized

Initializing position-dependent things.

Density initialized from atomic densities
Creating initial wave functions:
  42 bands from LCAO basis set

       .-----------------------.  
      /|                       |  
     / |                       |  
    /  |                       |  
   /   |                       |  
  /    |                       |  
 *     |                       |  
 |     |                       |  
 |     |                       |  
 |     |                       |  
 |     |                       |  
 |     |          H            |  
 |     |         C    HH       |  
 |     |       O     CO        |  
 |   Li|     Li H    Hi        |  
 |     |  Li      Li      Li   |  
 | Li  |   Li      Li          |  
 |     |Li      Li      Li     |  
 Li    | Li      Li            |  
 |   LLi     LLi     LLi       |  
 |     |  Li      Li      Li   |  
 | Li  |   Li      Li          |  
 |     |Li      Li      Li     |  
 Li    | Li      Li            |  
 |    Li      Li      Li       |  
 |     |                       |  
 |     |                       |  
 |     |                       |  
 |     |                       |  
 |     |                       |  
 |     |                       |  
 |     .-----------------------.  
 |    /                       /   
 |   /                       /    
 |  /                       /     
 | /                       /      
 |/                       /       
 *-----------------------*        

Positions:
   0 Li     1.617037    1.617037   10.000000    ( 0.0000,  0.0000,  0.0000)
   1 Li     4.851111    1.617037   10.000000    ( 0.0000,  0.0000,  0.0000)
   2 Li     8.085185    1.617037   10.000000    ( 0.0000,  0.0000,  0.0000)
   3 Li     1.617037    4.851111   10.000000    ( 0.0000,  0.0000,  0.0000)
   4 Li     4.851111    4.851111   10.000000    ( 0.0000,  0.0000,  0.0000)
   5 Li     8.085185    4.851111   10.000000    ( 0.0000,  0.0000,  0.0000)
   6 Li     1.617037    8.085185   10.000000    ( 0.0000,  0.0000,  0.0000)
   7 Li     4.851111    8.085185   10.000000    ( 0.0000,  0.0000,  0.0000)
   8 Li     8.085185    8.085185   10.000000    ( 0.0000,  0.0000,  0.0000)
   9 Li     0.000000    0.000000   11.617037    ( 0.0000,  0.0000,  0.0000)
  10 Li     3.234074    0.000000   11.617037    ( 0.0000,  0.0000,  0.0000)
  11 Li     6.468148    0.000000   11.617037    ( 0.0000,  0.0000,  0.0000)
  12 Li     0.000000    3.234074   11.617037    ( 0.0000,  0.0000,  0.0000)
  13 Li     3.234074    3.234074   11.617037    ( 0.0000,  0.0000,  0.0000)
  14 Li     6.468148    3.234074   11.617037    ( 0.0000,  0.0000,  0.0000)
  15 Li     0.000000    6.468148   11.617037    ( 0.0000,  0.0000,  0.0000)
  16 Li     3.234074    6.468148   11.617037    ( 0.0000,  0.0000,  0.0000)
  17 Li     6.468148    6.468148   11.617037    ( 0.0000,  0.0000,  0.0000)
  18 Li     1.617038    1.617038   13.469728    ( 0.0000,  0.0000,  0.0000)
  19 Li     4.851111    1.617038   13.469729    ( 0.0000,  0.0000,  0.0000)
  20 Li     8.085184    1.617038   13.469728    ( 0.0000,  0.0000,  0.0000)
  21 Li     1.617038    4.851111   13.469729    ( 0.0000,  0.0000,  0.0000)
  22 Li     4.851111    4.851111   13.469730    ( 0.0000,  0.0000,  0.0000)
  23 Li     8.085184    4.851111   13.469729    ( 0.0000,  0.0000,  0.0000)
  24 Li     1.617038    8.085184   13.469728    ( 0.0000,  0.0000,  0.0000)
  25 Li     4.851111    8.085184   13.469729    ( 0.0000,  0.0000,  0.0000)
  26 Li     8.085184    8.085184   13.469728    ( 0.0000,  0.0000,  0.0000)
  27 Li    -0.000000   -0.000000   15.445939    ( 0.0000,  0.0000,  0.0000)
  28 Li     3.234074    0.000000   15.445939    ( 0.0000,  0.0000,  0.0000)
  29 Li     6.468148    0.000000   15.445939    ( 0.0000,  0.0000,  0.0000)
  30 Li     0.000000    3.234074   15.445939    ( 0.0000,  0.0000,  0.0000)
  31 Li     3.234076    3.234076   15.445938    ( 0.0000,  0.0000,  0.0000)
  32 Li     6.468146    3.234076   15.445938    ( 0.0000,  0.0000,  0.0000)
  33 Li     0.000000    6.468148   15.445939    ( 0.0000,  0.0000,  0.0000)
  34 Li     3.234076    6.468146   15.445938    ( 0.0000,  0.0000,  0.0000)
  35 Li     6.468146    6.468146   15.445938    ( 0.0000,  0.0000,  0.0000)
  36 O      8.085185    1.617037   18.445939    ( 0.0000,  0.0000,  0.0000)
  37 O      5.186987    1.661030   18.213250    ( 0.0000,  0.0000,  0.0000)
  38 C      7.356624    2.788249   18.033562    ( 0.0000,  0.0000,  0.0000)
  39 C      5.947439    2.801939   18.602713    ( 0.0000,  0.0000,  0.0000)
  40 H      7.884750    3.702639   18.326395    ( 0.0000,  0.0000,  0.0000)
  41 H      7.323875    2.740951   16.943996    ( 0.0000,  0.0000,  0.0000)
  42 H      5.410720    3.676205   18.226232    ( 0.0000,  0.0000,  0.0000)
  43 H      5.997169    2.877440   19.701774    ( 0.0000,  0.0000,  0.0000)
  44 H      8.254610    1.691552   19.393261    ( 0.0000,  0.0000,  0.0000)
  45 H      5.766453    0.893910   18.309689    ( 0.0000,  0.0000,  0.0000)

Unit cell:
           periodic     x           y           z      points  spacing
  1. axis:    yes    9.702222    0.000000    0.000000    60     0.1617
  2. axis:    yes    0.000000    9.702222    0.000000    60     0.1617
  3. axis:    no     0.000000    0.000000   24.851111   156     0.1593

  Lengths:   9.702222   9.702222  24.851111
  Angles:   90.000000  90.000000  90.000000

Effective grid spacing dv^(1/3) = 0.1609

     iter     time        total  log10-change:
                         energy  eigst   dens
iter:   1 12:32:17  -487.041797
iter:   2 12:32:48  -128.019936  +2.45  -0.06
iter:   3 12:33:21   -82.054995  +3.24  -0.19
iter:   4 12:33:53  -144.895525  +2.90  -0.21
Writing to output.gpw (mode='')

iter:   5 12:34:27  -227.217613  +2.84  -0.33
iter:   6 12:34:59  -271.789644  +2.80  -0.43
iter:   7 12:35:32  -322.771741  +2.51  -0.59
iter:   8 12:36:03  -336.458430  +2.28  -0.49
iter:   9 12:36:34  -317.624090  +2.02  -0.48
Writing to output.gpw (mode='')

iter:  10 12:37:06  -321.295899  +1.67  -0.52
iter:  11 12:37:37  -377.537490  +2.09  -0.48
iter:  12 12:38:05  -335.981263  +1.28  -0.43
iter:  13 12:38:31  -302.616574  +1.50  -0.47
iter:  14 12:38:58  -298.497755  +0.81  -0.64
Writing to output.gpw (mode='')

iter:  15 12:39:25  -301.695239  +0.70  -0.65
iter:  16 12:40:21  -295.997984  +0.66  -0.65
iter:  17 12:40:51  -295.663479  +0.32  -0.80
iter:  18 12:41:23  -294.754514  -0.09  -0.81
iter:  19 12:42:00  -292.031212  +0.42  -0.82
Writing to output.gpw (mode='')

iter:  20 12:42:52  -292.383564  -0.16  -0.91
iter:  21 12:43:42  -291.239532  +0.12  -0.98
iter:  22 12:44:31  -290.719003  +0.54  -1.09
iter:  23 12:45:20  -290.582889  -0.28  -1.22
iter:  24 12:46:11  -290.544992  -0.36  -1.35
Writing to output.gpw (mode='')

iter:  25 12:46:59  -290.488707  -0.46  -1.41
iter:  26 12:47:50  -290.498016  -0.62  -1.51
iter:  27 12:48:41  -290.477795c -1.24  -1.64
iter:  28 12:49:53  -290.473682c -1.09  -1.77
iter:  29 12:50:55  -290.471086c -1.53  -1.98
Writing to output.gpw (mode='')

iter:  30 12:52:12  -290.471832c -1.53  -2.01
iter:  31 12:53:25  -290.471597c -1.41  -2.09
iter:  32 12:54:34  -290.470878c -1.97  -2.20
iter:  33 12:55:36  -290.471101c -2.06  -2.29
iter:  34 12:56:37  -290.472419c -2.36  -2.35
Writing to output.gpw (mode='')

iter:  35 12:57:38  -290.472936c -2.31  -2.64
iter:  36 12:58:53  -290.473365c -2.50  -2.76
iter:  37 12:59:53  -290.473701c -2.47  -2.77
iter:  38 13:01:07  -290.474057c -2.79  -2.92
iter:  39 13:02:14  -290.474277c -2.97  -2.95
Writing to output.gpw (mode='')

iter:  40 13:03:40  -290.474470c -2.88  -3.00
iter:  41 13:05:08  -290.474681c -2.96  -3.04
iter:  42 13:06:15  -290.474844c -2.95  -3.15
iter:  43 13:07:49  -290.474948c -3.25  -3.22
iter:  44 13:09:11  -290.475047c -3.39  -3.24
Writing to output.gpw (mode='')

iter:  45 13:10:31  -290.475095c -3.32  -3.37
iter:  46 13:11:43  -290.475156c -3.40  -3.64
iter:  47 13:13:25  -290.475213c -3.46  -3.69
iter:  48 13:14:26  -290.475258c -3.67  -3.84
iter:  49 13:16:19  -290.475292c -3.67  -3.89
Writing to output.gpw (mode='')

iter:  50 13:18:01  -290.475320c -3.84  -4.00
iter:  51 13:20:07  -290.475345c -3.84  -4.00c
iter:  52 13:21:52  -290.475366c -3.87  -3.99
iter:  53 13:25:32  -290.475384c -4.05  -3.98
iter:  54 13:27:37  -290.475401c -4.00  -4.00c
Writing to output.gpw (mode='')

iter:  55 13:29:25  -290.475419c -4.11  -4.03c
iter:  56 13:31:49  -290.475430c -4.33  -4.11c
iter:  57 13:34:34  -290.475441c -4.48  -4.22c
iter:  58 13:37:04  -290.475449c -4.55  -4.50c
iter:  59 13:39:27  -290.475455c -4.47  -4.58c
Writing to output.gpw (mode='')

iter:  60 13:44:04  -290.475460c -4.65  -4.66c
iter:  61 13:47:23  -290.475464c -4.70  -4.73c
iter:  62 13:50:30  -290.475467c -4.75  -4.74c
iter:  63 13:53:36  -290.475470c -4.86  -4.69c
iter:  64 13:57:43  -290.475473c -4.70  -4.68c
Writing to output.gpw (mode='')

iter:  65 14:01:42  -290.475475c -4.82  -4.65c
iter:  66 14:06:24  -290.475477c -5.02  -4.60c
iter:  67 14:12:18  -290.475478c -4.97  -4.60c
iter:  68 14:18:16  -290.475479c -5.28  -4.62c
iter:  69 14:23:44  -290.475480c -5.32  -4.56c
Writing to output.gpw (mode='')

iter:  70 14:32:47  -290.475481c -5.31  -4.62c
iter:  71 14:37:23  -290.475481c -5.28  -4.58c
iter:  72 14:42:42  -290.475482c -5.37  -4.58c
iter:  73 14:47:19  -290.475483c -5.33  -4.59c
iter:  74 14:51:12  -290.475484c -5.62  -4.56c
Writing to output.gpw (mode='')

iter:  75 14:54:49  -290.475483c -5.76  -4.49c
iter:  76 14:58:08  -290.475484c -5.69  -4.58c
iter:  77 15:01:13  -290.475485c -5.55  -4.47c
iter:  78 15:03:45  -290.475485c -5.51  -4.59c
iter:  79 15:06:50  -290.475485c -5.76  -4.63c
Writing to output.gpw (mode='')

iter:  80 15:09:15  -290.475485c -5.95  -4.63c
iter:  81 15:11:30  -290.475485c -5.98  -4.65c
iter:  82 15:14:32  -290.475486c -5.89  -4.67c
iter:  83 15:16:57  -290.475486c -6.07  -4.70c
iter:  84 15:20:01  -290.475486c -6.20  -4.97c
Writing to output.gpw (mode='')

iter:  85 15:22:24  -290.475486c -6.19  -5.05c
iter:  86 15:24:54  -290.475487c -6.18  -5.16c
iter:  87 15:27:42  -290.475486c -6.37  -5.23c
iter:  88 15:31:30  -290.475486c -6.39  -5.43c
iter:  89 15:34:22  -290.475487c -6.43  -5.53c
Writing to output.gpw (mode='')

iter:  90 15:37:37  -290.475487c -6.53  -5.54c
iter:  91 15:40:45  -290.475487c -6.49  -5.83c
iter:  92 15:44:16  -290.475487c -6.76  -5.92c
iter:  93 15:47:42  -290.475487c -6.75  -5.96c
iter:  94 15:51:57  -290.475487c -6.83  -6.01c
Writing to output.gpw (mode='')

iter:  95 15:54:40  -290.475487c -6.77  -6.07c
iter:  96 15:57:20  -290.475487c -6.99  -6.07c
iter:  97 16:00:11  -290.475487c -7.00  -6.02c
iter:  98 16:02:49  -290.475487c -6.97  -6.02c
iter:  99 16:05:23  -290.475487c -7.03  -6.09c
Writing to output.gpw (mode='')

iter: 100 16:08:00  -290.475487c -7.07  -6.09c
iter: 101 16:11:02  -290.475487c -7.08  -6.12c
iter: 102 16:14:00  -290.475487c -7.22  -6.12c
iter: 103 16:16:56  -290.475487c -7.24  -6.16c
iter: 104 16:20:25  -290.475487c -7.22  -6.12c
Writing to output.gpw (mode='')

iter: 105 16:23:22  -290.475487c -7.32  -6.00c
iter: 106 16:26:39  -290.475487c -7.42c -5.97c

Converged after 106 iterations.

Dipole moment: (-2.238435, -3.409436, 0.426053) |e|*Ang

Energy contributions relative to reference atoms: (reference = -13512.263335)

Kinetic:       +140.620855
Potential:     -131.578866
External:        +0.000000
XC:            -300.049930
Entropy (-ST):   -0.151086
Local:           +0.607998
--------------------------
Free energy:   -290.551030
Extrapolated:  -290.475487

Dipole-layer corrected work functions: 3.388828, 2.569809 eV

Showing only first 2 kpts
 Kpt  Band  Eigenvalues  Occupancy
  0    29     -3.23394    1.98779
  0    30     -3.15181    1.93846
  0    31     -2.80922    0.06446
  0    32     -2.72757    0.01293

  1    29     -3.00405    1.24241
  1    30     -2.96595    0.86711
  1    31     -2.94689    0.68666
  1    32     -2.93054    0.54752


Fermi level: -2.97932

No gap
Writing to output.gpw (mode='')


Forces in eV/Ang:
  0 Li   -0.00170    0.00092   -0.27204
  1 Li   -0.00594   -0.00197   -0.27086
  2 Li    0.00781   -0.00281   -0.27055
  3 Li    0.00070   -0.00447   -0.27201
  4 Li   -0.00045    0.00559   -0.26910
  5 Li    0.00008    0.00373   -0.26935
  6 Li    0.00020    0.00398   -0.27757
  7 Li    0.00213   -0.00365   -0.27467
  8 Li   -0.00297   -0.00158   -0.27226
  9 Li    0.00432   -0.00368    0.25339
 10 Li   -0.00268    0.00724    0.26043
 11 Li   -0.00134   -0.00712    0.25983
 12 Li    0.00229    0.00107    0.25593
 13 Li   -0.00680   -0.00017    0.25454
 14 Li    0.00342   -0.00054    0.27575
 15 Li   -0.00197    0.00281    0.26158
 16 Li    0.00446   -0.00706    0.26552
 17 Li   -0.00257    0.00837    0.24986
 18 Li   -0.00468    0.00083    0.04600
 19 Li    0.00676    0.00576   -0.00540
 20 Li   -0.00204   -0.00324    0.00796
 21 Li   -0.00384   -0.00381    0.04448
 22 Li    0.01039   -0.01506    0.06492
 23 Li   -0.00616   -0.00375    0.05023
 24 Li    0.00351    0.00263    0.03293
 25 Li   -0.00278    0.00943    0.04320
 26 Li   -0.00019    0.00799    0.04090
 27 Li    0.00112   -0.00199    0.00116
 28 Li   -0.00803   -0.00808   -0.00679
 29 Li    0.00307   -0.07340   -0.11387
 30 Li    0.08409    0.01630   -0.10673
 31 Li   -0.02849    0.01215   -0.02786
 32 Li   -0.25673    0.17032   -0.55333
 33 Li   -0.00665   -0.00493   -0.02626
 34 Li    0.01695   -0.00755   -0.01116
 35 Li   -0.01038    0.01854   -0.03800
 36 O    -0.09402    0.00442   -0.30749
 37 O    -0.05704   -0.00140   -0.12571
 38 C    -0.06063    0.01860    0.84870
 39 C    -0.04428    0.08675    0.15542
 40 H     0.03268    0.04725   -0.10692
 41 H     0.39465   -0.22945    0.11927
 42 H    -0.03157    0.07161    0.02853
 43 H    -0.00234    0.03193   -0.06581
 44 H     0.04574    0.02727    0.01495
 45 H     0.01730   -0.17917    0.08687

System changes: positions 

Initializing position-dependent things.

Density initialized from wave functions
       .-----------------------.  
      /|                       |  
     / |                       |  
    /  |                       |  
   /   |                       |  
  /    |                       |  
 *     |                       |  
 |     |                       |  
 |     |                       |  
 |     |                       |  
 |     |                       |  
 |     |          H            |  
 |     Li      LiC    HHi      |  
 |     |       O     CO        |  
 |     |     Li H    Hi      Li|  
 |     |  Li      Li      Li   |  
 | Li  |   Li      Li          |  
 |     |Li      Li      Li     |  
 |     |                       |  
 |   LLi     LLi     LLi       |  
 |     |  Li      Li      Li   |  
 | Li  |   Li      Li          |  
 |     |Li      Li      Li     |  
 Li    | Li      Li            |  
 |    Li      Li      Li       |  
 |     |                       |  
 |     |                       |  
 |     |                       |  
 |     |                       |  
 |     |                       |  
 |     |                       |  
 |     .-----------------------.  
 |    /                       /   
 |   /                       /    
 |  /                       /     
 | /                       /      
 |/                       /       
 *-----------------------*        

Positions:
   0 Li     1.617037    1.617037   10.000000    ( 0.0000,  0.0000,  0.0000)
   1 Li     4.851111    1.617037   10.000000    ( 0.0000,  0.0000,  0.0000)
   2 Li     8.085185    1.617037   10.000000    ( 0.0000,  0.0000,  0.0000)
   3 Li     1.617037    4.851111   10.000000    ( 0.0000,  0.0000,  0.0000)
   4 Li     4.851111    4.851111   10.000000    ( 0.0000,  0.0000,  0.0000)
   5 Li     8.085185    4.851111   10.000000    ( 0.0000,  0.0000,  0.0000)
   6 Li     1.617037    8.085185   10.000000    ( 0.0000,  0.0000,  0.0000)
   7 Li     4.851111    8.085185   10.000000    ( 0.0000,  0.0000,  0.0000)
   8 Li     8.085185    8.085185   10.000000    ( 0.0000,  0.0000,  0.0000)
   9 Li     0.000000    0.000000   11.617037    ( 0.0000,  0.0000,  0.0000)
  10 Li     3.234074    0.000000   11.617037    ( 0.0000,  0.0000,  0.0000)
  11 Li     6.468148    0.000000   11.617037    ( 0.0000,  0.0000,  0.0000)
  12 Li     0.000000    3.234074   11.617037    ( 0.0000,  0.0000,  0.0000)
  13 Li     3.234074    3.234074   11.617037    ( 0.0000,  0.0000,  0.0000)
  14 Li     6.468148    3.234074   11.617037    ( 0.0000,  0.0000,  0.0000)
  15 Li     0.000000    6.468148   11.617037    ( 0.0000,  0.0000,  0.0000)
  16 Li     3.234074    6.468148   11.617037    ( 0.0000,  0.0000,  0.0000)
  17 Li     6.468148    6.468148   11.617037    ( 0.0000,  0.0000,  0.0000)
  18 Li     1.616971    1.617050   13.470385    ( 0.0000,  0.0000,  0.0000)
  19 Li     4.851208    1.617121   13.469652    ( 0.0000,  0.0000,  0.0000)
  20 Li     8.085155    1.616992   13.469842    ( 0.0000,  0.0000,  0.0000)
  21 Li     1.616984    4.851057   13.470365    ( 0.0000,  0.0000,  0.0000)
  22 Li     4.851259    4.850896   13.470658    ( 0.0000,  0.0000,  0.0000)
  23 Li     8.085096    4.851057   13.470447    ( 0.0000,  0.0000,  0.0000)
  24 Li     1.617088    8.085222   13.470198    ( 0.0000,  0.0000,  0.0000)
  25 Li     4.851071    8.085318   13.470347    ( 0.0000,  0.0000,  0.0000)
  26 Li     8.085181    8.085298   13.470312    ( 0.0000,  0.0000,  0.0000)
  27 Li     0.000016   -0.000028   15.445956    ( 0.0000,  0.0000,  0.0000)
  28 Li     3.233959   -0.000115   15.445842    ( 0.0000,  0.0000,  0.0000)
  29 Li     6.468192   -0.001049   15.444312    ( 0.0000,  0.0000,  0.0000)
  30 Li     0.001201    3.234307   15.444414    ( 0.0000,  0.0000,  0.0000)
  31 Li     3.233670    3.234250   15.445540    ( 0.0000,  0.0000,  0.0000)
  32 Li     6.464478    3.236510   15.438033    ( 0.0000,  0.0000,  0.0000)
  33 Li    -0.000095    6.468078   15.445564    ( 0.0000,  0.0000,  0.0000)
  34 Li     3.234319    6.468038   15.445779    ( 0.0000,  0.0000,  0.0000)
  35 Li     6.467997    6.468410   15.445395    ( 0.0000,  0.0000,  0.0000)
  36 O      8.083842    1.617100   18.441547    ( 0.0000,  0.0000,  0.0000)
  37 O      5.186172    1.661010   18.211454    ( 0.0000,  0.0000,  0.0000)
  38 C      7.355758    2.788515   18.045686    ( 0.0000,  0.0000,  0.0000)
  39 C      5.946806    2.803178   18.604934    ( 0.0000,  0.0000,  0.0000)
  40 H      7.885217    3.703314   18.324868    ( 0.0000,  0.0000,  0.0000)
  41 H      7.329513    2.737673   16.945699    ( 0.0000,  0.0000,  0.0000)
  42 H      5.410270    3.677228   18.226640    ( 0.0000,  0.0000,  0.0000)
  43 H      5.997135    2.877896   19.700834    ( 0.0000,  0.0000,  0.0000)
  44 H      8.255263    1.691941   19.393474    ( 0.0000,  0.0000,  0.0000)
  45 H      5.766700    0.891351   18.310930    ( 0.0000,  0.0000,  0.0000)

Unit cell:
           periodic     x           y           z      points  spacing
  1. axis:    yes    9.702222    0.000000    0.000000    60     0.1617
  2. axis:    yes    0.000000    9.702222    0.000000    60     0.1617
  3. axis:    no     0.000000    0.000000   24.851111   156     0.1593

  Lengths:   9.702222   9.702222  24.851111
  Angles:   90.000000  90.000000  90.000000

Effective grid spacing dv^(1/3) = 0.1609

     iter     time        total  log10-change:
                         energy  eigst   dens
iter:   1 16:29:11  -290.496737  -1.92
iter:   2 16:31:05  -290.495580  -2.52  -2.36
iter:   3 16:34:06  -290.494950c -3.19  -2.46
iter:   4 16:36:12  -290.493393c -2.52  -2.62
Writing to output.gpw (mode='')

iter:   5 16:38:15  -290.493257c -3.27  -2.77
iter:   6 16:41:03  -290.493021c -3.09  -2.88
iter:   7 16:45:11  -290.493126c -3.05  -3.08
iter:   8 16:48:24  -290.493008c -3.95  -3.10
iter:   9 16:50:33  -290.492996c -4.05  -3.30
Writing to output.gpw (mode='')

iter:  10 16:52:54  -290.493015c -4.37  -3.37
iter:  11 16:55:16  -290.492997c -4.40  -3.54
iter:  12 16:57:49  -290.493000c -5.24  -3.64
iter:  13 17:00:48  -290.492999c -5.28  -3.71
iter:  14 17:03:40  -290.493005c -4.98  -3.76
Writing to output.gpw (mode='')

iter:  15 17:07:27  -290.492995c -5.17  -3.79
iter:  16 17:10:03  -290.492997c -5.59  -3.93
iter:  17 17:13:16  -290.492995c -5.39  -4.07c
iter:  18 17:16:11  -290.492994c -6.02  -4.32c
iter:  19 17:19:30  -290.492994c -6.26  -4.39c
Writing to output.gpw (mode='')

iter:  20 17:23:26  -290.492995c -6.36  -4.50c
iter:  21 17:27:01  -290.492995c -6.58  -4.73c
iter:  22 17:29:50  -290.492995c -6.95  -4.75c
iter:  23 17:32:38  -290.492995c -6.96  -4.78c
iter:  24 17:35:33  -290.492995c -7.20  -4.91c
Writing to output.gpw (mode='')

iter:  25 17:38:16  -290.492995c -7.35  -5.04c
iter:  26 17:40:32  -290.492995c -7.28  -5.11c
iter:  27 17:45:42  -290.492995c -7.50c -5.06c

Converged after 27 iterations.

Dipole moment: (-2.250402, -3.398676, 0.427152) |e|*Ang

Energy contributions relative to reference atoms: (reference = -13512.263335)

Kinetic:       +140.401865
Potential:     -131.450317
External:        +0.000000
XC:            -299.976564
Entropy (-ST):   -0.151085
Local:           +0.607564
--------------------------
Free energy:   -290.568538
Extrapolated:  -290.492995

Dipole-layer corrected work functions: 3.388510, 2.567378 eV

Showing only first 2 kpts
 Kpt  Band  Eigenvalues  Occupancy
  0    29     -3.23272    1.98783
  0    30     -3.15035    1.93835
  0    31     -2.80789    0.06452
  0    32     -2.72633    0.01296

  1    29     -3.00251    1.24087
  1    30     -2.96457    0.86703
  1    31     -2.94558    0.68719
  1    32     -2.92938    0.54928


Fermi level: -2.97794

No gap
Writing to output.gpw (mode='')


Forces in eV/Ang:
  0 Li   -0.00178    0.00098   -0.27202
  1 Li   -0.00594   -0.00190   -0.27115
  2 Li    0.00786   -0.00280   -0.27086
  3 Li    0.00074   -0.00459   -0.27204
  4 Li   -0.00046    0.00559   -0.26936
  5 Li    0.00004    0.00372   -0.26966
  6 Li    0.00022    0.00396   -0.27755
  7 Li    0.00224   -0.00375   -0.27460
  8 Li   -0.00301   -0.00155   -0.27228
  9 Li    0.00443   -0.00373    0.25390
 10 Li   -0.00282    0.00695    0.26075
 11 Li   -0.00133   -0.00723    0.26062
 12 Li    0.00245    0.00119    0.25665
 13 Li   -0.00677    0.00003    0.25523
 14 Li    0.00339   -0.00027    0.27692
 15 Li   -0.00194    0.00275    0.26222
 16 Li    0.00446   -0.00690    0.26604
 17 Li   -0.00264    0.00808    0.25074
 18 Li   -0.00428    0.00036    0.04447
 19 Li    0.00476    0.00426   -0.00835
 20 Li   -0.00125   -0.00356    0.00625
 21 Li   -0.00348   -0.00322    0.04291
 22 Li    0.00807   -0.01276    0.06037
 23 Li   -0.00498   -0.00248    0.04660
 24 Li    0.00343    0.00261    0.03208
 25 Li   -0.00309    0.00910    0.04178
 26 Li    0.00011    0.00762    0.03960
 27 Li    0.00133   -0.00208    0.00132
 28 Li   -0.00807   -0.00792   -0.00628
 29 Li    0.00322   -0.06951   -0.10974
 30 Li    0.07910    0.01533   -0.10301
 31 Li   -0.02897    0.01192   -0.02703
 32 Li   -0.23858    0.15947   -0.51549
 33 Li   -0.00625   -0.00434   -0.02557
 34 Li    0.01685   -0.00767   -0.01073
 35 Li   -0.01041    0.01927   -0.03716
 36 O    -0.02465    0.00507    0.10149
 37 O     0.05444   -0.06796   -0.08607
 38 C    -0.05483   -0.00714    0.17197
 39 C    -0.09534    0.03979    0.11086
 40 H     0.06765    0.10095   -0.01473
 41 H     0.32881   -0.15916    0.36193
 42 H    -0.01361    0.06389    0.03556
 43 H    -0.04612    0.03006    0.03863
 44 H     0.03794   -0.05338   -0.19780
 45 H    -0.06353   -0.06223    0.06909

System changes: positions 

Initializing position-dependent things.

Density initialized from wave functions
       .-----------------------.  
      /|                       |  
     / |                       |  
    /  |                       |  
   /   |                       |  
  /    |                       |  
 *     |                       |  
 |     |                       |  
 |     |                       |  
 |     |                       |  
 |     |                       |  
 |     |          H            |  
 |     Li      LiC    HHi      |  
 |     |       O     CO        |  
 |     |     Li H    Hi      Li|  
 |     |  Li      Li      Li   |  
 | Li  |   Li      Li          |  
 |     |Li      Li      Li     |  
 |     |                       |  
 |   LLi     LLi     LLi       |  
 |     |  Li      Li      Li   |  
 | Li  |   Li      Li          |  
 |     |Li      Li      Li     |  
 Li    | Li      Li            |  
 |    Li      Li      Li       |  
 |     |                       |  
 |     |                       |  
 |     |                       |  
 |     |                       |  
 |     |                       |  
 |     |                       |  
 |     .-----------------------.  
 |    /                       /   
 |   /                       /    
 |  /                       /     
 | /                       /      
 |/                       /       
 *-----------------------*        

Positions:
   0 Li     1.617037    1.617037   10.000000    ( 0.0000,  0.0000,  0.0000)
   1 Li     4.851111    1.617037   10.000000    ( 0.0000,  0.0000,  0.0000)
   2 Li     8.085185    1.617037   10.000000    ( 0.0000,  0.0000,  0.0000)
   3 Li     1.617037    4.851111   10.000000    ( 0.0000,  0.0000,  0.0000)
   4 Li     4.851111    4.851111   10.000000    ( 0.0000,  0.0000,  0.0000)
   5 Li     8.085185    4.851111   10.000000    ( 0.0000,  0.0000,  0.0000)
   6 Li     1.617037    8.085185   10.000000    ( 0.0000,  0.0000,  0.0000)
   7 Li     4.851111    8.085185   10.000000    ( 0.0000,  0.0000,  0.0000)
   8 Li     8.085185    8.085185   10.000000    ( 0.0000,  0.0000,  0.0000)
   9 Li     0.000000    0.000000   11.617037    ( 0.0000,  0.0000,  0.0000)
  10 Li     3.234074    0.000000   11.617037    ( 0.0000,  0.0000,  0.0000)
  11 Li     6.468148    0.000000   11.617037    ( 0.0000,  0.0000,  0.0000)
  12 Li     0.000000    3.234074   11.617037    ( 0.0000,  0.0000,  0.0000)
  13 Li     3.234074    3.234074   11.617037    ( 0.0000,  0.0000,  0.0000)
  14 Li     6.468148    3.234074   11.617037    ( 0.0000,  0.0000,  0.0000)
  15 Li     0.000000    6.468148   11.617037    ( 0.0000,  0.0000,  0.0000)
  16 Li     3.234074    6.468148   11.617037    ( 0.0000,  0.0000,  0.0000)
  17 Li     6.468148    6.468148   11.617037    ( 0.0000,  0.0000,  0.0000)
  18 Li     1.616780    1.617073   13.472336    ( 0.0000,  0.0000,  0.0000)
  19 Li     4.851443    1.617328   13.469334    ( 0.0000,  0.0000,  0.0000)
  20 Li     8.085089    1.616842   13.470138    ( 0.0000,  0.0000,  0.0000)
  21 Li     1.616827    4.850908   13.472249    ( 0.0000,  0.0000,  0.0000)
  22 Li     4.851644    4.850309   13.473343    ( 0.0000,  0.0000,  0.0000)
  23 Li     8.084862    4.850931   13.472522    ( 0.0000,  0.0000,  0.0000)
  24 Li     1.617238    8.085335   13.471602    ( 0.0000,  0.0000,  0.0000)
  25 Li     4.850942    8.085718   13.472180    ( 0.0000,  0.0000,  0.0000)
  26 Li     8.085182    8.085634   13.472049    ( 0.0000,  0.0000,  0.0000)
  27 Li     0.000071   -0.000117   15.446011    ( 0.0000,  0.0000,  0.0000)
  28 Li     3.233610   -0.000461   15.445562    ( 0.0000,  0.0000,  0.0000)
  29 Li     6.468330   -0.004121   15.439492    ( 0.0000,  0.0000,  0.0000)
  30 Li     0.004705    3.234986   15.439892    ( 0.0000,  0.0000,  0.0000)
  31 Li     3.232420    3.234770   15.444356    ( 0.0000,  0.0000,  0.0000)
  32 Li     6.453864    3.243585   15.415120    ( 0.0000,  0.0000,  0.0000)
  33 Li    -0.000372    6.467881   15.444445    ( 0.0000,  0.0000,  0.0000)
  34 Li     3.235051    6.467707   15.445307    ( 0.0000,  0.0000,  0.0000)
  35 Li     6.467546    6.469235   15.443771    ( 0.0000,  0.0000,  0.0000)
  36 O      8.081752    1.617310   18.439927    ( 0.0000,  0.0000,  0.0000)
  37 O      5.186892    1.659043   18.207138    ( 0.0000,  0.0000,  0.0000)
  38 C      7.353295    2.788584   18.063107    ( 0.0000,  0.0000,  0.0000)
  39 C      5.943423    2.805595   18.610398    ( 0.0000,  0.0000,  0.0000)
  40 H      7.887636    3.706902   18.322872    ( 0.0000,  0.0000,  0.0000)
  41 H      7.344743    2.729735   16.957824    ( 0.0000,  0.0000,  0.0000)
  42 H      5.409415    3.680112   18.228078    ( 0.0000,  0.0000,  0.0000)
  43 H      5.995780    2.879228   19.700972    ( 0.0000,  0.0000,  0.0000)
  44 H      8.257023    1.690814   19.388028    ( 0.0000,  0.0000,  0.0000)
  45 H      5.765135    0.886930   18.314188    ( 0.0000,  0.0000,  0.0000)

Unit cell:
           periodic     x           y           z      points  spacing
  1. axis:    yes    9.702222    0.000000    0.000000    60     0.1617
  2. axis:    yes    0.000000    9.702222    0.000000    60     0.1617
  3. axis:    no     0.000000    0.000000   24.851111   156     0.1593

  Lengths:   9.702222   9.702222  24.851111
  Angles:   90.000000  90.000000  90.000000

Effective grid spacing dv^(1/3) = 0.1609

     iter     time        total  log10-change:
                         energy  eigst   dens
iter:   1 17:51:49  -290.524855  -1.48
iter:   2 17:57:34  -290.524202  -2.25  -2.29
iter:   3 18:04:27  -290.523053c -2.77  -2.42
iter:   4 18:08:12  -290.519813c -2.12  -2.43
Writing to output.gpw (mode='')

iter:   5 18:12:15  -290.519598c -3.36  -2.58
iter:   6 18:15:18  -290.519189c -3.01  -2.81
iter:   7 18:20:27  -290.519520c -2.58  -2.90
iter:   8 18:24:21  -290.519144c -3.59  -2.78
iter:   9 18:28:43  -290.519113c -3.65  -2.92
Writing to output.gpw (mode='')

iter:  10 18:32:50  -290.518956c -3.44  -3.04
iter:  11 18:37:02  -290.518971c -4.26  -3.22
iter:  12 18:40:31  -290.518966c -4.25  -3.30
iter:  13 18:44:21  -290.518962c -4.29  -3.35
iter:  14 18:47:05  -290.518986c -4.17  -3.58
Writing to output.gpw (mode='')

iter:  15 18:52:55  -290.518977c -5.19  -3.62
iter:  16 18:56:24  -290.518963c -4.71  -3.77
iter:  17 19:03:25  -290.518967c -5.53  -3.92
iter:  18 19:13:12  -290.518966c -6.26  -4.18c
iter:  19 19:20:54  -290.518966c -6.09  -4.22c
Writing to output.gpw (mode='')

iter:  20 19:28:13  -290.518967c -5.86  -4.36c
iter:  21 19:35:04  -290.518966c -6.50  -4.48c
iter:  22 19:40:29  -290.518966c -6.58  -4.66c
iter:  23 19:45:47  -290.518965c -6.55  -4.72c
iter:  24 19:49:24  -290.518966c -6.83  -4.75c
Writing to output.gpw (mode='')

iter:  25 19:52:03  -290.518966c -6.91  -4.86c
iter:  26 19:56:29  -290.518965c -6.87  -4.98c
iter:  27 20:00:25  -290.518966c -7.42c -4.93c

Converged after 27 iterations.

Dipole moment: (-2.296264, -3.354116, 0.426372) |e|*Ang

Energy contributions relative to reference atoms: (reference = -13512.263335)

Kinetic:       +140.720816
Potential:     -131.721244
External:        +0.000000
XC:            -300.049573
Entropy (-ST):   -0.151025
Local:           +0.606548
--------------------------
Free energy:   -290.594478
Extrapolated:  -290.518966

Dipole-layer corrected work functions: 3.388049, 2.568416 eV

Showing only first 2 kpts
 Kpt  Band  Eigenvalues  Occupancy
  0    29     -3.23343    1.98793
  0    30     -3.15060    1.93831
  0    31     -2.80782    0.06407
  0    32     -2.72700    0.01306

  1    29     -3.00184    1.23183
  1    30     -2.96490    0.86748
  1    31     -2.94612    0.68947
  1    32     -2.93016    0.55320


Fermi level: -2.97823

No gap
Writing to output.gpw (mode='')


Forces in eV/Ang:
  0 Li   -0.00192    0.00117   -0.27197
  1 Li   -0.00591   -0.00164   -0.27187
  2 Li    0.00792   -0.00275   -0.27167
  3 Li    0.00083   -0.00496   -0.27212
  4 Li   -0.00037    0.00549   -0.26998
  5 Li   -0.00015    0.00366   -0.27045
  6 Li    0.00021    0.00395   -0.27749
  7 Li    0.00259   -0.00393   -0.27442
  8 Li   -0.00310   -0.00151   -0.27235
  9 Li    0.00477   -0.00386    0.25516
 10 Li   -0.00326    0.00614    0.26165
 11 Li   -0.00129   -0.00758    0.26258
 12 Li    0.00289    0.00155    0.25854
 13 Li   -0.00662    0.00061    0.25731
 14 Li    0.00326    0.00053    0.27969
 15 Li   -0.00186    0.00257    0.26406
 16 Li    0.00451   -0.00654    0.26759
 17 Li   -0.00287    0.00730    0.25328
 18 Li   -0.00315   -0.00104    0.03985
 19 Li   -0.00063   -0.00007   -0.01544
 20 Li    0.00077   -0.00426    0.00218
 21 Li   -0.00231   -0.00140    0.03800
 22 Li    0.00131   -0.00597    0.04756
 23 Li   -0.00167    0.00083    0.03722
 24 Li    0.00319    0.00246    0.02989
 25 Li   -0.00411    0.00801    0.03735
 26 Li    0.00110    0.00651    0.03549
 27 Li    0.00182   -0.00227    0.00227
 28 Li   -0.00770   -0.00709   -0.00490
 29 Li    0.00281   -0.06073   -0.10043
 30 Li    0.06932    0.01387   -0.09528
 31 Li   -0.02952    0.01125   -0.02473
 32 Li   -0.19034    0.12953   -0.42487
 33 Li   -0.00540   -0.00310   -0.02367
 34 Li    0.01664   -0.00809   -0.00949
 35 Li   -0.01040    0.02016   -0.03462
 36 O    -0.02010   -0.03445    0.21431
 37 O     0.09586   -0.02237   -0.02272
 38 C     0.06942    0.05515   -0.40706
 39 C    -0.08880   -0.07367   -0.05111
 40 H     0.05076    0.07574    0.09737
 41 H     0.15618   -0.04753    0.39647
 42 H    -0.00627    0.03779    0.04770
 43 H    -0.11773    0.02063    0.20451
 44 H     0.10442   -0.11653   -0.02807
 45 H    -0.08416    0.01642    0.06230

System changes: positions 

Initializing position-dependent things.

Density initialized from wave functions
       .-----------------------.  
      /|                       |  
     / |                       |  
    /  |                       |  
   /   |                       |  
  /    |                       |  
 *     |                       |  
 |     |                       |  
 |     |                       |  
 |     |                       |  
 |     |                       |  
 |     |          H            |  
 |     Li      LiC    HHi      |  
 |     |       O     CO        |  
 |     |     Li H    Hi      Li|  
 |     |  Li      Li      Li   |  
 | Li  |   Li      Li          |  
 |     |Li      Li      Li     |  
 |     |                       |  
 |   LLi     LLi     LLi       |  
 |     |  Li      Li      Li   |  
 | Li  |   Li      Li          |  
 |     |Li      Li      Li     |  
 Li    | Li      Li            |  
 |    Li      Li      Li       |  
 |     |                       |  
 |     |                       |  
 |     |                       |  
 |     |                       |  
 |     |                       |  
 |     |                       |  
 |     .-----------------------.  
 |    /                       /   
 |   /                       /    
 |  /                       /     
 | /                       /      
 |/                       /       
 *-----------------------*        

Positions:
   0 Li     1.617037    1.617037   10.000000    ( 0.0000,  0.0000,  0.0000)
   1 Li     4.851111    1.617037   10.000000    ( 0.0000,  0.0000,  0.0000)
   2 Li     8.085185    1.617037   10.000000    ( 0.0000,  0.0000,  0.0000)
   3 Li     1.617037    4.851111   10.000000    ( 0.0000,  0.0000,  0.0000)
   4 Li     4.851111    4.851111   10.000000    ( 0.0000,  0.0000,  0.0000)
   5 Li     8.085185    4.851111   10.000000    ( 0.0000,  0.0000,  0.0000)
   6 Li     1.617037    8.085185   10.000000    ( 0.0000,  0.0000,  0.0000)
   7 Li     4.851111    8.085185   10.000000    ( 0.0000,  0.0000,  0.0000)
   8 Li     8.085185    8.085185   10.000000    ( 0.0000,  0.0000,  0.0000)
   9 Li     0.000000    0.000000   11.617037    ( 0.0000,  0.0000,  0.0000)
  10 Li     3.234074    0.000000   11.617037    ( 0.0000,  0.0000,  0.0000)
  11 Li     6.468148    0.000000   11.617037    ( 0.0000,  0.0000,  0.0000)
  12 Li     0.000000    3.234074   11.617037    ( 0.0000,  0.0000,  0.0000)
  13 Li     3.234074    3.234074   11.617037    ( 0.0000,  0.0000,  0.0000)
  14 Li     6.468148    3.234074   11.617037    ( 0.0000,  0.0000,  0.0000)
  15 Li     0.000000    6.468148   11.617037    ( 0.0000,  0.0000,  0.0000)
  16 Li     3.234074    6.468148   11.617037    ( 0.0000,  0.0000,  0.0000)
  17 Li     6.468148    6.468148   11.617037    ( 0.0000,  0.0000,  0.0000)
  18 Li     1.616518    1.617071   13.475169    ( 0.0000,  0.0000,  0.0000)
  19 Li     4.851664    1.617531   13.468674    ( 0.0000,  0.0000,  0.0000)
  20 Li     8.085040    1.616599   13.470483    ( 0.0000,  0.0000,  0.0000)
  21 Li     1.616621    4.850730   13.474973    ( 0.0000,  0.0000,  0.0000)
  22 Li     4.852054    4.849592   13.477079    ( 0.0000,  0.0000,  0.0000)
  23 Li     8.084593    4.850824   13.475422    ( 0.0000,  0.0000,  0.0000)
  24 Li     1.617459    8.085503   13.473669    ( 0.0000,  0.0000,  0.0000)
  25 Li     4.850720    8.086294   13.474838    ( 0.0000,  0.0000,  0.0000)
  26 Li     8.085208    8.086114   13.474570    ( 0.0000,  0.0000,  0.0000)
  27 Li     0.000166   -0.000256   15.446118    ( 0.0000,  0.0000,  0.0000)
  28 Li     3.233091   -0.000963   15.445174    ( 0.0000,  0.0000,  0.0000)
  29 Li     6.468527   -0.008544   15.432439    ( 0.0000,  0.0000,  0.0000)
  30 Li     0.009759    3.235977   15.433249    ( 0.0000,  0.0000,  0.0000)
  31 Li     3.230518    3.235540   15.442623    ( 0.0000,  0.0000,  0.0000)
  32 Li     6.439034    3.253527   15.382756    ( 0.0000,  0.0000,  0.0000)
  33 Li    -0.000769    6.467614   15.442801    ( 0.0000,  0.0000,  0.0000)
  34 Li     3.236153    6.467196   15.444625    ( 0.0000,  0.0000,  0.0000)
  35 Li     6.466865    6.470504   15.441380    ( 0.0000,  0.0000,  0.0000)
  36 O      8.078555    1.616598   18.439499    ( 0.0000,  0.0000,  0.0000)
  37 O      5.188809    1.657405   18.202173    ( 0.0000,  0.0000,  0.0000)
  38 C      7.352792    2.790368   18.075886    ( 0.0000,  0.0000,  0.0000)
  39 C      5.938594    2.806401   18.614541    ( 0.0000,  0.0000,  0.0000)
  40 H      7.890774    3.711548   18.322566    ( 0.0000,  0.0000,  0.0000)
  41 H      7.363419    2.720485   16.976507    ( 0.0000,  0.0000,  0.0000)
  42 H      5.408274    3.683810   18.230553    ( 0.0000,  0.0000,  0.0000)
  43 H      5.991964    2.880999   19.705264    ( 0.0000,  0.0000,  0.0000)
  44 H      8.261432    1.687646   19.384690    ( 0.0000,  0.0000,  0.0000)
  45 H      5.762412    0.882033   18.318977    ( 0.0000,  0.0000,  0.0000)

Unit cell:
           periodic     x           y           z      points  spacing
  1. axis:    yes    9.702222    0.000000    0.000000    60     0.1617
  2. axis:    yes    0.000000    9.702222    0.000000    60     0.1617
  3. axis:    no     0.000000    0.000000   24.851111   156     0.1593

  Lengths:   9.702222   9.702222  24.851111
  Angles:   90.000000  90.000000  90.000000

Effective grid spacing dv^(1/3) = 0.1609

     iter     time        total  log10-change:
                         energy  eigst   dens
iter:   1 20:05:36  -290.546754  -1.41
iter:   2 20:09:36  -290.545938  -2.17  -2.23
iter:   3 20:14:59  -290.543955c -2.74  -2.34
iter:   4 20:19:28  -290.541157c -2.23  -2.38
Writing to output.gpw (mode='')

iter:   5 20:22:43  -290.541339c -3.29  -2.60
iter:   6 20:25:59  -290.540629c -2.96  -2.70
iter:   7 20:30:18  -290.540822c -2.45  -2.86
iter:   8 20:34:32  -290.540445c -3.53  -2.78
iter:   9 20:39:12  -290.540685c -3.26  -3.10
Writing to output.gpw (mode='')

iter:  10 20:44:02  -290.540424c -3.48  -2.98
iter:  11 20:47:23  -290.540445c -4.07  -3.25
iter:  12 20:52:10  -290.540438c -4.29  -3.52
iter:  13 20:56:36  -290.540438c -5.02  -3.57
iter:  14 21:00:53  -290.540428c -4.78  -3.74
Writing to output.gpw (mode='')

iter:  15 21:05:24  -290.540434c -4.93  -3.87
iter:  16 21:10:00  -290.540430c -5.18  -3.92
iter:  17 21:15:27  -290.540427c -5.26  -4.00c
iter:  18 21:20:17  -290.540428c -6.08  -4.16c
iter:  19 21:23:57  -290.540430c -5.89  -4.28c
Writing to output.gpw (mode='')

iter:  20 21:28:32  -290.540428c -6.05  -4.40c
iter:  21 21:32:24  -290.540429c -6.40  -4.45c
iter:  22 21:35:51  -290.540429c -6.46  -4.60c
iter:  23 21:40:13  -290.540429c -6.54  -4.67c
iter:  24 21:43:44  -290.540429c -6.49  -4.83c
Writing to output.gpw (mode='')

iter:  25 21:47:54  -290.540430c -6.83  -4.95c
iter:  26 21:51:54  -290.540430c -6.87  -5.07c
iter:  27 21:55:18  -290.540430c -7.11  -5.18c
iter:  28 21:58:56  -290.540430c -7.32  -5.27c
iter:  29 22:02:46  -290.540430c -7.25  -5.29c
Writing to output.gpw (mode='')

iter:  30 22:05:47  -290.540430c -7.48c -5.48c

Converged after 30 iterations.

Dipole moment: (-2.364205, -3.285207, 0.422360) |e|*Ang

Energy contributions relative to reference atoms: (reference = -13512.263335)

Kinetic:       +140.975018
Potential:     -131.930509
External:        +0.000000
XC:            -300.115378
Entropy (-ST):   -0.150886
Local:           +0.605882
--------------------------
Free energy:   -290.615873
Extrapolated:  -290.540430

Dipole-layer corrected work functions: 3.387818, 2.575897 eV

Showing only first 2 kpts
 Kpt  Band  Eigenvalues  Occupancy
  0    29     -3.23770    1.98808
  0    30     -3.15439    1.93850
  0    31     -2.81050    0.06291
  0    32     -2.73124    0.01322

  1    29     -3.00405    1.21833
  1    30     -2.96857    0.86794
  1    31     -2.95026    0.69410
  1    32     -2.93410    0.55567


Fermi level: -2.98186

No gap

Forces in eV/Ang:
  0 Li   -0.00201    0.00141   -0.27204
  1 Li   -0.00593   -0.00133   -0.27292
  2 Li    0.00797   -0.00273   -0.27283
  3 Li    0.00091   -0.00545   -0.27233
  4 Li   -0.00027    0.00535   -0.27092
  5 Li   -0.00039    0.00368   -0.27161
  6 Li    0.00019    0.00394   -0.27755
  7 Li    0.00307   -0.00411   -0.27433
  8 Li   -0.00322   -0.00153   -0.27260
  9 Li    0.00531   -0.00415    0.25690
 10 Li   -0.00398    0.00502    0.26289
 11 Li   -0.00126   -0.00824    0.26516
 12 Li    0.00343    0.00211    0.26136
 13 Li   -0.00644    0.00142    0.26019
 14 Li    0.00316    0.00171    0.28352
 15 Li   -0.00157    0.00241    0.26659
 16 Li    0.00448   -0.00610    0.26971
 17 Li   -0.00323    0.00634    0.25689
 18 Li   -0.00170   -0.00308    0.03318
 19 Li   -0.00789   -0.00624   -0.02420
 20 Li    0.00335   -0.00525   -0.00341
 21 Li   -0.00065    0.00123    0.03086
 22 Li   -0.00863    0.00416    0.02897
 23 Li    0.00307    0.00554    0.02431
 24 Li    0.00288    0.00222    0.02667
 25 Li   -0.00577    0.00632    0.03073
 26 Li    0.00269    0.00493    0.02934
 27 Li    0.00237   -0.00247    0.00410
 28 Li   -0.00689   -0.00569   -0.00310
 29 Li    0.00188   -0.04991   -0.08871
 30 Li    0.05807    0.01245   -0.08595
 31 Li   -0.02966    0.01006   -0.02140
 32 Li   -0.13368    0.09463   -0.32323
 33 Li   -0.00433   -0.00155   -0.02104
 34 Li    0.01615   -0.00854   -0.00773
 35 Li   -0.01016    0.02072   -0.03101
 36 O     0.01247   -0.07268    0.35646
 37 O     0.08714   -0.00188    0.01634
 38 C     0.12150    0.06749   -0.56250
 39 C     0.00735   -0.08115   -0.08614
 40 H     0.02584    0.03415    0.18494
 41 H    -0.03846    0.07168    0.13968
 42 H    -0.00669   -0.01097    0.05444
 43 H    -0.16834   -0.00250    0.20370
 44 H     0.13763   -0.15696    0.06390
 45 H    -0.08686    0.08595    0.05822

System changes: positions 

Initializing position-dependent things.

Density initialized from wave functions
       .-----------------------.  
      /|                       |  
     / |                       |  
    /  |                       |  
   /   |                       |  
  /    |                       |  
 *     |                       |  
 |     |                       |  
 |     |                       |  
 |     |                       |  
 |     |                       |  
 |     |          H            |  
 |     Li      LiC    HHi      |  
 |     |       O     CO        |  
 |     |     Li H    Hi      Li|  
 |     |  Li      Li      Li   |  
 | Li  |   Li      Li          |  
 |     |Li      Li      Li     |  
 |     |                       |  
 |   LLi     LLi     LLi       |  
 |     |  Li      Li      Li   |  
 | Li  |   Li      Li          |  
 |     |Li      Li      Li     |  
 Li    | Li      Li            |  
 |    Li      Li      Li       |  
 |     |                       |  
 |     |                       |  
 |     |                       |  
 |     |                       |  
 |     |                       |  
 |     |                       |  
 |     .-----------------------.  
 |    /                       /   
 |   /                       /    
 |  /                       /     
 | /                       /      
 |/                       /       
 *-----------------------*        

Positions:
   0 Li     1.617037    1.617037   10.000000    ( 0.0000,  0.0000,  0.0000)
   1 Li     4.851111    1.617037   10.000000    ( 0.0000,  0.0000,  0.0000)
   2 Li     8.085185    1.617037   10.000000    ( 0.0000,  0.0000,  0.0000)
   3 Li     1.617037    4.851111   10.000000    ( 0.0000,  0.0000,  0.0000)
   4 Li     4.851111    4.851111   10.000000    ( 0.0000,  0.0000,  0.0000)
   5 Li     8.085185    4.851111   10.000000    ( 0.0000,  0.0000,  0.0000)
   6 Li     1.617037    8.085185   10.000000    ( 0.0000,  0.0000,  0.0000)
   7 Li     4.851111    8.085185   10.000000    ( 0.0000,  0.0000,  0.0000)
   8 Li     8.085185    8.085185   10.000000    ( 0.0000,  0.0000,  0.0000)
   9 Li     0.000000    0.000000   11.617037    ( 0.0000,  0.0000,  0.0000)
  10 Li     3.234074    0.000000   11.617037    ( 0.0000,  0.0000,  0.0000)
  11 Li     6.468148    0.000000   11.617037    ( 0.0000,  0.0000,  0.0000)
  12 Li     0.000000    3.234074   11.617037    ( 0.0000,  0.0000,  0.0000)
  13 Li     3.234074    3.234074   11.617037    ( 0.0000,  0.0000,  0.0000)
  14 Li     6.468148    3.234074   11.617037    ( 0.0000,  0.0000,  0.0000)
  15 Li     0.000000    6.468148   11.617037    ( 0.0000,  0.0000,  0.0000)
  16 Li     3.234074    6.468148   11.617037    ( 0.0000,  0.0000,  0.0000)
  17 Li     6.468148    6.468148   11.617037    ( 0.0000,  0.0000,  0.0000)
  18 Li     1.616281    1.617010   13.478022    ( 0.0000,  0.0000,  0.0000)
  19 Li     4.851686    1.617569   13.467699    ( 0.0000,  0.0000,  0.0000)
  20 Li     8.085065    1.616307   13.470690    ( 0.0000,  0.0000,  0.0000)
  21 Li     1.616447    4.850616   13.477696    ( 0.0000,  0.0000,  0.0000)
  22 Li     4.852205    4.849116   13.480556    ( 0.0000,  0.0000,  0.0000)
  23 Li     8.084442    4.850846   13.478161    ( 0.0000,  0.0000,  0.0000)
  24 Li     1.617688    8.085677   13.475800    ( 0.0000,  0.0000,  0.0000)
  25 Li     4.850434    8.086866   13.477507    ( 0.0000,  0.0000,  0.0000)
  26 Li     8.085281    8.086584   13.477104    ( 0.0000,  0.0000,  0.0000)
  27 Li     0.000285   -0.000412   15.446285    ( 0.0000,  0.0000,  0.0000)
  28 Li     3.232555   -0.001463   15.444810    ( 0.0000,  0.0000,  0.0000)
  29 Li     6.468713   -0.012978   15.425200    ( 0.0000,  0.0000,  0.0000)
  30 Li     0.014851    3.236997   15.426382    ( 0.0000,  0.0000,  0.0000)
  31 Li     3.228463    3.236335   15.440856    ( 0.0000,  0.0000,  0.0000)
  32 Li     6.424801    3.263161   15.351060    ( 0.0000,  0.0000,  0.0000)
  33 Li    -0.001165    6.467374   15.441109    ( 0.0000,  0.0000,  0.0000)
  34 Li     3.237325    6.466632   15.443943    ( 0.0000,  0.0000,  0.0000)
  35 Li     6.466137    6.471890   15.438913    ( 0.0000,  0.0000,  0.0000)
  36 O      8.076013    1.614630   18.443765    ( 0.0000,  0.0000,  0.0000)
  37 O      5.191098    1.656380   18.198272    ( 0.0000,  0.0000,  0.0000)
  38 C      7.354402    2.793000   18.080910    ( 0.0000,  0.0000,  0.0000)
  39 C      5.935686    2.806214   18.616939    ( 0.0000,  0.0000,  0.0000)
  40 H      7.893476    3.715437   18.325258    ( 0.0000,  0.0000,  0.0000)
  41 H      7.377527    2.714278   16.991003    ( 0.0000,  0.0000,  0.0000)
  42 H      5.407110    3.686424   18.233475    ( 0.0000,  0.0000,  0.0000)
  43 H      5.986074    2.882280   19.711187    ( 0.0000,  0.0000,  0.0000)
  44 H      8.267443    1.682712   19.384263    ( 0.0000,  0.0000,  0.0000)
  45 H      5.759170    0.879140   18.323962    ( 0.0000,  0.0000,  0.0000)

Unit cell:
           periodic     x           y           z      points  spacing
  1. axis:    yes    9.702222    0.000000    0.000000    60     0.1617
  2. axis:    yes    0.000000    9.702222    0.000000    60     0.1617
  3. axis:    no     0.000000    0.000000   24.851111   156     0.1593

  Lengths:   9.702222   9.702222  24.851111
  Angles:   90.000000  90.000000  90.000000

Effective grid spacing dv^(1/3) = 0.1609

     iter     time        total  log10-change:
                         energy  eigst   dens
iter:   1 22:09:41  -290.561920  -1.51
iter:   2 22:11:58  -290.560779  -2.24  -2.23
iter:   3 22:15:18  -290.559442c -2.80  -2.36
iter:   4 22:18:01  -290.556403c -2.39  -2.38
Writing to output.gpw (mode='')

iter:   5 22:20:50  -290.556684c -3.53  -2.66
iter:   6 22:24:41  -290.556123c -3.15  -2.71
iter:   7 22:29:04  -290.556196c -2.48  -2.87
iter:   8 22:33:05  -290.555919c -3.60  -2.84
iter:   9 22:37:47  -290.556177c -3.15  -3.19
Writing to output.gpw (mode='')

iter:  10 22:41:48  -290.555929c -3.88  -2.95
iter:  11 22:47:43  -290.555922c -3.53  -3.33
iter:  12 22:52:17  -290.555917c -4.85  -3.50
iter:  13 22:55:20  -290.555919c -5.05  -3.66
iter:  14 23:01:06  -290.555913c -4.49  -3.75
Writing to output.gpw (mode='')

iter:  15 23:05:53  -290.555911c -5.28  -3.68
iter:  16 23:09:45  -290.555913c -5.03  -3.87
iter:  17 23:15:17  -290.555913c -5.72  -4.04c
iter:  18 23:19:40  -290.555914c -5.52  -4.07c
iter:  19 23:24:04  -290.555915c -5.64  -4.25c
Writing to output.gpw (mode='')

iter:  20 23:27:02  -290.555913c -6.01  -4.28c
iter:  21 23:29:48  -290.555912c -6.16  -4.54c
iter:  22 23:32:44  -290.555912c -6.58  -4.66c
iter:  23 23:35:37  -290.555913c -6.59  -4.72c
iter:  24 23:38:11  -290.555913c -6.63  -4.82c
Writing to output.gpw (mode='')

iter:  25 23:40:43  -290.555913c -6.72  -4.90c
iter:  26 23:43:01  -290.555913c -7.01  -5.07c
iter:  27 23:46:15  -290.555913c -6.82  -5.14c
iter:  28 23:50:20  -290.555913c -7.22  -5.25c
iter:  29 23:54:15  -290.555913c -7.15  -5.38c
Writing to output.gpw (mode='')

iter:  30 23:59:25  -290.555913c -7.33  -5.41c
iter:  31 00:03:11  -290.555913c -7.33  -5.52c
iter:  32 00:11:49  -290.555913c -7.56c -5.61c

Converged after 32 iterations.

Dipole moment: (-2.432484, -3.211211, 0.417480) |e|*Ang

Energy contributions relative to reference atoms: (reference = -13512.263335)

Kinetic:       +141.134092
Potential:     -132.051105
External:        +0.000000
XC:            -300.169115
Entropy (-ST):   -0.150706
Local:           +0.605566
--------------------------
Free energy:   -290.631266
Extrapolated:  -290.555913

Dipole-layer corrected work functions: 3.387755, 2.585215 eV

Showing only first 2 kpts
 Kpt  Band  Eigenvalues  Occupancy
  0    29     -3.24302    1.98824
  0    30     -3.15930    1.93883
  0    31     -2.81400    0.06156
  0    32     -2.73654    0.01340

  1    29     -3.00727    1.20490
  1    30     -2.97324    0.86834
  1    31     -2.95547    0.69943
  1    32     -2.93877    0.55602


Fermi level: -2.98648

No gap
Writing to output.gpw (mode='')


Forces in eV/Ang:
  0 Li   -0.00202    0.00164   -0.27206
  1 Li   -0.00596   -0.00102   -0.27391
  2 Li    0.00799   -0.00272   -0.27393
  3 Li    0.00097   -0.00592   -0.27250
  4 Li   -0.00015    0.00519   -0.27177
  5 Li   -0.00064    0.00375   -0.27271
  6 Li    0.00015    0.00393   -0.27762
  7 Li    0.00357   -0.00425   -0.27423
  8 Li   -0.00334   -0.00161   -0.27280
  9 Li    0.00594   -0.00454    0.25851
 10 Li   -0.00483    0.00385    0.26396
 11 Li   -0.00124   -0.00908    0.26752
 12 Li    0.00402    0.00269    0.26414
 13 Li   -0.00632    0.00224    0.26297
 14 Li    0.00306    0.00294    0.28710
 15 Li   -0.00116    0.00239    0.26895
 16 Li    0.00431   -0.00562    0.27165
 17 Li   -0.00360    0.00552    0.26040
 18 Li   -0.00030   -0.00512    0.02643
 19 Li   -0.01480   -0.01234   -0.03194
 20 Li    0.00568   -0.00616   -0.00862
 21 Li    0.00104    0.00387    0.02362
 22 Li   -0.01885    0.01465    0.01021
 23 Li    0.00773    0.01019    0.01193
 24 Li    0.00264    0.00195    0.02343
 25 Li   -0.00758    0.00455    0.02390
 26 Li    0.00438    0.00334    0.02297
 27 Li    0.00287   -0.00266    0.00616
 28 Li   -0.00589   -0.00420   -0.00136
 29 Li    0.00059   -0.03992   -0.07769
 30 Li    0.04816    0.01137   -0.07745
 31 Li   -0.02918    0.00873   -0.01798
 32 Li   -0.09295    0.06878   -0.24983
 33 Li   -0.00330   -0.00017   -0.01845
 34 Li    0.01546   -0.00886   -0.00599
 35 Li   -0.00978    0.02063   -0.02747
 36 O     0.00769   -0.07563    0.26659
 37 O     0.03382    0.04799    0.03113
 38 C     0.11901    0.00401   -0.35254
 39 C     0.09408   -0.03008   -0.05328
 40 H     0.00926   -0.00623    0.21368
 41 H    -0.13942    0.13178   -0.15354
 42 H    -0.00542   -0.05876    0.05283
 43 H    -0.17334   -0.02589    0.10005
 44 H     0.15863   -0.14134    0.21774
 45 H    -0.05120    0.08591    0.06531

System changes: positions 

Initializing position-dependent things.

Density initialized from wave functions
       .-----------------------.  
      /|                       |  
     / |                       |  
    /  |                       |  
   /   |                       |  
  /    |                       |  
 *     |                       |  
 |     |                       |  
 |     |                       |  
 |     |                       |  
 |     |                       |  
 |     |          H            |  
 |     Li      LiC     Hi      |  
 |     |       O     CO        |  
 |     |     Li H    Hi      Li|  
 |     |  Li      Li      Li   |  
 | Li  |   Li      Li          |  
 |     |Li      Li      Li     |  
 |     |                       |  
 |   LLi     LLi     LLi       |  
 |     |  Li      Li      Li   |  
 | Li  |   Li      Li          |  
 |     |Li      Li      Li     |  
 Li    | Li      Li            |  
 |    Li      Li      Li       |  
 |     |                       |  
 |     |                       |  
 |     |                       |  
 |     |                       |  
 |     |                       |  
 |     |                       |  
 |     .-----------------------.  
 |    /                       /   
 |   /                       /    
 |  /                       /     
 | /                       /      
 |/                       /       
 *-----------------------*        

Positions:
   0 Li     1.617037    1.617037   10.000000    ( 0.0000,  0.0000,  0.0000)
   1 Li     4.851111    1.617037   10.000000    ( 0.0000,  0.0000,  0.0000)
   2 Li     8.085185    1.617037   10.000000    ( 0.0000,  0.0000,  0.0000)
   3 Li     1.617037    4.851111   10.000000    ( 0.0000,  0.0000,  0.0000)
   4 Li     4.851111    4.851111   10.000000    ( 0.0000,  0.0000,  0.0000)
   5 Li     8.085185    4.851111   10.000000    ( 0.0000,  0.0000,  0.0000)
   6 Li     1.617037    8.085185   10.000000    ( 0.0000,  0.0000,  0.0000)
   7 Li     4.851111    8.085185   10.000000    ( 0.0000,  0.0000,  0.0000)
   8 Li     8.085185    8.085185   10.000000    ( 0.0000,  0.0000,  0.0000)
   9 Li     0.000000    0.000000   11.617037    ( 0.0000,  0.0000,  0.0000)
  10 Li     3.234074    0.000000   11.617037    ( 0.0000,  0.0000,  0.0000)
  11 Li     6.468148    0.000000   11.617037    ( 0.0000,  0.0000,  0.0000)
  12 Li     0.000000    3.234074   11.617037    ( 0.0000,  0.0000,  0.0000)
  13 Li     3.234074    3.234074   11.617037    ( 0.0000,  0.0000,  0.0000)
  14 Li     6.468148    3.234074   11.617037    ( 0.0000,  0.0000,  0.0000)
  15 Li     0.000000    6.468148   11.617037    ( 0.0000,  0.0000,  0.0000)
  16 Li     3.234074    6.468148   11.617037    ( 0.0000,  0.0000,  0.0000)
  17 Li     6.468148    6.468148   11.617037    ( 0.0000,  0.0000,  0.0000)
  18 Li     1.616047    1.616855   13.481256    ( 0.0000,  0.0000,  0.0000)
  19 Li     4.851431    1.617372   13.466170    ( 0.0000,  0.0000,  0.0000)
  20 Li     8.085195    1.615912   13.470728    ( 0.0000,  0.0000,  0.0000)
  21 Li     1.616301    4.850579   13.480751    ( 0.0000,  0.0000,  0.0000)
  22 Li     4.851992    4.848940   13.484080    ( 0.0000,  0.0000,  0.0000)
  23 Li     8.084443    4.851060   13.481016    ( 0.0000,  0.0000,  0.0000)
  24 Li     1.617957    8.085880   13.478284    ( 0.0000,  0.0000,  0.0000)
  25 Li     4.850016    8.087499   13.480515    ( 0.0000,  0.0000,  0.0000)
  26 Li     8.085435    8.087097   13.479966    ( 0.0000,  0.0000,  0.0000)
  27 Li     0.000453   -0.000612   15.446563    ( 0.0000,  0.0000,  0.0000)
  28 Li     3.231932   -0.002020   15.444434    ( 0.0000,  0.0000,  0.0000)
  29 Li     6.468901   -0.017991   15.416787    ( 0.0000,  0.0000,  0.0000)
  30 Li     0.020656    3.238194   15.418329    ( 0.0000,  0.0000,  0.0000)
  31 Li     3.225948    3.237260   15.438823    ( 0.0000,  0.0000,  0.0000)
  32 Li     6.409291    3.273759   15.315745    ( 0.0000,  0.0000,  0.0000)
  33 Li    -0.001607    6.467139   15.439139    ( 0.0000,  0.0000,  0.0000)
  34 Li     3.238739    6.465926   15.443176    ( 0.0000,  0.0000,  0.0000)
  35 Li     6.465256    6.473603   15.436028    ( 0.0000,  0.0000,  0.0000)
  36 O      8.073466    1.611526   18.451042    ( 0.0000,  0.0000,  0.0000)
  37 O      5.193424    1.656503   18.194868    ( 0.0000,  0.0000,  0.0000)
  38 C      7.357715    2.795102   18.082977    ( 0.0000,  0.0000,  0.0000)
  39 C      5.934855    2.806083   18.618948    ( 0.0000,  0.0000,  0.0000)
  40 H      7.896230    3.718955   18.331342    ( 0.0000,  0.0000,  0.0000)
  41 H      7.389039    2.710373   17.000919    ( 0.0000,  0.0000,  0.0000)
  42 H      5.405862    3.687801   18.237204    ( 0.0000,  0.0000,  0.0000)
  43 H      5.977529    2.882997   19.717686    ( 0.0000,  0.0000,  0.0000)
  44 H      8.276066    1.675798   19.388424    ( 0.0000,  0.0000,  0.0000)
  45 H      5.755460    0.877400   18.330068    ( 0.0000,  0.0000,  0.0000)

Unit cell:
           periodic     x           y           z      points  spacing
  1. axis:    yes    9.702222    0.000000    0.000000    60     0.1617
  2. axis:    yes    0.000000    9.702222    0.000000    60     0.1617
  3. axis:    no     0.000000    0.000000   24.851111   156     0.1593

  Lengths:   9.702222   9.702222  24.851111
  Angles:   90.000000  90.000000  90.000000

Effective grid spacing dv^(1/3) = 0.1609

     iter     time        total  log10-change:
                         energy  eigst   dens
iter:   1 00:17:31  -290.578186  -1.42
iter:   2 00:26:08  -290.577214  -2.17  -2.22
iter:   3 00:34:34  -290.572521c -2.73  -2.28
iter:   4 00:41:58  -290.571221c -2.57  -2.49
Writing to output.gpw (mode='')

iter:   5 00:49:03  -290.571082c -3.29  -2.66
iter:   6 00:55:35  -290.570704c -3.07  -2.74
iter:   7 01:04:15  -290.570601c -2.99  -2.87
iter:   8 01:12:58  -290.570597c -3.09  -2.98
iter:   9 01:20:24  -290.570571c -3.68  -3.04
Writing to output.gpw (mode='')

iter:  10 01:27:18  -290.570544c -3.50  -3.12
iter:  11 01:33:35  -290.570550c -4.13  -3.41
iter:  12 01:40:37  -290.570549c -4.34  -3.57
iter:  13 01:48:15  -290.570551c -4.46  -3.61
iter:  14 01:54:04  -290.570546c -4.84  -3.63
Writing to output.gpw (mode='')

iter:  15 01:58:11  -290.570538c -4.80  -3.72
iter:  16 02:04:43  -290.570538c -5.13  -3.90
iter:  17 02:11:47  -290.570534c -5.38  -3.99
iter:  18 02:17:23  -290.570531c -5.62  -4.24c
iter:  19 02:21:21  -290.570532c -5.76  -4.33c
Writing to output.gpw (mode='')

iter:  20 02:25:03  -290.570532c -5.81  -4.48c
iter:  21 02:29:32  -290.570533c -6.09  -4.55c
iter:  22 02:34:20  -290.570533c -6.12  -4.64c
iter:  23 02:38:21  -290.570534c -6.24  -4.74c
iter:  24 02:43:40  -290.570534c -6.42  -4.85c
Writing to output.gpw (mode='')

iter:  25 02:47:08  -290.570534c -6.55  -4.89c
iter:  26 02:50:53  -290.570534c -6.62  -4.94c
iter:  27 02:55:34  -290.570534c -6.82  -5.12c
iter:  28 03:03:40  -290.570534c -6.85  -5.23c
iter:  29 03:06:57  -290.570534c -6.94  -5.31c
Writing to output.gpw (mode='')

iter:  30 03:10:07  -290.570534c -7.06  -5.36c
iter:  31 03:12:42  -290.570534c -7.25  -5.41c
iter:  32 03:15:51  -290.570534c -7.17  -5.56c
iter:  33 03:18:40  -290.570534c -7.47c -5.57c

Converged after 33 iterations.

Dipole moment: (-2.507380, -3.126279, 0.412686) |e|*Ang

Energy contributions relative to reference atoms: (reference = -13512.263335)

Kinetic:       +141.050683
Potential:     -131.986995
External:        +0.000000
XC:            -300.164280
Entropy (-ST):   -0.150473
Local:           +0.605294
--------------------------
Free energy:   -290.645771
Extrapolated:  -290.570534

Dipole-layer corrected work functions: 3.387756, 2.594431 eV

Showing only first 2 kpts
 Kpt  Band  Eigenvalues  Occupancy
  0    29     -3.24850    1.98845
  0    30     -3.16426    1.93925
  0    31     -2.81729    0.06001
  0    32     -2.74203    0.01364

  1    29     -3.01039    1.19056
  1    30     -2.97794    0.86920
  1    31     -2.96072    0.70530
  1    32     -2.94321    0.55469


Fermi level: -2.99109

No gap
Writing to output.gpw (mode='')


Forces in eV/Ang:
  0 Li   -0.00199    0.00189   -0.27207
  1 Li   -0.00605   -0.00071   -0.27504
  2 Li    0.00801   -0.00274   -0.27517
  3 Li    0.00104   -0.00644   -0.27270
  4 Li   -0.00004    0.00504   -0.27275
  5 Li   -0.00088    0.00389   -0.27396
  6 Li    0.00010    0.00392   -0.27775
  7 Li    0.00415   -0.00439   -0.27413
  8 Li   -0.00345   -0.00174   -0.27304
  9 Li    0.00677   -0.00509    0.26019
 10 Li   -0.00600    0.00239    0.26493
 11 Li   -0.00119   -0.01017    0.27005
 12 Li    0.00476    0.00335    0.26724
 13 Li   -0.00630    0.00317    0.26597
 14 Li    0.00294    0.00436    0.29108
 15 Li   -0.00052    0.00252    0.27146
 16 Li    0.00390   -0.00490    0.27351
 17 Li   -0.00402    0.00475    0.26423
 18 Li    0.00122   -0.00744    0.01877
 19 Li   -0.02236   -0.01909   -0.03989
 20 Li    0.00812   -0.00709   -0.01410
 21 Li    0.00297    0.00688    0.01540
 22 Li   -0.03074    0.02695   -0.01122
 23 Li    0.01291    0.01540   -0.00166
 24 Li    0.00243    0.00163    0.01969
 25 Li   -0.00972    0.00250    0.01607
 26 Li    0.00635    0.00155    0.01569
 27 Li    0.00338   -0.00289    0.00851
 28 Li   -0.00468   -0.00249    0.00071
 29 Li   -0.00101   -0.02883   -0.06521
 30 Li    0.03708    0.01018   -0.06769
 31 Li   -0.02807    0.00706   -0.01399
 32 Li   -0.05774    0.04490   -0.18491
 33 Li   -0.00211    0.00134   -0.01543
 34 Li    0.01448   -0.00910   -0.00397
 35 Li   -0.00922    0.02008   -0.02352
 36 O     0.02362   -0.07307    0.20487
 37 O    -0.00689    0.08361    0.03095
 38 C     0.09465   -0.04353   -0.02297
 39 C     0.13936    0.01886   -0.00862
 40 H    -0.00766   -0.06694    0.20003
 41 H    -0.19185    0.16334   -0.37903
 42 H     0.00278   -0.08824    0.03961
 43 H    -0.14213   -0.05120   -0.02920
 44 H     0.14447   -0.10278    0.26045
 45 H    -0.01957    0.07558    0.06892

System changes: positions 

Initializing position-dependent things.

Density initialized from wave functions
       .-----------------------.  
      /|                       |  
     / |                       |  
    /  |                       |  
   /   |                       |  
  /    |                       |  
 *     |                       |  
 |     |                       |  
 |     |                       |  
 |     |                       |  
 |     |                       |  
 |     |          H            |  
 |     Li      LiC     Hi      |  
 |     |       O     CO        |  
 |     |     Li H    Hi      Li|  
 |     |  Li      Li      Li   |  
 | Li  |   Li      Li          |  
 |     |Li      Li      Li     |  
 |     |                       |  
 |   LLi     LLi     LLi       |  
 |     |  Li      Li      Li   |  
 | Li  |   Li      Li          |  
 |     |Li      Li      Li     |  
 Li    | Li      Li            |  
 |    Li      Li      Li       |  
 |     |                       |  
 |     |                       |  
 |     |                       |  
 |     |                       |  
 |     |                       |  
 |     |                       |  
 |     .-----------------------.  
 |    /                       /   
 |   /                       /    
 |  /                       /     
 | /                       /      
 |/                       /       
 *-----------------------*        

Positions:
   0 Li     1.617037    1.617037   10.000000    ( 0.0000,  0.0000,  0.0000)
   1 Li     4.851111    1.617037   10.000000    ( 0.0000,  0.0000,  0.0000)
   2 Li     8.085185    1.617037   10.000000    ( 0.0000,  0.0000,  0.0000)
   3 Li     1.617037    4.851111   10.000000    ( 0.0000,  0.0000,  0.0000)
   4 Li     4.851111    4.851111   10.000000    ( 0.0000,  0.0000,  0.0000)
   5 Li     8.085185    4.851111   10.000000    ( 0.0000,  0.0000,  0.0000)
   6 Li     1.617037    8.085185   10.000000    ( 0.0000,  0.0000,  0.0000)
   7 Li     4.851111    8.085185   10.000000    ( 0.0000,  0.0000,  0.0000)
   8 Li     8.085185    8.085185   10.000000    ( 0.0000,  0.0000,  0.0000)
   9 Li     0.000000    0.000000   11.617037    ( 0.0000,  0.0000,  0.0000)
  10 Li     3.234074    0.000000   11.617037    ( 0.0000,  0.0000,  0.0000)
  11 Li     6.468148    0.000000   11.617037    ( 0.0000,  0.0000,  0.0000)
  12 Li     0.000000    3.234074   11.617037    ( 0.0000,  0.0000,  0.0000)
  13 Li     3.234074    3.234074   11.617037    ( 0.0000,  0.0000,  0.0000)
  14 Li     6.468148    3.234074   11.617037    ( 0.0000,  0.0000,  0.0000)
  15 Li     0.000000    6.468148   11.617037    ( 0.0000,  0.0000,  0.0000)
  16 Li     3.234074    6.468148   11.617037    ( 0.0000,  0.0000,  0.0000)
  17 Li     6.468148    6.468148   11.617037    ( 0.0000,  0.0000,  0.0000)
  18 Li     1.615849    1.616601   13.484518    ( 0.0000,  0.0000,  0.0000)
  19 Li     4.850863    1.616907   13.464171    ( 0.0000,  0.0000,  0.0000)
  20 Li     8.085434    1.615443   13.470555    ( 0.0000,  0.0000,  0.0000)
  21 Li     1.616210    4.850648   13.483799    ( 0.0000,  0.0000,  0.0000)
  22 Li     4.851334    4.849182   13.487161    ( 0.0000,  0.0000,  0.0000)
  23 Li     8.084636    4.851486   13.483628    ( 0.0000,  0.0000,  0.0000)
  24 Li     1.618242    8.086092   13.480869    ( 0.0000,  0.0000,  0.0000)
  25 Li     4.849484    8.088120   13.483528    ( 0.0000,  0.0000,  0.0000)
  26 Li     8.085673    8.087594   13.482838    ( 0.0000,  0.0000,  0.0000)
  27 Li     0.000657   -0.000839   15.446947    ( 0.0000,  0.0000,  0.0000)
  28 Li     3.231287   -0.002571   15.444099    ( 0.0000,  0.0000,  0.0000)
  29 Li     6.469057   -0.023046   15.408055    ( 0.0000,  0.0000,  0.0000)
  30 Li     0.026565    3.239450   15.409893    ( 0.0000,  0.0000,  0.0000)
  31 Li     3.223212    3.238218   15.436740    ( 0.0000,  0.0000,  0.0000)
  32 Li     6.394043    3.284245   15.280283    ( 0.0000,  0.0000,  0.0000)
  33 Li    -0.002046    6.466942   15.437092    ( 0.0000,  0.0000,  0.0000)
  34 Li     3.240258    6.465139   15.442409    ( 0.0000,  0.0000,  0.0000)
  35 Li     6.464307    6.475480   15.433017    ( 0.0000,  0.0000,  0.0000)
  36 O      8.071586    1.607668   18.461003    ( 0.0000,  0.0000,  0.0000)
  37 O      5.195600    1.657729   18.192082    ( 0.0000,  0.0000,  0.0000)
  38 C      7.361967    2.796382   18.085104    ( 0.0000,  0.0000,  0.0000)
  39 C      5.935805    2.806255   18.620799    ( 0.0000,  0.0000,  0.0000)
  40 H      7.898712    3.721174   18.339649    ( 0.0000,  0.0000,  0.0000)
  41 H      7.397264    2.708951   17.005178    ( 0.0000,  0.0000,  0.0000)
  42 H      5.404806    3.687895   18.241162    ( 0.0000,  0.0000,  0.0000)
  43 H      5.967776    2.882904   19.723095    ( 0.0000,  0.0000,  0.0000)
  44 H      8.285927    1.668031   19.395300    ( 0.0000,  0.0000,  0.0000)
  45 H      5.751689    0.876844   18.336705    ( 0.0000,  0.0000,  0.0000)

Unit cell:
           periodic     x           y           z      points  spacing
  1. axis:    yes    9.702222    0.000000    0.000000    60     0.1617
  2. axis:    yes    0.000000    9.702222    0.000000    60     0.1617
  3. axis:    no     0.000000    0.000000   24.851111   156     0.1593

  Lengths:   9.702222   9.702222  24.851111
  Angles:   90.000000  90.000000  90.000000

Effective grid spacing dv^(1/3) = 0.1609

     iter     time        total  log10-change:
                         energy  eigst   dens
iter:   1 03:24:07  -290.592561  -1.39
iter:   2 03:28:19  -290.591533  -2.14  -2.23
iter:   3 03:31:17  -290.588433c -2.68  -2.25
iter:   4 03:34:47  -290.584954c -2.28  -2.39
Writing to output.gpw (mode='')

iter:   5 03:39:17  -290.584979c -3.42  -2.57
iter:   6 03:43:52  -290.584399c -2.92  -2.70
iter:   7 03:49:00  -290.584650c -2.39  -2.85
iter:   8 03:51:40  -290.584332c -3.57  -2.77
iter:   9 03:54:22  -290.584295c -3.27  -2.99
Writing to output.gpw (mode='')

iter:  10 03:57:45  -290.584323c -3.59  -3.06
iter:  11 04:01:14  -290.584285c -4.11  -3.18
iter:  12 04:05:22  -290.584269c -3.89  -3.27
iter:  13 04:08:50  -290.584261c -4.21  -3.33
iter:  14 04:13:20  -290.584262c -4.53  -3.55
Writing to output.gpw (mode='')

iter:  15 04:19:01  -290.584246c -4.72  -3.62
iter:  16 04:23:39  -290.584250c -5.02  -3.74
iter:  17 04:26:29  -290.584252c -5.16  -3.93
iter:  18 04:29:47  -290.584245c -5.55  -4.02c
iter:  19 04:35:40  -290.584247c -5.41  -3.99
Writing to output.gpw (mode='')

iter:  20 04:42:45  -290.584246c -5.84  -4.26c
iter:  21 04:52:49  -290.584245c -6.12  -4.33c
iter:  22 05:01:30  -290.584245c -6.12  -4.45c
iter:  23 05:10:22  -290.584245c -6.27  -4.56c
iter:  24 05:16:49  -290.584245c -6.51  -4.63c
Writing to output.gpw (mode='')

iter:  25 05:23:57  -290.584245c -6.63  -4.67c
iter:  26 05:28:59  -290.584245c -6.88  -4.84c
iter:  27 05:34:51  -290.584245c -6.91  -4.93c
iter:  28 05:41:34  -290.584246c -6.88  -4.99c
iter:  29 05:49:28  -290.584246c -7.04  -5.15c
Writing to output.gpw (mode='')

iter:  30 05:58:20  -290.584246c -7.28  -5.34c
iter:  31 06:02:37  -290.584246c -7.32  -5.35c
iter:  32 06:09:21  -290.584246c -7.48c -5.40c

Converged after 32 iterations.

Dipole moment: (-2.580944, -3.040278, 0.408698) |e|*Ang

Energy contributions relative to reference atoms: (reference = -13512.263335)

Kinetic:       +140.844932
Potential:     -131.830162
External:        +0.000000
XC:            -300.129055
Entropy (-ST):   -0.150215
Local:           +0.605147
--------------------------
Free energy:   -290.659354
Extrapolated:  -290.584246

Dipole-layer corrected work functions: 3.387819, 2.602162 eV

Showing only first 2 kpts
 Kpt  Band  Eigenvalues  Occupancy
  0    29     -3.25337    1.98867
  0    30     -3.16850    1.93966
  0    31     -2.81992    0.05855
  0    32     -2.74693    0.01391

  1    29     -3.01295    1.17768
  1    30     -2.98198    0.87064
  1    31     -2.96517    0.71029
  1    32     -2.94679    0.55213


Fermi level: -2.99499

No gap
Writing to output.gpw (mode='')


Forces in eV/Ang:
  0 Li   -0.00193    0.00212   -0.27208
  1 Li   -0.00614   -0.00040   -0.27621
  2 Li    0.00803   -0.00275   -0.27646
  3 Li    0.00114   -0.00696   -0.27291
  4 Li    0.00004    0.00490   -0.27371
  5 Li   -0.00113    0.00402   -0.27525
  6 Li    0.00006    0.00390   -0.27796
  7 Li    0.00472   -0.00455   -0.27404
  8 Li   -0.00356   -0.00189   -0.27331
  9 Li    0.00772   -0.00575    0.26183
 10 Li   -0.00738    0.00073    0.26570
 11 Li   -0.00114   -0.01141    0.27257
 12 Li    0.00564    0.00403    0.27039
 13 Li   -0.00637    0.00413    0.26895
 14 Li    0.00275    0.00586    0.29502
 15 Li    0.00027    0.00278    0.27389
 16 Li    0.00327   -0.00397    0.27510
 17 Li   -0.00445    0.00407    0.26810
 18 Li    0.00277   -0.00980    0.01090
 19 Li   -0.02984   -0.02582   -0.04736
 20 Li    0.01040   -0.00792   -0.01921
 21 Li    0.00497    0.00997    0.00693
 22 Li   -0.04324    0.03993   -0.03328
 23 Li    0.01807    0.02067   -0.01516
 24 Li    0.00228    0.00128    0.01579
 25 Li   -0.01195    0.00039    0.00798
 26 Li    0.00838   -0.00024    0.00815
 27 Li    0.00388   -0.00311    0.01080
 28 Li   -0.00340   -0.00081    0.00283
 29 Li   -0.00267   -0.01743   -0.05243
 30 Li    0.02533    0.00886   -0.05729
 31 Li   -0.02644    0.00526   -0.00994
 32 Li   -0.02815    0.02425   -0.12920
 33 Li   -0.00086    0.00282   -0.01225
 34 Li    0.01330   -0.00922   -0.00185
 35 Li   -0.00858    0.01910   -0.01954
 36 O     0.04036   -0.05014    0.11238
 37 O    -0.02825    0.09903    0.02272
 38 C     0.06283   -0.09307    0.19525
 39 C     0.13638    0.04394    0.02967
 40 H    -0.00842   -0.11577    0.17213
 41 H    -0.21988    0.17568   -0.43427
 42 H     0.01698   -0.09145    0.01679
 43 H    -0.08784   -0.07337   -0.13099
 44 H     0.11836   -0.05072    0.28240
 45 H     0.00419    0.06516    0.06687

System changes: positions 

Initializing position-dependent things.

Density initialized from wave functions
       .-----------------------.  
      /|                       |  
     / |                       |  
    /  |                       |  
   /   |                       |  
  /    |                       |  
 *     |                       |  
 |     |                       |  
 |     |                       |  
 |     |                       |  
 |     |                       |  
 |     |          H            |  
 |     Li      LiC     Hi      |  
 |     |       O     CO        |  
 |     |     Li H    Hi      Li|  
 |     |  Li      Li      Li   |  
 | Li  |   Li      Li          |  
 |     |Li      Li      Li     |  
 |     |                       |  
 |   LLi     LLi     LLi       |  
 |     |  Li      Li      Li   |  
 | Li  |   Li      Li          |  
 |     |Li      Li      Li     |  
 Li    | Li      Li            |  
 |    Li      Li      Li       |  
[...]
  2. axis:    yes    0.000000    9.702222    0.000000    60     0.1617
  3. axis:    no     0.000000    0.000000   24.851111   156     0.1593

  Lengths:   9.702222   9.702222  24.851111
  Angles:   90.000000  90.000000  90.000000

Effective grid spacing dv^(1/3) = 0.1609

     iter     time        total  log10-change:
                         energy  eigst   dens
iter:   1 15:58:22  -290.711594  -1.32
iter:   2 16:03:50  -290.677719  -1.87  -1.76
iter:   3 16:07:09  -290.671425  -2.96  -2.08
iter:   4 16:10:25  -290.668616c -2.47  -2.37
Writing to output.gpw (mode='')

iter:   5 16:14:06  -290.668994c -3.39  -2.79
iter:   6 16:18:08  -290.668598c -2.96  -2.67
iter:   7 16:23:09  -290.668656c -2.52  -2.88
iter:   8 16:25:34  -290.668629c -3.78  -2.96
iter:   9 16:29:15  -290.668666c -3.96  -3.29
Writing to output.gpw (mode='')

iter:  10 16:33:49  -290.668627c -3.85  -3.26
iter:  11 16:38:33  -290.668611c -4.10  -3.44
iter:  12 16:42:38  -290.668606c -4.65  -3.46
iter:  13 16:48:02  -290.668597c -4.66  -3.52
iter:  14 16:52:31  -290.668595c -4.60  -3.66
Writing to output.gpw (mode='')

iter:  15 16:55:47  -290.668597c -5.17  -3.84
iter:  16 16:59:40  -290.668605c -5.16  -3.88
iter:  17 17:01:58  -290.668607c -5.33  -4.07c
iter:  18 17:05:28  -290.668604c -5.89  -4.17c
iter:  19 17:08:25  -290.668602c -5.82  -4.25c
Writing to output.gpw (mode='')

iter:  20 17:12:05  -290.668603c -6.24  -4.59c
iter:  21 17:16:03  -290.668604c -6.08  -4.63c
iter:  22 17:19:17  -290.668603c -6.28  -4.69c
iter:  23 17:24:00  -290.668605c -6.57  -4.70c
iter:  24 17:26:48  -290.668605c -6.71  -4.93c
Writing to output.gpw (mode='')

iter:  25 17:29:44  -290.668605c -6.78  -4.97c
iter:  26 17:34:08  -290.668604c -6.90  -5.07c
iter:  27 17:37:30  -290.668605c -6.91  -5.27c
iter:  28 17:41:08  -290.668605c -7.15  -5.32c
iter:  29 17:44:10  -290.668605c -7.12  -5.37c
Writing to output.gpw (mode='')

iter:  30 17:47:57  -290.668605c -7.44c -5.52c

Converged after 30 iterations.

Dipole moment: (-2.553512, -3.256429, 0.406787) |e|*Ang

Energy contributions relative to reference atoms: (reference = -13512.263335)

Kinetic:       +141.815574
Potential:     -132.544906
External:        +0.000000
XC:            -300.469159
Entropy (-ST):   -0.148088
Local:           +0.603931
--------------------------
Free energy:   -290.742649
Extrapolated:  -290.668605

Dipole-layer corrected work functions: 3.386174, 2.604190 eV

Showing only first 2 kpts
 Kpt  Band  Eigenvalues  Occupancy
  0    29     -3.27890    1.99316
  0    30     -3.17442    1.94601
  0    31     -2.81610    0.05415
  0    32     -2.77625    0.02477

  1    29     -3.01003    1.14738
  1    30     -2.98069    0.85604
  1    31     -2.95314    0.60271
  1    32     -2.94128    0.50773


Fermi level: -2.99518

No gap

Forces in eV/Ang:
  0 Li   -0.00005    0.00000   -0.26674
  1 Li   -0.00808   -0.00323   -0.28251
  2 Li    0.01006   -0.00318   -0.28214
  3 Li    0.00429   -0.00551   -0.26920
  4 Li   -0.00262    0.00806   -0.27677
  5 Li    0.00161    0.00527   -0.28110
  6 Li   -0.00031    0.00343   -0.28259
  7 Li    0.00411   -0.00745   -0.26705
  8 Li   -0.00087   -0.00411   -0.27135
  9 Li    0.03453   -0.02886    0.23478
 10 Li   -0.05401   -0.04890    0.20103
 11 Li    0.00175   -0.03246    0.27153
 12 Li    0.03001    0.00611    0.27146
 13 Li   -0.04075    0.00470    0.24482
 14 Li   -0.01200    0.01853    0.32894
 15 Li    0.03644    0.03654    0.23597
 16 Li   -0.05606    0.06292    0.18618
 17 Li   -0.00424    0.03128    0.25370
 18 Li   -0.00773    0.00162    0.00193
 19 Li    0.01655    0.02454    0.03257
 20 Li    0.00152   -0.00634    0.00221
 21 Li   -0.00910   -0.00444    0.00159
 22 Li    0.04614   -0.04752    0.05191
 23 Li   -0.01502   -0.00600    0.01021
 24 Li    0.00173    0.00109   -0.00127
 25 Li    0.00457    0.00787    0.00356
 26 Li   -0.00282    0.01006    0.00366
 27 Li   -0.00575    0.00789   -0.00109
 28 Li   -0.00007   -0.00394    0.00341
 29 Li   -0.00407    0.02200    0.00274
 30 Li   -0.02025    0.00288   -0.00969
 31 Li    0.01440   -0.00069   -0.02212
 32 Li    0.01398   -0.00392    0.00887
 33 Li    0.00368   -0.00253    0.00331
 34 Li   -0.01119    0.01059    0.00500
 35 Li    0.00335   -0.01087   -0.02196
 36 O     0.00627    0.01410    0.03858
 37 O     0.00012   -0.02078   -0.03565
 38 C    -0.01095    0.01861   -0.00245
 39 C    -0.04632    0.00380    0.03868
 40 H     0.01425   -0.00887    0.09806
 41 H    -0.00410   -0.03139   -0.00989
 42 H    -0.00270    0.01204   -0.05226
 43 H     0.03791   -0.02672    0.08253
 44 H     0.00891   -0.03232    0.02214
 45 H    -0.01626    0.01109   -0.01075

System changes: positions 

Initializing position-dependent things.

Density initialized from wave functions
       .-----------------------.  
      /|                       |  
     / |                       |  
    /  |                       |  
   /   |                       |  
  /    |                       |  
 *     |                       |  
 |     |                       |  
 |     |                       |  
 |     |                       |  
 |     |                       |  
 |     |         H             |  
 |     Li      LiC     Hi      |  
 |     |       OH    CO        |  
 |   Li|     Li      Hi        |  
 |     |  Li      Li      Li   |  
 | Li  |   Li      Li          |  
 |     |Li      Li      Li     |  
 |     |                       |  
 |   LLi     LLi     LLi       |  
 |     |  Li      Li      Li   |  
 | Li  |   Li      Li          |  
 |     |Li      Li      Li     |  
 Li    | Li      Li            |  
 |    Li      Li      Li       |  
 |     |                       |  
 |     |                       |  
 |     |                       |  
 |     |                       |  
 |     |                       |  
 |     |                       |  
 |     .-----------------------.  
 |    /                       /   
 |   /                       /    
 |  /                       /     
 | /                       /      
 |/                       /       
 *-----------------------*        

Positions:
   0 Li     1.617037    1.617037   10.000000    ( 0.0000,  0.0000,  0.0000)
   1 Li     4.851111    1.617037   10.000000    ( 0.0000,  0.0000,  0.0000)
   2 Li     8.085185    1.617037   10.000000    ( 0.0000,  0.0000,  0.0000)
   3 Li     1.617037    4.851111   10.000000    ( 0.0000,  0.0000,  0.0000)
   4 Li     4.851111    4.851111   10.000000    ( 0.0000,  0.0000,  0.0000)
   5 Li     8.085185    4.851111   10.000000    ( 0.0000,  0.0000,  0.0000)
   6 Li     1.617037    8.085185   10.000000    ( 0.0000,  0.0000,  0.0000)
   7 Li     4.851111    8.085185   10.000000    ( 0.0000,  0.0000,  0.0000)
   8 Li     8.085185    8.085185   10.000000    ( 0.0000,  0.0000,  0.0000)
   9 Li     0.000000    0.000000   11.617037    ( 0.0000,  0.0000,  0.0000)
  10 Li     3.234074    0.000000   11.617037    ( 0.0000,  0.0000,  0.0000)
  11 Li     6.468148    0.000000   11.617037    ( 0.0000,  0.0000,  0.0000)
  12 Li     0.000000    3.234074   11.617037    ( 0.0000,  0.0000,  0.0000)
  13 Li     3.234074    3.234074   11.617037    ( 0.0000,  0.0000,  0.0000)
  14 Li     6.468148    3.234074   11.617037    ( 0.0000,  0.0000,  0.0000)
  15 Li     0.000000    6.468148   11.617037    ( 0.0000,  0.0000,  0.0000)
  16 Li     3.234074    6.468148   11.617037    ( 0.0000,  0.0000,  0.0000)
  17 Li     6.468148    6.468148   11.617037    ( 0.0000,  0.0000,  0.0000)
  18 Li     1.622094    1.585600   13.481763    ( 0.0000,  0.0000,  0.0000)
  19 Li     4.774630    1.562058   13.372747    ( 0.0000,  0.0000,  0.0000)
  20 Li     8.115729    1.590482   13.419470    ( 0.0000,  0.0000,  0.0000)
  21 Li     1.627795    4.883225   13.468657    ( 0.0000,  0.0000,  0.0000)
  22 Li     4.749051    4.943998   13.391391    ( 0.0000,  0.0000,  0.0000)
  23 Li     8.126300    4.911030   13.421355    ( 0.0000,  0.0000,  0.0000)
  24 Li     1.627767    8.086899   13.500732    ( 0.0000,  0.0000,  0.0000)
  25 Li     4.814322    8.087377   13.473172    ( 0.0000,  0.0000,  0.0000)
  26 Li     8.111298    8.088445   13.475539    ( 0.0000,  0.0000,  0.0000)
  27 Li     0.006135   -0.002086   15.478409    ( 0.0000,  0.0000,  0.0000)
  28 Li     3.229208   -0.003672   15.461430    ( 0.0000,  0.0000,  0.0000)
  29 Li     6.452905   -0.010512   15.326001    ( 0.0000,  0.0000,  0.0000)
  30 Li     0.025936    3.254874   15.311143    ( 0.0000,  0.0000,  0.0000)
  31 Li     3.191423    3.243258   15.407041    ( 0.0000,  0.0000,  0.0000)
  32 Li     6.355317    3.312746   15.026713    ( 0.0000,  0.0000,  0.0000)
  33 Li     0.004216    6.474776   15.425273    ( 0.0000,  0.0000,  0.0000)
  34 Li     3.255048    6.454266   15.452364    ( 0.0000,  0.0000,  0.0000)
  35 Li     6.449847    6.496190   15.383057    ( 0.0000,  0.0000,  0.0000)
  36 O      8.061823    1.543995   18.597423    ( 0.0000,  0.0000,  0.0000)
  37 O      5.206515    1.671088   18.164124    ( 0.0000,  0.0000,  0.0000)
  38 C      7.400948    2.761565   18.207173    ( 0.0000,  0.0000,  0.0000)
  39 C      5.947102    2.794105   18.658700    ( 0.0000,  0.0000,  0.0000)
  40 H      7.939630    3.650370   18.556782    ( 0.0000,  0.0000,  0.0000)
  41 H      7.453817    2.770765   17.115112    ( 0.0000,  0.0000,  0.0000)
  42 H      5.458803    3.689669   18.261840    ( 0.0000,  0.0000,  0.0000)
  43 H      5.887390    2.844549   19.755075    ( 0.0000,  0.0000,  0.0000)
  44 H      8.391816    1.649608   19.497045    ( 0.0000,  0.0000,  0.0000)
  45 H      5.690485    0.877019   18.434879    ( 0.0000,  0.0000,  0.0000)

Unit cell:
           periodic     x           y           z      points  spacing
  1. axis:    yes    9.702222    0.000000    0.000000    60     0.1617
  2. axis:    yes    0.000000    9.702222    0.000000    60     0.1617
  3. axis:    no     0.000000    0.000000   24.851111   156     0.1593

  Lengths:   9.702222   9.702222  24.851111
  Angles:   90.000000  90.000000  90.000000

Effective grid spacing dv^(1/3) = 0.1609

     iter     time        total  log10-change:
                         energy  eigst   dens
iter:   1 17:52:03  -290.702422  -1.40
iter:   2 17:55:51  -290.677566  -1.94  -1.82
iter:   3 17:59:08  -290.672782c -2.96  -2.12
iter:   4 18:02:51  -290.669872c -2.51  -2.38
Writing to output.gpw (mode='')

iter:   5 18:05:40  -290.670284c -3.49  -2.81
iter:   6 18:08:50  -290.669891c -3.06  -2.68
iter:   7 18:12:01  -290.669889c -2.48  -2.86
iter:   8 18:15:58  -290.669859c -3.75  -2.93
iter:   9 18:19:34  -290.669910c -3.90  -3.28
Writing to output.gpw (mode='')

iter:  10 18:24:23  -290.669874c -3.59  -3.23
iter:  11 18:29:16  -290.669862c -4.19  -3.32
iter:  12 18:32:49  -290.669870c -4.51  -3.35
iter:  13 18:37:30  -290.669853c -4.28  -3.42
iter:  14 18:42:10  -290.669816c -4.42  -3.52
Writing to output.gpw (mode='')

iter:  15 18:47:02  -290.669825c -5.32  -3.81
iter:  16 18:50:42  -290.669829c -5.40  -3.91
iter:  17 18:53:53  -290.669837c -5.41  -4.02c
iter:  18 18:57:16  -290.669833c -5.64  -4.16c
iter:  19 19:02:25  -290.669832c -5.90  -4.20c
Writing to output.gpw (mode='')

iter:  20 19:06:04  -290.669832c -6.05  -4.50c
iter:  21 19:08:53  -290.669830c -6.24  -4.59c
iter:  22 19:12:48  -290.669831c -6.38  -4.66c
iter:  23 19:15:50  -290.669832c -6.76  -4.91c
iter:  24 19:19:10  -290.669832c -6.70  -4.93c
Writing to output.gpw (mode='')

iter:  25 19:22:02  -290.669832c -6.82  -4.96c
iter:  26 19:25:45  -290.669833c -6.97  -5.06c
iter:  27 19:30:21  -290.669832c -7.11  -5.14c
iter:  28 19:34:47  -290.669832c -7.36  -5.31c
iter:  29 19:37:26  -290.669833c -7.34  -5.44c
Writing to output.gpw (mode='')

iter:  30 19:40:05  -290.669832c -7.64c -5.55c

Converged after 30 iterations.

Dipole moment: (-2.531802, -3.295102, 0.406566) |e|*Ang

Energy contributions relative to reference atoms: (reference = -13512.263335)

Kinetic:       +141.582943
Potential:     -132.365367
External:        +0.000000
XC:            -300.417122
Entropy (-ST):   -0.148005
Local:           +0.603716
--------------------------
Free energy:   -290.743835
Extrapolated:  -290.669832

Dipole-layer corrected work functions: 3.386164, 2.604605 eV

Showing only first 2 kpts
 Kpt  Band  Eigenvalues  Occupancy
  0    29     -3.28058    1.99336
  0    30     -3.17486    1.94626
  0    31     -2.81594    0.05377
  0    32     -2.77815    0.02562

  1    29     -3.00994    1.14454
  1    30     -2.98099    0.85701
  1    31     -2.95265    0.59692
  1    32     -2.94087    0.50313


Fermi level: -2.99538

No gap

Forces in eV/Ang:
  0 Li   -0.00001   -0.00011   -0.26645
  1 Li   -0.00806   -0.00326   -0.28302
  2 Li    0.01011   -0.00317   -0.28264
  3 Li    0.00436   -0.00541   -0.26912
  4 Li   -0.00261    0.00806   -0.27702
  5 Li    0.00165    0.00522   -0.28159
  6 Li   -0.00023    0.00333   -0.28271
  7 Li    0.00404   -0.00753   -0.26687
  8 Li   -0.00076   -0.00417   -0.27116
  9 Li    0.03637   -0.03047    0.23254
 10 Li   -0.05635   -0.05128    0.19754
 11 Li    0.00136   -0.03306    0.27176
 12 Li    0.03100    0.00634    0.27161
 13 Li   -0.04206    0.00505    0.24447
 14 Li   -0.01250    0.01879    0.32981
 15 Li    0.03846    0.03875    0.23366
 16 Li   -0.05836    0.06575    0.18217
 17 Li   -0.00490    0.03239    0.25371
 18 Li   -0.00782    0.00226    0.00170
 19 Li    0.01808    0.02485    0.03391
 20 Li    0.00056   -0.00556    0.00323
 21 Li   -0.00898   -0.00522    0.00165
 22 Li    0.04675   -0.04767    0.05150
 23 Li   -0.01533   -0.00726    0.01081
 24 Li    0.00091    0.00146   -0.00174
 25 Li    0.00563    0.00768    0.00367
 26 Li   -0.00338    0.01018    0.00374
 27 Li   -0.00603    0.00808   -0.00183
 28 Li   -0.00020   -0.00372    0.00317
 29 Li   -0.00370    0.02283    0.00624
 30 Li   -0.02100    0.00256   -0.00676
 31 Li    0.01502   -0.00090   -0.02113
 32 Li    0.01774   -0.00649    0.02149
 33 Li    0.00346   -0.00258    0.00372
 34 Li   -0.01167    0.01088    0.00447
 35 Li    0.00401   -0.01119   -0.02037
 36 O    -0.00750    0.02083    0.00913
 37 O     0.01215    0.02894   -0.00723
 38 C    -0.01385    0.01323    0.06599
 39 C     0.00925    0.01591    0.04490
 40 H    -0.00473   -0.02693    0.09179
 41 H    -0.02406   -0.03101   -0.05894
 42 H     0.00943   -0.02491   -0.03715
 43 H     0.02032   -0.03707    0.02205
 44 H     0.00399   -0.00848    0.03421
 45 H    -0.01338   -0.00914   -0.00881

System changes: positions 

Initializing position-dependent things.

Density initialized from wave functions
       .-----------------------.  
      /|                       |  
     / |                       |  
    /  |                       |  
   /   |                       |  
  /    |                       |  
 *     |                       |  
 |     |                       |  
 |     |                       |  
 |     |                       |  
 |     |                       |  
 |     |         H             |  
 |     Li      LiC     Hi      |  
 |     |       OH    CO        |  
 |   Li|     Li      Hi        |  
 |     |  Li      Li      Li   |  
 | Li  |   Li      Li          |  
 |     |Li      Li      Li     |  
 |     |                       |  
 |   LLi     LLi     LLi       |  
 |     |  Li      Li      Li   |  
 | Li  |   Li      Li          |  
 |     |Li      Li      Li     |  
 Li    | Li      Li            |  
 |    Li      Li      Li       |  
 |     |                       |  
 |     |                       |  
 |     |                       |  
 |     |                       |  
 |     |                       |  
 |     |                       |  
 |     .-----------------------.  
 |    /                       /   
 |   /                       /    
 |  /                       /     
 | /                       /      
 |/                       /       
 *-----------------------*        

Positions:
   0 Li     1.617037    1.617037   10.000000    ( 0.0000,  0.0000,  0.0000)
   1 Li     4.851111    1.617037   10.000000    ( 0.0000,  0.0000,  0.0000)
   2 Li     8.085185    1.617037   10.000000    ( 0.0000,  0.0000,  0.0000)
   3 Li     1.617037    4.851111   10.000000    ( 0.0000,  0.0000,  0.0000)
   4 Li     4.851111    4.851111   10.000000    ( 0.0000,  0.0000,  0.0000)
   5 Li     8.085185    4.851111   10.000000    ( 0.0000,  0.0000,  0.0000)
   6 Li     1.617037    8.085185   10.000000    ( 0.0000,  0.0000,  0.0000)
   7 Li     4.851111    8.085185   10.000000    ( 0.0000,  0.0000,  0.0000)
   8 Li     8.085185    8.085185   10.000000    ( 0.0000,  0.0000,  0.0000)
   9 Li     0.000000    0.000000   11.617037    ( 0.0000,  0.0000,  0.0000)
  10 Li     3.234074    0.000000   11.617037    ( 0.0000,  0.0000,  0.0000)
  11 Li     6.468148    0.000000   11.617037    ( 0.0000,  0.0000,  0.0000)
  12 Li     0.000000    3.234074   11.617037    ( 0.0000,  0.0000,  0.0000)
  13 Li     3.234074    3.234074   11.617037    ( 0.0000,  0.0000,  0.0000)
  14 Li     6.468148    3.234074   11.617037    ( 0.0000,  0.0000,  0.0000)
  15 Li     0.000000    6.468148   11.617037    ( 0.0000,  0.0000,  0.0000)
  16 Li     3.234074    6.468148   11.617037    ( 0.0000,  0.0000,  0.0000)
  17 Li     6.468148    6.468148   11.617037    ( 0.0000,  0.0000,  0.0000)
  18 Li     1.621735    1.585638   13.482041    ( 0.0000,  0.0000,  0.0000)
  19 Li     4.775333    1.563153   13.374121    ( 0.0000,  0.0000,  0.0000)
  20 Li     8.115822    1.590155   13.419568    ( 0.0000,  0.0000,  0.0000)
  21 Li     1.627379    4.883051   13.468898    ( 0.0000,  0.0000,  0.0000)
  22 Li     4.751107    4.941846   13.393988    ( 0.0000,  0.0000,  0.0000)
  23 Li     8.125628    4.910807   13.421976    ( 0.0000,  0.0000,  0.0000)
  24 Li     1.627880    8.086956   13.500831    ( 0.0000,  0.0000,  0.0000)
  25 Li     4.814470    8.087771   13.473501    ( 0.0000,  0.0000,  0.0000)
  26 Li     8.111201    8.088930   13.475867    ( 0.0000,  0.0000,  0.0000)
  27 Li     0.005881   -0.001734   15.478398    ( 0.0000,  0.0000,  0.0000)
  28 Li     3.229169   -0.003893   15.461573    ( 0.0000,  0.0000,  0.0000)
  29 Li     6.452722   -0.009816   15.325545    ( 0.0000,  0.0000,  0.0000)
  30 Li     0.025381    3.255078   15.310142    ( 0.0000,  0.0000,  0.0000)
  31 Li     3.191937    3.243291   15.405888    ( 0.0000,  0.0000,  0.0000)
  32 Li     6.354762    3.313360   15.024437    ( 0.0000,  0.0000,  0.0000)
  33 Li     0.004367    6.474650   15.425300    ( 0.0000,  0.0000,  0.0000)
  34 Li     3.254630    6.454703   15.452563    ( 0.0000,  0.0000,  0.0000)
  35 Li     6.449930    6.495790   15.381844    ( 0.0000,  0.0000,  0.0000)
  36 O      8.062467    1.544257   18.599508    ( 0.0000,  0.0000,  0.0000)
  37 O      5.206220    1.670953   18.162909    ( 0.0000,  0.0000,  0.0000)
  38 C      7.400871    2.762008   18.208328    ( 0.0000,  0.0000,  0.0000)
  39 C      5.945578    2.794217   18.659845    ( 0.0000,  0.0000,  0.0000)
  40 H      7.939892    3.650052   18.560109    ( 0.0000,  0.0000,  0.0000)
  41 H      7.454911    2.769855   17.115996    ( 0.0000,  0.0000,  0.0000)
  42 H      5.457776    3.689969   18.260995    ( 0.0000,  0.0000,  0.0000)
  43 H      5.888095    2.843654   19.757427    ( 0.0000,  0.0000,  0.0000)
  44 H      8.393360    1.646985   19.498702    ( 0.0000,  0.0000,  0.0000)
  45 H      5.689745    0.877474   18.434932    ( 0.0000,  0.0000,  0.0000)

Unit cell:
           periodic     x           y           z      points  spacing
  1. axis:    yes    9.702222    0.000000    0.000000    60     0.1617
  2. axis:    yes    0.000000    9.702222    0.000000    60     0.1617
  3. axis:    no     0.000000    0.000000   24.851111   156     0.1593

  Lengths:   9.702222   9.702222  24.851111
  Angles:   90.000000  90.000000  90.000000

Effective grid spacing dv^(1/3) = 0.1609

     iter     time        total  log10-change:
                         energy  eigst   dens
iter:   1 19:43:55  -290.671498  -2.79
iter:   2 19:47:19  -290.671083  -3.54  -2.66
