
  ___ ___ ___ _ _ _  
 |   |   |_  | | | | 
 | | | | | . | | | | 
 |__ |  _|___|_____|  22.8.0
 |___|_|             

User:   vazumah@d018
Date:   Wed Mar  8 12:31:22 2023
Arch:   x86_64
Pid:    45761
CWD:    /home/vazumah/Research_Projects/LiMEAS/LiNRR_proton_donors/on_pure_surface/Li_BCC100/adsorbates/ethanediol_x/bridge/8.085_1.617
Python: 3.10.6
gpaw:   /home/vazumah/anaconda3/envs/NAME/lib/python3.10/site-packages/gpaw
_gpaw:  /home/vazumah/anaconda3/envs/NAME/lib/python3.10/site-packages/
        _gpaw.cpython-310-x86_64-linux-gnu.so
ase:    /home/vazumah/anaconda3/envs/NAME/lib/python3.10/site-packages/ase (version 3.22.1)
numpy:  /home/vazumah/anaconda3/envs/NAME/lib/python3.10/site-packages/numpy (version 1.23.3)
scipy:  /home/vazumah/anaconda3/envs/NAME/lib/python3.10/site-packages/scipy (version 1.9.1)
libxc:  5.2.3
units:  Angstrom and eV
cores: 32
OpenMP: True
OMP_NUM_THREADS: 1

Input parameters:
  h: 0.16
  kpts: {size: [4, 4, 1]}
  occupations: {name: fermi-dirac,
                width: 0.05}
  poissonsolver: {dipolelayer: xy}
  xc: BEEF-vdW

System changes: positions, numbers, cell, pbc, initial_charges, initial_magmoms 

Initialize ...

species:
  Li:
    name: Lithium
    id: 830b4218f175192f93f959cfc0aad614
    Z: 3.0
    valence: 1
    core: 2
    charge: 0.0
    file: /home/vazumah/anaconda3/envs/NAME/share/gpaw/Li.PBE.gz
    compensation charges: {type: gauss,
                           rc: 0.33,
                           lmax: 2}
    cutoffs: {filter: 1.91,
              core: 2.55}
    valence states:
      #              energy  rcut
      - 2s(1.00)    -2.874   1.058
      - 2p(0.00)    -1.090   1.058
      -  s          24.337   1.058
  
    # Using partial waves for Li as LCAO basis

  O:
    name: Oxygen
    id: 32ecd46bf208036f09c70b0ec9a88b78
    Z: 8.0
    valence: 6
    core: 2
    charge: 0.0
    file: /home/vazumah/anaconda3/envs/NAME/share/gpaw/O.PBE.gz
    compensation charges: {type: gauss,
                           rc: 0.21,
                           lmax: 2}
    cutoffs: {filter: 1.17,
              core: 0.83}
    valence states:
      #              energy  rcut
      - 2s(2.00)   -23.961   0.688
      - 2p(4.00)    -9.029   0.598
      -  s           3.251   0.688
      -  p          18.182   0.598
      -  d           0.000   0.619
  
    # Using partial waves for O as LCAO basis

  C:
    name: Carbon
    id: 4aa54d4b901d75f77cc0ea3eec22967b
    Z: 6.0
    valence: 4
    core: 2
    charge: 0.0
    file: /home/vazumah/anaconda3/envs/NAME/share/gpaw/C.PBE.gz
    compensation charges: {type: gauss,
                           rc: 0.20,
                           lmax: 2}
    cutoffs: {filter: 1.14,
              core: 1.14}
    valence states:
      #              energy  rcut
      - 2s(2.00)   -13.751   0.635
      - 2p(2.00)    -5.284   0.635
      -  s          13.461   0.635
      -  p          21.927   0.635
      -  d           0.000   0.635
  
    # Using partial waves for C as LCAO basis

  H:
    name: Hydrogen
    id: d65de229564ff8ea4db303e23b6d1ecf
    Z: 1.0
    valence: 1
    core: 0
    charge: 0.0
    file: /home/vazumah/anaconda3/envs/NAME/share/gpaw/H.PBE.gz
    compensation charges: {type: gauss,
                           rc: 0.15,
                           lmax: 2}
    cutoffs: {filter: 0.85,
              core: 0.53}
    valence states:
      #              energy  rcut
      - 1s(1.00)    -6.494   0.476
      -  s          20.717   0.476
      -  p           0.000   0.476
  
    # Using partial waves for H as LCAO basis

Reference energy: -13512.263335  # eV

Spin-paired calculation

Convergence criteria:
 Maximum [total energy] change in last 3 cyles: 0.0005 eV / electron
 Maximum integral of absolute [dens]ity change: 0.0001 electrons / valence electron
 Maximum integral of absolute [eigenst]ate change: 4e-08 eV^2 / valence electron
 Maximum number of scf [iter]ations: 333
 (Square brackets indicate name in SCF output, whereas a 'c' in
 the SCF output indicates the quantity has converged.)

Symmetries present (total): 1

  ( 1  0  0)
  ( 0  1  0)
  ( 0  0  1)

16 k-points: 4 x 4 x 1 Monkhorst-Pack grid
8 k-points in the irreducible part of the Brillouin zone
       k-points in crystal coordinates                weights
   0:     0.12500000   -0.37500000    0.00000000          2/16
   1:     0.12500000   -0.12500000    0.00000000          2/16
   2:     0.12500000    0.12500000    0.00000000          2/16
   3:     0.12500000    0.37500000    0.00000000          2/16
   4:     0.37500000   -0.37500000    0.00000000          2/16
   5:     0.37500000   -0.12500000    0.00000000          2/16
   6:     0.37500000    0.12500000    0.00000000          2/16
   7:     0.37500000    0.37500000    0.00000000          2/16

Wave functions: Uniform real-space grid
  Kinetic energy operator: 6*3+1=19 point O(h^6) finite-difference Laplacian
  ScaLapack parameters: grid=1x1, blocksize=None
  Wavefunction extrapolation:
    Improved wavefunction reuse through dual PAW basis 

Occupation numbers: Fermi-Dirac:
  width: 0.0500  # eV
 

Eigensolver
   Davidson(niter=2) 

Densities:
  Coarse grid: 60*60*156 grid
  Fine grid: 120*120*312 grid
  Total Charge: 0.000000 

Density mixing:
  Method: separate
  Backend: pulay
  Linear mixing parameter: 0.05
  old densities: 5
  Damping of long wavelength oscillations: 50 

Hamiltonian:
  XC and Coulomb potentials evaluated on a 120*120*312 grid
  Using the BEEF-vdW Exchange-Correlation functional
  Interpolation: tri-quintic (5. degree polynomial)
  Poisson solver: FastPoissonSolver using
    Stencil: 6*3+1=19 point O(h^6) finite-difference Laplacian
    FFT axes: [0, 1]
    FST axes: [2]

Dipole correction along z-axis 

XC parameters: BEEF-vdW with 2 nearest neighbor stencil

Memory estimate:
  Process memory now: 212.78 MiB
  Calculator: 298.81 MiB
    Density: 88.21 MiB
      Arrays: 27.47 MiB
      Localized functions: 50.30 MiB
      Mixer: 10.44 MiB
    Hamiltonian: 21.93 MiB
      Arrays: 17.96 MiB
      XC: 0.00 MiB
      Poisson: 0.00 MiB
      vbar: 3.97 MiB
    Wavefunctions: 188.67 MiB
      Arrays psit_nG: 87.67 MiB
      Eigensolver: 98.38 MiB
      Projections: 0.04 MiB
      Projectors: 2.58 MiB

Total number of cores used: 32
Parallelization over k-points: 8
Domain decomposition: 1 x 1 x 4

Number of atoms: 46
Number of atomic orbitals: 166
Number of bands in calculation: 42
Number of valence electrons: 62
Bands to converge: occupied

... initialized

Initializing position-dependent things.

Density initialized from atomic densities
Creating initial wave functions:
  42 bands from LCAO basis set

       .-----------------------.  
      /|                       |  
     / |                       |  
    /  |                       |  
   /   |                       |  
  /    |                       |  
 *     |                       |  
 |     |                       |  
 |     |                       |  
 |     |                       |  
 |     |                       |  
 |     |          H            |  
 |     |         C    HH       |  
 |     |       O     CO        |  
 |   Li|     Li H    Hi        |  
 |     |  Li      Li      Li   |  
 | Li  |   Li      Li          |  
 |     |Li      Li      Li     |  
 Li    | Li      Li            |  
 |   LLi     LLi     LLi       |  
 |     |  Li      Li      Li   |  
 | Li  |   Li      Li          |  
 |     |Li      Li      Li     |  
 Li    | Li      Li            |  
 |    Li      Li      Li       |  
 |     |                       |  
 |     |                       |  
 |     |                       |  
 |     |                       |  
 |     |                       |  
 |     |                       |  
 |     .-----------------------.  
 |    /                       /   
 |   /                       /    
 |  /                       /     
 | /                       /      
 |/                       /       
 *-----------------------*        

Positions:
   0 Li     1.617037    1.617037   10.000000    ( 0.0000,  0.0000,  0.0000)
   1 Li     4.851111    1.617037   10.000000    ( 0.0000,  0.0000,  0.0000)
   2 Li     8.085185    1.617037   10.000000    ( 0.0000,  0.0000,  0.0000)
   3 Li     1.617037    4.851111   10.000000    ( 0.0000,  0.0000,  0.0000)
   4 Li     4.851111    4.851111   10.000000    ( 0.0000,  0.0000,  0.0000)
   5 Li     8.085185    4.851111   10.000000    ( 0.0000,  0.0000,  0.0000)
   6 Li     1.617037    8.085185   10.000000    ( 0.0000,  0.0000,  0.0000)
   7 Li     4.851111    8.085185   10.000000    ( 0.0000,  0.0000,  0.0000)
   8 Li     8.085185    8.085185   10.000000    ( 0.0000,  0.0000,  0.0000)
   9 Li     0.000000    0.000000   11.617037    ( 0.0000,  0.0000,  0.0000)
  10 Li     3.234074    0.000000   11.617037    ( 0.0000,  0.0000,  0.0000)
  11 Li     6.468148    0.000000   11.617037    ( 0.0000,  0.0000,  0.0000)
  12 Li     0.000000    3.234074   11.617037    ( 0.0000,  0.0000,  0.0000)
  13 Li     3.234074    3.234074   11.617037    ( 0.0000,  0.0000,  0.0000)
  14 Li     6.468148    3.234074   11.617037    ( 0.0000,  0.0000,  0.0000)
  15 Li     0.000000    6.468148   11.617037    ( 0.0000,  0.0000,  0.0000)
  16 Li     3.234074    6.468148   11.617037    ( 0.0000,  0.0000,  0.0000)
  17 Li     6.468148    6.468148   11.617037    ( 0.0000,  0.0000,  0.0000)
  18 Li     1.617038    1.617038   13.469728    ( 0.0000,  0.0000,  0.0000)
  19 Li     4.851111    1.617038   13.469729    ( 0.0000,  0.0000,  0.0000)
  20 Li     8.085184    1.617038   13.469728    ( 0.0000,  0.0000,  0.0000)
  21 Li     1.617038    4.851111   13.469729    ( 0.0000,  0.0000,  0.0000)
  22 Li     4.851111    4.851111   13.469730    ( 0.0000,  0.0000,  0.0000)
  23 Li     8.085184    4.851111   13.469729    ( 0.0000,  0.0000,  0.0000)
  24 Li     1.617038    8.085184   13.469728    ( 0.0000,  0.0000,  0.0000)
  25 Li     4.851111    8.085184   13.469729    ( 0.0000,  0.0000,  0.0000)
  26 Li     8.085184    8.085184   13.469728    ( 0.0000,  0.0000,  0.0000)
  27 Li    -0.000000   -0.000000   15.445939    ( 0.0000,  0.0000,  0.0000)
  28 Li     3.234074    0.000000   15.445939    ( 0.0000,  0.0000,  0.0000)
  29 Li     6.468148    0.000000   15.445939    ( 0.0000,  0.0000,  0.0000)
  30 Li     0.000000    3.234074   15.445939    ( 0.0000,  0.0000,  0.0000)
  31 Li     3.234076    3.234076   15.445938    ( 0.0000,  0.0000,  0.0000)
  32 Li     6.468146    3.234076   15.445938    ( 0.0000,  0.0000,  0.0000)
  33 Li     0.000000    6.468148   15.445939    ( 0.0000,  0.0000,  0.0000)
  34 Li     3.234076    6.468146   15.445938    ( 0.0000,  0.0000,  0.0000)
  35 Li     6.468146    6.468146   15.445938    ( 0.0000,  0.0000,  0.0000)
  36 O      8.085185    1.617037   18.445939    ( 0.0000,  0.0000,  0.0000)
  37 O      5.186987    1.661030   18.213250    ( 0.0000,  0.0000,  0.0000)
  38 C      7.356624    2.788249   18.033562    ( 0.0000,  0.0000,  0.0000)
  39 C      5.947439    2.801939   18.602713    ( 0.0000,  0.0000,  0.0000)
  40 H      7.884750    3.702639   18.326395    ( 0.0000,  0.0000,  0.0000)
  41 H      7.323875    2.740951   16.943996    ( 0.0000,  0.0000,  0.0000)
  42 H      5.410720    3.676205   18.226232    ( 0.0000,  0.0000,  0.0000)
  43 H      5.997169    2.877440   19.701774    ( 0.0000,  0.0000,  0.0000)
  44 H      8.254610    1.691552   19.393261    ( 0.0000,  0.0000,  0.0000)
  45 H      5.766453    0.893910   18.309689    ( 0.0000,  0.0000,  0.0000)

Unit cell:
           periodic     x           y           z      points  spacing
  1. axis:    yes    9.702222    0.000000    0.000000    60     0.1617
  2. axis:    yes    0.000000    9.702222    0.000000    60     0.1617
  3. axis:    no     0.000000    0.000000   24.851111   156     0.1593

  Lengths:   9.702222   9.702222  24.851111
  Angles:   90.000000  90.000000  90.000000

Effective grid spacing dv^(1/3) = 0.1609

     iter     time        total  log10-change:
                         energy  eigst   dens
iter:   1 12:32:17  -487.041797
iter:   2 12:32:48  -128.019936  +2.45  -0.06
iter:   3 12:33:21   -82.054995  +3.24  -0.19
iter:   4 12:33:53  -144.895525  +2.90  -0.21
Writing to output.gpw (mode='')

iter:   5 12:34:27  -227.217613  +2.84  -0.33
iter:   6 12:34:59  -271.789644  +2.80  -0.43
iter:   7 12:35:32  -322.771741  +2.51  -0.59
iter:   8 12:36:03  -336.458430  +2.28  -0.49
iter:   9 12:36:34  -317.624090  +2.02  -0.48
Writing to output.gpw (mode='')

iter:  10 12:37:06  -321.295899  +1.67  -0.52
iter:  11 12:37:37  -377.537490  +2.09  -0.48
iter:  12 12:38:05  -335.981263  +1.28  -0.43
iter:  13 12:38:31  -302.616574  +1.50  -0.47
iter:  14 12:38:58  -298.497755  +0.81  -0.64
Writing to output.gpw (mode='')

iter:  15 12:39:25  -301.695239  +0.70  -0.65
iter:  16 12:40:21  -295.997984  +0.66  -0.65
iter:  17 12:40:51  -295.663479  +0.32  -0.80
iter:  18 12:41:23  -294.754514  -0.09  -0.81
iter:  19 12:42:00  -292.031212  +0.42  -0.82
Writing to output.gpw (mode='')

iter:  20 12:42:52  -292.383564  -0.16  -0.91
iter:  21 12:43:42  -291.239532  +0.12  -0.98
iter:  22 12:44:31  -290.719003  +0.54  -1.09
iter:  23 12:45:20  -290.582889  -0.28  -1.22
iter:  24 12:46:11  -290.544992  -0.36  -1.35
Writing to output.gpw (mode='')

iter:  25 12:46:59  -290.488707  -0.46  -1.41
iter:  26 12:47:50  -290.498016  -0.62  -1.51
iter:  27 12:48:41  -290.477795c -1.24  -1.64
iter:  28 12:49:53  -290.473682c -1.09  -1.77
iter:  29 12:50:55  -290.471086c -1.53  -1.98
Writing to output.gpw (mode='')

iter:  30 12:52:12  -290.471832c -1.53  -2.01
iter:  31 12:53:25  -290.471597c -1.41  -2.09
iter:  32 12:54:34  -290.470878c -1.97  -2.20
iter:  33 12:55:36  -290.471101c -2.06  -2.29
iter:  34 12:56:37  -290.472419c -2.36  -2.35
Writing to output.gpw (mode='')

iter:  35 12:57:38  -290.472936c -2.31  -2.64
iter:  36 12:58:53  -290.473365c -2.50  -2.76
iter:  37 12:59:53  -290.473701c -2.47  -2.77
iter:  38 13:01:07  -290.474057c -2.79  -2.92
iter:  39 13:02:14  -290.474277c -2.97  -2.95
Writing to output.gpw (mode='')

iter:  40 13:03:40  -290.474470c -2.88  -3.00
iter:  41 13:05:08  -290.474681c -2.96  -3.04
iter:  42 13:06:15  -290.474844c -2.95  -3.15
iter:  43 13:07:49  -290.474948c -3.25  -3.22
iter:  44 13:09:11  -290.475047c -3.39  -3.24
Writing to output.gpw (mode='')

iter:  45 13:10:31  -290.475095c -3.32  -3.37
iter:  46 13:11:43  -290.475156c -3.40  -3.64
iter:  47 13:13:25  -290.475213c -3.46  -3.69
iter:  48 13:14:26  -290.475258c -3.67  -3.84
iter:  49 13:16:19  -290.475292c -3.67  -3.89
Writing to output.gpw (mode='')

iter:  50 13:18:01  -290.475320c -3.84  -4.00
iter:  51 13:20:07  -290.475345c -3.84  -4.00c
iter:  52 13:21:52  -290.475366c -3.87  -3.99
iter:  53 13:25:32  -290.475384c -4.05  -3.98
iter:  54 13:27:37  -290.475401c -4.00  -4.00c
Writing to output.gpw (mode='')

iter:  55 13:29:25  -290.475419c -4.11  -4.03c
iter:  56 13:31:49  -290.475430c -4.33  -4.11c
iter:  57 13:34:34  -290.475441c -4.48  -4.22c
iter:  58 13:37:04  -290.475449c -4.55  -4.50c
iter:  59 13:39:27  -290.475455c -4.47  -4.58c
Writing to output.gpw (mode='')

iter:  60 13:44:04  -290.475460c -4.65  -4.66c
iter:  61 13:47:23  -290.475464c -4.70  -4.73c
iter:  62 13:50:30  -290.475467c -4.75  -4.74c
iter:  63 13:53:36  -290.475470c -4.86  -4.69c
iter:  64 13:57:43  -290.475473c -4.70  -4.68c
Writing to output.gpw (mode='')

iter:  65 14:01:42  -290.475475c -4.82  -4.65c
iter:  66 14:06:24  -290.475477c -5.02  -4.60c
iter:  67 14:12:18  -290.475478c -4.97  -4.60c
iter:  68 14:18:16  -290.475479c -5.28  -4.62c
iter:  69 14:23:44  -290.475480c -5.32  -4.56c
Writing to output.gpw (mode='')

iter:  70 14:32:47  -290.475481c -5.31  -4.62c
iter:  71 14:37:23  -290.475481c -5.28  -4.58c
iter:  72 14:42:42  -290.475482c -5.37  -4.58c
iter:  73 14:47:19  -290.475483c -5.33  -4.59c
iter:  74 14:51:12  -290.475484c -5.62  -4.56c
Writing to output.gpw (mode='')

iter:  75 14:54:49  -290.475483c -5.76  -4.49c
iter:  76 14:58:08  -290.475484c -5.69  -4.58c
iter:  77 15:01:13  -290.475485c -5.55  -4.47c
iter:  78 15:03:45  -290.475485c -5.51  -4.59c
iter:  79 15:06:50  -290.475485c -5.76  -4.63c
Writing to output.gpw (mode='')

iter:  80 15:09:15  -290.475485c -5.95  -4.63c
iter:  81 15:11:30  -290.475485c -5.98  -4.65c
iter:  82 15:14:32  -290.475486c -5.89  -4.67c
iter:  83 15:16:57  -290.475486c -6.07  -4.70c
iter:  84 15:20:01  -290.475486c -6.20  -4.97c
Writing to output.gpw (mode='')

iter:  85 15:22:24  -290.475486c -6.19  -5.05c
iter:  86 15:24:54  -290.475487c -6.18  -5.16c
iter:  87 15:27:42  -290.475486c -6.37  -5.23c
iter:  88 15:31:30  -290.475486c -6.39  -5.43c
iter:  89 15:34:22  -290.475487c -6.43  -5.53c
Writing to output.gpw (mode='')

iter:  90 15:37:37  -290.475487c -6.53  -5.54c
iter:  91 15:40:45  -290.475487c -6.49  -5.83c
iter:  92 15:44:16  -290.475487c -6.76  -5.92c
iter:  93 15:47:42  -290.475487c -6.75  -5.96c
iter:  94 15:51:57  -290.475487c -6.83  -6.01c
Writing to output.gpw (mode='')

iter:  95 15:54:40  -290.475487c -6.77  -6.07c
iter:  96 15:57:20  -290.475487c -6.99  -6.07c
iter:  97 16:00:11  -290.475487c -7.00  -6.02c
iter:  98 16:02:49  -290.475487c -6.97  -6.02c
iter:  99 16:05:23  -290.475487c -7.03  -6.09c
Writing to output.gpw (mode='')

iter: 100 16:08:00  -290.475487c -7.07  -6.09c
iter: 101 16:11:02  -290.475487c -7.08  -6.12c
iter: 102 16:14:00  -290.475487c -7.22  -6.12c
iter: 103 16:16:56  -290.475487c -7.24  -6.16c
iter: 104 16:20:25  -290.475487c -7.22  -6.12c
Writing to output.gpw (mode='')

iter: 105 16:23:22  -290.475487c -7.32  -6.00c
iter: 106 16:26:39  -290.475487c -7.42c -5.97c

Converged after 106 iterations.

Dipole moment: (-2.238435, -3.409436, 0.426053) |e|*Ang

Energy contributions relative to reference atoms: (reference = -13512.263335)

Kinetic:       +140.620855
Potential:     -131.578866
External:        +0.000000
XC:            -300.049930
Entropy (-ST):   -0.151086
Local:           +0.607998
--------------------------
Free energy:   -290.551030
Extrapolated:  -290.475487

Dipole-layer corrected work functions: 3.388828, 2.569809 eV

Showing only first 2 kpts
 Kpt  Band  Eigenvalues  Occupancy
  0    29     -3.23394    1.98779
  0    30     -3.15181    1.93846
  0    31     -2.80922    0.06446
  0    32     -2.72757    0.01293

  1    29     -3.00405    1.24241
  1    30     -2.96595    0.86711
  1    31     -2.94689    0.68666
  1    32     -2.93054    0.54752


Fermi level: -2.97932

No gap
Writing to output.gpw (mode='')


Forces in eV/Ang:
  0 Li   -0.00170    0.00092   -0.27204
  1 Li   -0.00594   -0.00197   -0.27086
  2 Li    0.00781   -0.00281   -0.27055
  3 Li    0.00070   -0.00447   -0.27201
  4 Li   -0.00045    0.00559   -0.26910
  5 Li    0.00008    0.00373   -0.26935
  6 Li    0.00020    0.00398   -0.27757
  7 Li    0.00213   -0.00365   -0.27467
  8 Li   -0.00297   -0.00158   -0.27226
  9 Li    0.00432   -0.00368    0.25339
 10 Li   -0.00268    0.00724    0.26043
 11 Li   -0.00134   -0.00712    0.25983
 12 Li    0.00229    0.00107    0.25593
 13 Li   -0.00680   -0.00017    0.25454
 14 Li    0.00342   -0.00054    0.27575
 15 Li   -0.00197    0.00281    0.26158
 16 Li    0.00446   -0.00706    0.26552
 17 Li   -0.00257    0.00837    0.24986
 18 Li   -0.00468    0.00083    0.04600
 19 Li    0.00676    0.00576   -0.00540
 20 Li   -0.00204   -0.00324    0.00796
 21 Li   -0.00384   -0.00381    0.04448
 22 Li    0.01039   -0.01506    0.06492
 23 Li   -0.00616   -0.00375    0.05023
 24 Li    0.00351    0.00263    0.03293
 25 Li   -0.00278    0.00943    0.04320
 26 Li   -0.00019    0.00799    0.04090
 27 Li    0.00112   -0.00199    0.00116
 28 Li   -0.00803   -0.00808   -0.00679
 29 Li    0.00307   -0.07340   -0.11387
 30 Li    0.08409    0.01630   -0.10673
 31 Li   -0.02849    0.01215   -0.02786
 32 Li   -0.25673    0.17032   -0.55333
 33 Li   -0.00665   -0.00493   -0.02626
 34 Li    0.01695   -0.00755   -0.01116
 35 Li   -0.01038    0.01854   -0.03800
 36 O    -0.09402    0.00442   -0.30749
 37 O    -0.05704   -0.00140   -0.12571
 38 C    -0.06063    0.01860    0.84870
 39 C    -0.04428    0.08675    0.15542
 40 H     0.03268    0.04725   -0.10692
 41 H     0.39465   -0.22945    0.11927
 42 H    -0.03157    0.07161    0.02853
 43 H    -0.00234    0.03193   -0.06581
 44 H     0.04574    0.02727    0.01495
 45 H     0.01730   -0.17917    0.08687

System changes: positions 

Initializing position-dependent things.

Density initialized from wave functions
       .-----------------------.  
      /|                       |  
     / |                       |  
    /  |                       |  
   /   |                       |  
  /    |                       |  
 *     |                       |  
 |     |                       |  
 |     |                       |  
 |     |                       |  
 |     |                       |  
 |     |          H            |  
 |     Li      LiC    HHi      |  
 |     |       O     CO        |  
 |     |     Li H    Hi      Li|  
 |     |  Li      Li      Li   |  
 | Li  |   Li      Li          |  
 |     |Li      Li      Li     |  
 |     |                       |  
 |   LLi     LLi     LLi       |  
 |     |  Li      Li      Li   |  
 | Li  |   Li      Li          |  
 |     |Li      Li      Li     |  
 Li    | Li      Li            |  
 |    Li      Li      Li       |  
 |     |                       |  
 |     |                       |  
 |     |                       |  
 |     |                       |  
 |     |                       |  
 |     |                       |  
 |     .-----------------------.  
 |    /                       /   
 |   /                       /    
 |  /                       /     
 | /                       /      
 |/                       /       
 *-----------------------*        

Positions:
   0 Li     1.617037    1.617037   10.000000    ( 0.0000,  0.0000,  0.0000)
   1 Li     4.851111    1.617037   10.000000    ( 0.0000,  0.0000,  0.0000)
   2 Li     8.085185    1.617037   10.000000    ( 0.0000,  0.0000,  0.0000)
   3 Li     1.617037    4.851111   10.000000    ( 0.0000,  0.0000,  0.0000)
   4 Li     4.851111    4.851111   10.000000    ( 0.0000,  0.0000,  0.0000)
   5 Li     8.085185    4.851111   10.000000    ( 0.0000,  0.0000,  0.0000)
   6 Li     1.617037    8.085185   10.000000    ( 0.0000,  0.0000,  0.0000)
   7 Li     4.851111    8.085185   10.000000    ( 0.0000,  0.0000,  0.0000)
   8 Li     8.085185    8.085185   10.000000    ( 0.0000,  0.0000,  0.0000)
   9 Li     0.000000    0.000000   11.617037    ( 0.0000,  0.0000,  0.0000)
  10 Li     3.234074    0.000000   11.617037    ( 0.0000,  0.0000,  0.0000)
  11 Li     6.468148    0.000000   11.617037    ( 0.0000,  0.0000,  0.0000)
  12 Li     0.000000    3.234074   11.617037    ( 0.0000,  0.0000,  0.0000)
  13 Li     3.234074    3.234074   11.617037    ( 0.0000,  0.0000,  0.0000)
  14 Li     6.468148    3.234074   11.617037    ( 0.0000,  0.0000,  0.0000)
  15 Li     0.000000    6.468148   11.617037    ( 0.0000,  0.0000,  0.0000)
  16 Li     3.234074    6.468148   11.617037    ( 0.0000,  0.0000,  0.0000)
  17 Li     6.468148    6.468148   11.617037    ( 0.0000,  0.0000,  0.0000)
  18 Li     1.616971    1.617050   13.470385    ( 0.0000,  0.0000,  0.0000)
  19 Li     4.851208    1.617121   13.469652    ( 0.0000,  0.0000,  0.0000)
  20 Li     8.085155    1.616992   13.469842    ( 0.0000,  0.0000,  0.0000)
  21 Li     1.616984    4.851057   13.470365    ( 0.0000,  0.0000,  0.0000)
  22 Li     4.851259    4.850896   13.470658    ( 0.0000,  0.0000,  0.0000)
  23 Li     8.085096    4.851057   13.470447    ( 0.0000,  0.0000,  0.0000)
  24 Li     1.617088    8.085222   13.470198    ( 0.0000,  0.0000,  0.0000)
  25 Li     4.851071    8.085318   13.470347    ( 0.0000,  0.0000,  0.0000)
  26 Li     8.085181    8.085298   13.470312    ( 0.0000,  0.0000,  0.0000)
  27 Li     0.000016   -0.000028   15.445956    ( 0.0000,  0.0000,  0.0000)
  28 Li     3.233959   -0.000115   15.445842    ( 0.0000,  0.0000,  0.0000)
  29 Li     6.468192   -0.001049   15.444312    ( 0.0000,  0.0000,  0.0000)
  30 Li     0.001201    3.234307   15.444414    ( 0.0000,  0.0000,  0.0000)
  31 Li     3.233670    3.234250   15.445540    ( 0.0000,  0.0000,  0.0000)
  32 Li     6.464478    3.236510   15.438033    ( 0.0000,  0.0000,  0.0000)
  33 Li    -0.000095    6.468078   15.445564    ( 0.0000,  0.0000,  0.0000)
  34 Li     3.234319    6.468038   15.445779    ( 0.0000,  0.0000,  0.0000)
  35 Li     6.467997    6.468410   15.445395    ( 0.0000,  0.0000,  0.0000)
  36 O      8.083842    1.617100   18.441547    ( 0.0000,  0.0000,  0.0000)
  37 O      5.186172    1.661010   18.211454    ( 0.0000,  0.0000,  0.0000)
  38 C      7.355758    2.788515   18.045686    ( 0.0000,  0.0000,  0.0000)
  39 C      5.946806    2.803178   18.604934    ( 0.0000,  0.0000,  0.0000)
  40 H      7.885217    3.703314   18.324868    ( 0.0000,  0.0000,  0.0000)
  41 H      7.329513    2.737673   16.945699    ( 0.0000,  0.0000,  0.0000)
  42 H      5.410270    3.677228   18.226640    ( 0.0000,  0.0000,  0.0000)
  43 H      5.997135    2.877896   19.700834    ( 0.0000,  0.0000,  0.0000)
  44 H      8.255263    1.691941   19.393474    ( 0.0000,  0.0000,  0.0000)
  45 H      5.766700    0.891351   18.310930    ( 0.0000,  0.0000,  0.0000)

Unit cell:
           periodic     x           y           z      points  spacing
  1. axis:    yes    9.702222    0.000000    0.000000    60     0.1617
  2. axis:    yes    0.000000    9.702222    0.000000    60     0.1617
  3. axis:    no     0.000000    0.000000   24.851111   156     0.1593

  Lengths:   9.702222   9.702222  24.851111
  Angles:   90.000000  90.000000  90.000000

Effective grid spacing dv^(1/3) = 0.1609

     iter     time        total  log10-change:
                         energy  eigst   dens
iter:   1 16:29:11  -290.496737  -1.92
iter:   2 16:31:05  -290.495580  -2.52  -2.36
iter:   3 16:34:06  -290.494950c -3.19  -2.46
iter:   4 16:36:12  -290.493393c -2.52  -2.62
Writing to output.gpw (mode='')

iter:   5 16:38:15  -290.493257c -3.27  -2.77
iter:   6 16:41:03  -290.493021c -3.09  -2.88
iter:   7 16:45:11  -290.493126c -3.05  -3.08
