
  ___ ___ ___ _ _ _  
 |   |   |_  | | | | 
 | | | | | . | | | | 
 |__ |  _|___|_____|  22.8.0
 |___|_|             

User:   vazumah@r358.ib.bridges2.psc.edu
Date:   Fri Mar 10 11:18:33 2023
Arch:   x86_64
Pid:    64719
CWD:    /jet/home/vazumah/Calcs/LiMEAS/proton_donors/methanol_x/bridge/0.0_1.617/N2_z
Python: 3.11.0
gpaw:   /jet/home/vazumah/.conda/envs/GPAW_mpich/lib/python3.11/site-packages/gpaw
_gpaw:  /jet/home/vazumah/.conda/envs/GPAW_mpich/lib/python3.11/site-packages/
        _gpaw.cpython-311-x86_64-linux-gnu.so
ase:    /jet/home/vazumah/.conda/envs/GPAW_mpich/lib/python3.11/site-packages/ase (version 3.22.1)
numpy:  /jet/home/vazumah/.conda/envs/GPAW_mpich/lib/python3.11/site-packages/numpy (version 1.24.2)
scipy:  /jet/home/vazumah/.conda/envs/GPAW_mpich/lib/python3.11/site-packages/scipy (version 1.10.1)
libxc:  5.2.3
units:  Angstrom and eV
cores: 128
OpenMP: True
OMP_NUM_THREADS: 1

Input parameters:
  h: 0.16
  kpts: {size: [4, 4, 1]}
  occupations: {name: fermi-dirac,
                width: 0.05}
  poissonsolver: {dipolelayer: xy}
  xc: BEEF-vdW

System changes: positions, numbers, cell, pbc, initial_charges, initial_magmoms 

Initialize ...

species:
  Li:
    name: Lithium
    id: 830b4218f175192f93f959cfc0aad614
    Z: 3.0
    valence: 1
    core: 2
    charge: 0.0
    file: /jet/home/vazumah/datasets/gpaw-setups-0.9.20000/Li.PBE.gz
    compensation charges: {type: gauss,
                           rc: 0.33,
                           lmax: 2}
    cutoffs: {filter: 1.91,
              core: 2.55}
    valence states:
      #              energy  rcut
      - 2s(1.00)    -2.874   1.058
      - 2p(0.00)    -1.090   1.058
      -  s          24.337   1.058
  
    # Using partial waves for Li as LCAO basis

  O:
    name: Oxygen
    id: 32ecd46bf208036f09c70b0ec9a88b78
    Z: 8.0
    valence: 6
    core: 2
    charge: 0.0
    file: /jet/home/vazumah/datasets/gpaw-setups-0.9.20000/O.PBE.gz
    compensation charges: {type: gauss,
                           rc: 0.21,
                           lmax: 2}
    cutoffs: {filter: 1.17,
              core: 0.83}
    valence states:
      #              energy  rcut
      - 2s(2.00)   -23.961   0.688
      - 2p(4.00)    -9.029   0.598
      -  s           3.251   0.688
      -  p          18.182   0.598
      -  d           0.000   0.619
  
    # Using partial waves for O as LCAO basis

  C:
    name: Carbon
    id: 4aa54d4b901d75f77cc0ea3eec22967b
    Z: 6.0
    valence: 4
    core: 2
    charge: 0.0
    file: /jet/home/vazumah/datasets/gpaw-setups-0.9.20000/C.PBE.gz
    compensation charges: {type: gauss,
                           rc: 0.20,
                           lmax: 2}
    cutoffs: {filter: 1.14,
              core: 1.14}
    valence states:
      #              energy  rcut
      - 2s(2.00)   -13.751   0.635
      - 2p(2.00)    -5.284   0.635
      -  s          13.461   0.635
      -  p          21.927   0.635
      -  d           0.000   0.635
  
    # Using partial waves for C as LCAO basis

  H:
    name: Hydrogen
    id: d65de229564ff8ea4db303e23b6d1ecf
    Z: 1.0
    valence: 1
    core: 0
    charge: 0.0
    file: /jet/home/vazumah/datasets/gpaw-setups-0.9.20000/H.PBE.gz
    compensation charges: {type: gauss,
                           rc: 0.15,
                           lmax: 2}
    cutoffs: {filter: 0.85,
              core: 0.53}
    valence states:
      #              energy  rcut
      - 1s(1.00)    -6.494   0.476
      -  s          20.717   0.476
      -  p           0.000   0.476
  
    # Using partial waves for H as LCAO basis

  N:
    name: Nitrogen
    id: f7500608b86eaa90eef8b1d9a670dc53
    Z: 7.0
    valence: 5
    core: 2
    charge: 0.0
    file: /jet/home/vazumah/datasets/gpaw-setups-0.9.20000/N.PBE.gz
    compensation charges: {type: gauss,
                           rc: 0.18,
                           lmax: 2}
    cutoffs: {filter: 1.11,
              core: 0.96}
    valence states:
      #              energy  rcut
      - 2s(2.00)   -18.583   0.603
      - 2p(3.00)    -7.089   0.529
      -  s           8.629   0.603
      -  p          20.123   0.529
      -  d           0.000   0.577
  
    # Using partial waves for N as LCAO basis

Reference energy: -13382.245603  # eV

Spin-paired calculation

Convergence criteria:
 Maximum [total energy] change in last 3 cyles: 0.0005 eV / electron
 Maximum integral of absolute [dens]ity change: 0.0001 electrons / valence electron
 Maximum integral of absolute [eigenst]ate change: 4e-08 eV^2 / valence electron
 Maximum number of scf [iter]ations: 333
 (Square brackets indicate name in SCF output, whereas a 'c' in
 the SCF output indicates the quantity has converged.)

Symmetries present (total): 1

  ( 1  0  0)
  ( 0  1  0)
  ( 0  0  1)

16 k-points: 4 x 4 x 1 Monkhorst-Pack grid
8 k-points in the irreducible part of the Brillouin zone
       k-points in crystal coordinates                weights
   0:     0.12500000   -0.37500000    0.00000000          2/16
   1:     0.12500000   -0.12500000    0.00000000          2/16
   2:     0.12500000    0.12500000    0.00000000          2/16
   3:     0.12500000    0.37500000    0.00000000          2/16
   4:     0.37500000   -0.37500000    0.00000000          2/16
   5:     0.37500000   -0.12500000    0.00000000          2/16
   6:     0.37500000    0.12500000    0.00000000          2/16
   7:     0.37500000    0.37500000    0.00000000          2/16

Wave functions: Uniform real-space grid
  Kinetic energy operator: 6*3+1=19 point O(h^6) finite-difference Laplacian
  ScaLapack parameters: grid=1x1, blocksize=None
  Wavefunction extrapolation:
    Improved wavefunction reuse through dual PAW basis 

Occupation numbers: Fermi-Dirac:
  width: 0.0500  # eV
 

Eigensolver
   Davidson(niter=2) 

Densities:
  Coarse grid: 60*60*168 grid
  Fine grid: 120*120*336 grid
  Total Charge: 0.000000 

Density mixing:
  Method: separate
  Backend: pulay
  Linear mixing parameter: 0.05
  old densities: 5
  Damping of long wavelength oscillations: 50 

Hamiltonian:
  XC and Coulomb potentials evaluated on a 120*120*336 grid
  Using the BEEF-vdW Exchange-Correlation functional
  Interpolation: tri-quintic (5. degree polynomial)
  Poisson solver: FastPoissonSolver using
    Stencil: 6*3+1=19 point O(h^6) finite-difference Laplacian
    FFT axes: [0, 1]
    FST axes: [2]

Dipole correction along z-axis 

XC parameters: BEEF-vdW with 2 nearest neighbor stencil

Memory estimate:
  Process memory now: 127.44 MiB
  Calculator: 77.36 MiB
    Density: 22.77 MiB
      Arrays: 7.40 MiB
      Localized functions: 12.55 MiB
      Mixer: 2.82 MiB
    Hamiltonian: 5.83 MiB
      Arrays: 4.84 MiB
      XC: 0.00 MiB
      Poisson: 0.00 MiB
      vbar: 0.99 MiB
    Wavefunctions: 48.76 MiB
      Arrays psit_nG: 22.52 MiB
      Eigensolver: 25.58 MiB
      Projections: 0.01 MiB
      Projectors: 0.64 MiB

Total number of cores used: 128
Parallelization over k-points: 8
Domain decomposition: 2 x 2 x 4

Number of atoms: 44
Number of atomic orbitals: 164
Number of bands in calculation: 40
Number of valence electrons: 60
Bands to converge: occupied

... initialized

Initializing position-dependent things.

Density initialized from atomic densities
Creating initial wave functions:
  40 bands from LCAO basis set

       .-----------------------.  
      /|                       |  
     / |                       |  
    /  |                       |  
   /   |                       |  
  /    |                       |  
 *     |                       |  
 |     |                       |  
 |     |                       |  
 |     |                       |  
 |     |                       |  
 |     |                       |  
 |    H|                       |  
 |     H                       |  
 |O   C|                 H     |  
 |N   H|                       |  
 |   Li|     Li      Li        |  
 |N    |  Li      Li      Li   |  
 | Li  |   Li      Li          |  
 |     |Li      Li      Li     |  
 Li    | Li      Li            |  
 |   LLi     LLi     LLi       |  
 |     |  Li      Li      Li   |  
 | Li  |   Li      Li          |  
 |     |Li      Li      Li     |  
 Li    | Li      Li            |  
 |    Li      Li      Li       |  
 |     |                       |  
 |     |                       |  
 |     |                       |  
 |     |                       |  
 |     |                       |  
 |     |                       |  
 |     .-----------------------.  
 |    /                       /   
 |   /                       /    
 |  /                       /     
 | /                       /      
 |/                       /       
 *-----------------------*        

Positions:
   0 Li     1.617037    1.617037   10.000000    ( 0.0000,  0.0000,  0.0000)
   1 Li     4.851111    1.617037   10.000000    ( 0.0000,  0.0000,  0.0000)
   2 Li     8.085185    1.617037   10.000000    ( 0.0000,  0.0000,  0.0000)
   3 Li     1.617037    4.851111   10.000000    ( 0.0000,  0.0000,  0.0000)
   4 Li     4.851111    4.851111   10.000000    ( 0.0000,  0.0000,  0.0000)
   5 Li     8.085185    4.851111   10.000000    ( 0.0000,  0.0000,  0.0000)
   6 Li     1.617037    8.085185   10.000000    ( 0.0000,  0.0000,  0.0000)
   7 Li     4.851111    8.085185   10.000000    ( 0.0000,  0.0000,  0.0000)
   8 Li     8.085185    8.085185   10.000000    ( 0.0000,  0.0000,  0.0000)
   9 Li     0.000000    0.000000   11.617037    ( 0.0000,  0.0000,  0.0000)
  10 Li     3.234074    0.000000   11.617037    ( 0.0000,  0.0000,  0.0000)
  11 Li     6.468148    0.000000   11.617037    ( 0.0000,  0.0000,  0.0000)
  12 Li     0.000000    3.234074   11.617037    ( 0.0000,  0.0000,  0.0000)
  13 Li     3.234074    3.234074   11.617037    ( 0.0000,  0.0000,  0.0000)
  14 Li     6.468148    3.234074   11.617037    ( 0.0000,  0.0000,  0.0000)
  15 Li     0.000000    6.468148   11.617037    ( 0.0000,  0.0000,  0.0000)
  16 Li     3.234074    6.468148   11.617037    ( 0.0000,  0.0000,  0.0000)
  17 Li     6.468148    6.468148   11.617037    ( 0.0000,  0.0000,  0.0000)
  18 Li     1.617038    1.617038   13.469728    ( 0.0000,  0.0000,  0.0000)
  19 Li     4.851111    1.617038   13.469729    ( 0.0000,  0.0000,  0.0000)
  20 Li     8.085184    1.617038   13.469728    ( 0.0000,  0.0000,  0.0000)
  21 Li     1.617038    4.851111   13.469729    ( 0.0000,  0.0000,  0.0000)
  22 Li     4.851111    4.851111   13.469730    ( 0.0000,  0.0000,  0.0000)
  23 Li     8.085184    4.851111   13.469729    ( 0.0000,  0.0000,  0.0000)
  24 Li     1.617038    8.085184   13.469728    ( 0.0000,  0.0000,  0.0000)
  25 Li     4.851111    8.085184   13.469729    ( 0.0000,  0.0000,  0.0000)
  26 Li     8.085184    8.085184   13.469728    ( 0.0000,  0.0000,  0.0000)
  27 Li    -0.000000   -0.000000   15.445939    ( 0.0000,  0.0000,  0.0000)
  28 Li     3.234074    0.000000   15.445939    ( 0.0000,  0.0000,  0.0000)
  29 Li     6.468148    0.000000   15.445939    ( 0.0000,  0.0000,  0.0000)
  30 Li     0.000000    3.234074   15.445939    ( 0.0000,  0.0000,  0.0000)
  31 Li     3.234076    3.234076   15.445938    ( 0.0000,  0.0000,  0.0000)
  32 Li     6.468146    3.234076   15.445938    ( 0.0000,  0.0000,  0.0000)
  33 Li     0.000000    6.468148   15.445939    ( 0.0000,  0.0000,  0.0000)
  34 Li     3.234076    6.468146   15.445938    ( 0.0000,  0.0000,  0.0000)
  35 Li     6.468146    6.468146   15.445938    ( 0.0000,  0.0000,  0.0000)
  36 O      0.000000    1.617037   19.645939    ( 0.0000,  0.0000,  0.0000)
  37 C      1.429962    1.601963   19.651439    ( 0.0000,  0.0000,  0.0000)
  38 H      1.834234    0.852010   18.964289    ( 0.0000,  0.0000,  0.0000)
  39 H      1.833475    1.423554   20.653228    ( 0.0000,  0.0000,  0.0000)
  40 H      1.749406    2.587678   19.318510    ( 0.0000,  0.0000,  0.0000)
  41 H     -0.311655    0.753908   19.936944    ( 0.0000,  0.0000,  0.0000)
  42 N      0.000000    1.617000   17.195939    ( 0.0000,  0.0000,  0.0000)
  43 N      0.000000    1.617000   18.292561    ( 0.0000,  0.0000,  0.0000)

Unit cell:
           periodic     x           y           z      points  spacing
  1. axis:    yes    9.702222    0.000000    0.000000    60     0.1617
  2. axis:    yes    0.000000    9.702222    0.000000    60     0.1617
  3. axis:    no     0.000000    0.000000   26.601111   168     0.1583

  Lengths:   9.702222   9.702222  26.601111
  Angles:   90.000000  90.000000  90.000000

Effective grid spacing dv^(1/3) = 0.1606

     iter     time        total  log10-change:
                         energy  eigst   dens
iter:   1 11:18:47  -485.707741
iter:   2 11:18:54  -128.304254  +2.41  -0.05
iter:   3 11:19:02   -82.784331  +3.33  -0.19
iter:   4 11:19:09  -199.512866  +3.07  -0.18
Writing to output.gpw (mode='')

iter:   5 11:19:16  -183.599564  +2.72  -0.19
iter:   6 11:19:23  -229.695489  +2.56  -0.58
iter:   7 11:19:30  -262.396767  +2.24  -0.65
iter:   8 11:19:43  -287.944485  +1.97  -0.73
iter:   9 11:19:50  -322.793994  +1.99  -0.56
Writing to output.gpw (mode='')

iter:  10 11:19:57  -272.911010  +1.36  -0.46
iter:  11 11:20:04  -274.196073  +1.22  -0.78
iter:  12 11:20:11  -275.121846  +0.87  -0.74
iter:  13 11:20:18  -273.440799  +0.61  -0.79
iter:  14 11:20:26  -273.417198  +0.64  -0.85
Writing to output.gpw (mode='')

iter:  15 11:20:33  -272.252682  +1.00  -0.89
iter:  16 11:20:40  -273.052066  +0.83  -1.14
iter:  17 11:20:47  -272.509446  +0.16  -1.10
iter:  18 11:20:54  -272.255525  +0.21  -1.17
iter:  19 11:21:01  -272.549155  +0.26  -1.26
Writing to output.gpw (mode='')

iter:  20 11:21:08  -272.543468  -0.00  -1.24
iter:  21 11:21:18  -272.600115  -0.25  -1.34
iter:  22 11:21:26  -272.445524  -0.50  -1.35
iter:  23 11:21:33  -272.480862  -0.49  -1.53
iter:  24 11:21:40  -272.498008  -0.55  -1.68
Writing to output.gpw (mode='')

iter:  25 11:21:47  -272.488042c -0.49  -1.70
iter:  26 11:21:54  -272.606664  -0.45  -1.73
iter:  27 11:22:02  -272.538805  -0.70  -1.63
iter:  28 11:22:09  -272.584785  -0.78  -1.74
iter:  29 11:22:16  -272.590696  -1.01  -1.67
Writing to output.gpw (mode='')

iter:  30 11:22:23  -272.611146c -0.86  -1.69
iter:  31 11:22:30  -272.574568  -1.21  -1.65
iter:  32 11:22:37  -272.580177  -1.10  -1.84
iter:  33 11:22:44  -272.591045c -1.15  -1.90
iter:  34 11:22:51  -272.591866c -1.03  -1.87
Writing to output.gpw (mode='')

iter:  35 11:22:58  -272.596297c -1.55  -1.91
iter:  36 11:23:06  -272.598363c -1.63  -1.90
iter:  37 11:23:13  -272.616813c -1.33  -1.90
iter:  38 11:23:20  -272.619765c -1.68  -1.78
iter:  39 11:23:27  -272.607477c -1.47  -1.76
Writing to output.gpw (mode='')

iter:  40 11:23:34  -272.610837c -1.80  -1.95
iter:  41 11:23:41  -272.613231c -2.01  -1.92
iter:  42 11:23:48  -272.620745c -1.37  -1.92
iter:  43 11:23:56  -272.623009c -1.79  -1.88
iter:  44 11:24:03  -272.630952c -1.57  -1.87
Writing to output.gpw (mode='')

iter:  45 11:24:10  -272.647463c -1.41  -1.85
iter:  46 11:24:17  -272.626645c -1.82  -1.72
iter:  47 11:24:24  -272.640204c -1.66  -1.79
iter:  48 11:24:31  -272.637436c -1.63  -1.67
iter:  49 11:24:44  -272.622304c -1.61  -1.75
Writing to output.gpw (mode='')

iter:  50 11:24:52  -272.607953c -1.39  -1.81
iter:  51 11:24:59  -272.610114c -1.68  -1.93
iter:  52 11:25:06  -272.608571c -2.08  -2.13
iter:  53 11:25:13  -272.611262c -2.26  -2.24
iter:  54 11:25:20  -272.609053c -2.20  -2.17
Writing to output.gpw (mode='')

iter:  55 11:25:27  -272.608593c -2.29  -2.41
iter:  56 11:25:34  -272.608380c -2.69  -2.49
iter:  57 11:25:42  -272.608211c -2.54  -2.54
iter:  58 11:25:49  -272.608028c -2.53  -2.58
iter:  59 11:25:56  -272.608056c -2.91  -2.84
Writing to output.gpw (mode='')

iter:  60 11:26:03  -272.608149c -3.12  -2.91
iter:  61 11:26:10  -272.608593c -2.78  -2.89
iter:  62 11:26:17  -272.608663c -3.20  -2.73
iter:  63 11:26:24  -272.608534c -3.45  -2.71
iter:  64 11:26:32  -272.608630c -3.64  -2.76
Writing to output.gpw (mode='')

iter:  65 11:26:39  -272.608495c -3.48  -2.74
iter:  66 11:26:46  -272.608632c -3.48  -2.78
iter:  67 11:26:53  -272.608514c -3.76  -2.75
iter:  68 11:27:00  -272.608380c -3.53  -2.80
iter:  69 11:27:07  -272.608359c -3.52  -2.88
Writing to output.gpw (mode='')

iter:  70 11:27:14  -272.608326c -3.54  -2.96
iter:  71 11:27:21  -272.608379c -3.70  -3.18
iter:  72 11:27:28  -272.608384c -3.86  -3.25
iter:  73 11:27:36  -272.608416c -3.75  -3.27
iter:  74 11:27:43  -272.608358c -3.81  -3.23
Writing to output.gpw (mode='')

iter:  75 11:27:50  -272.608353c -4.07  -3.33
iter:  76 11:27:57  -272.608358c -4.24  -3.46
iter:  77 11:28:04  -272.608381c -4.19  -3.46
iter:  78 11:28:11  -272.608361c -4.26  -3.49
iter:  79 11:28:18  -272.608345c -3.93  -3.56
Writing to output.gpw (mode='')

iter:  80 11:28:26  -272.608354c -4.33  -3.57
iter:  81 11:28:34  -272.608357c -4.63  -3.66
iter:  82 11:28:46  -272.608361c -4.36  -3.77
iter:  83 11:28:56  -272.608363c -4.58  -3.96
iter:  84 11:29:03  -272.608369c -4.45  -3.94
Writing to output.gpw (mode='')

iter:  85 11:29:10  -272.608367c -4.98  -4.07c
iter:  86 11:29:17  -272.608360c -4.75  -4.09c
iter:  87 11:29:24  -272.608362c -5.22  -4.27c
iter:  88 11:29:31  -272.608367c -5.02  -4.33c
iter:  89 11:29:45  -272.608365c -5.26  -4.41c
Writing to output.gpw (mode='')

iter:  90 11:29:52  -272.608367c -5.11  -4.55c
iter:  91 11:29:59  -272.608367c -5.12  -4.68c
iter:  92 11:30:06  -272.608367c -5.41  -4.72c
iter:  93 11:30:13  -272.608367c -5.43  -4.73c
iter:  94 11:30:20  -272.608367c -5.25  -4.75c
Writing to output.gpw (mode='')

iter:  95 11:30:27  -272.608368c -5.13  -4.74c
iter:  96 11:30:34  -272.608368c -5.52  -4.70c
iter:  97 11:30:41  -272.608368c -5.61  -4.69c
iter:  98 11:30:48  -272.608368c -5.52  -4.67c
iter:  99 11:30:55  -272.608368c -5.59  -4.64c
Writing to output.gpw (mode='')

iter: 100 11:31:02  -272.608368c -5.35  -4.68c
iter: 101 11:31:09  -272.608369c -5.69  -4.63c
iter: 102 11:31:16  -272.608368c -5.73  -4.60c
iter: 103 11:31:23  -272.608367c -5.92  -4.64c
iter: 104 11:31:30  -272.608368c -6.01  -4.64c
Writing to output.gpw (mode='')

iter: 105 11:31:37  -272.608366c -6.01  -4.55c
iter: 106 11:31:44  -272.608367c -5.94  -4.73c
iter: 107 11:31:51  -272.608365c -5.67  -4.60c
iter: 108 11:31:58  -272.608364c -5.89  -4.72c
iter: 109 11:32:05  -272.608364c -5.96  -4.80c
Writing to output.gpw (mode='')

iter: 110 11:32:12  -272.608363c -6.01  -4.75c
iter: 111 11:32:19  -272.608363c -6.27  -4.78c
iter: 112 11:32:27  -272.608363c -6.08  -4.81c
iter: 113 11:32:34  -272.608362c -5.91  -4.84c
iter: 114 11:32:41  -272.608363c -6.08  -4.68c
Writing to output.gpw (mode='')

iter: 115 11:32:48  -272.608363c -6.35  -4.90c
iter: 116 11:32:55  -272.608363c -6.33  -5.08c
iter: 117 11:33:02  -272.608364c -6.34  -5.12c
iter: 118 11:33:09  -272.608364c -6.41  -5.38c
iter: 119 11:33:16  -272.608364c -6.45  -5.41c
Writing to output.gpw (mode='')

iter: 120 11:33:23  -272.608364c -6.42  -5.45c
iter: 121 11:33:30  -272.608364c -6.48  -5.46c
iter: 122 11:33:37  -272.608364c -6.69  -5.45c
iter: 123 11:33:44  -272.608363c -6.56  -5.52c
iter: 124 11:33:51  -272.608363c -6.35  -5.60c
Writing to output.gpw (mode='')

iter: 125 11:33:58  -272.608363c -6.57  -5.62c
iter: 126 11:34:05  -272.608363c -6.67  -5.63c
iter: 127 11:34:12  -272.608363c -6.89  -5.69c
iter: 128 11:34:19  -272.608363c -6.76  -5.73c
iter: 129 11:34:26  -272.608363c -6.69  -5.74c
Writing to output.gpw (mode='')

iter: 130 11:34:39  -272.608363c -6.81  -5.76c
iter: 131 11:34:48  -272.608363c -7.05  -5.78c
iter: 132 11:34:55  -272.608363c -7.01  -5.91c
iter: 133 11:35:02  -272.608363c -6.92  -5.99c
iter: 134 11:35:09  -272.608363c -7.03  -6.09c
Writing to output.gpw (mode='')

iter: 135 11:35:16  -272.608363c -7.10  -6.16c
iter: 136 11:35:23  -272.608363c -7.05  -6.23c
iter: 137 11:35:31  -272.608362c -7.09  -6.20c
iter: 138 11:35:38  -272.608362c -6.87  -6.18c
iter: 139 11:35:45  -272.608362c -7.29  -6.20c
Writing to output.gpw (mode='')

iter: 140 11:35:52  -272.608362c -7.37  -6.16c
iter: 141 11:35:59  -272.608362c -7.39  -6.14c
iter: 142 11:36:06  -272.608362c -7.38  -6.09c
iter: 143 11:36:13  -272.608362c -7.17  -6.09c
iter: 144 11:36:20  -272.608362c -7.41c -6.01c

Converged after 144 iterations.

Dipole moment: (-13.492315, -5.137216, 0.233509) |e|*Ang

Energy contributions relative to reference atoms: (reference = -13382.245603)

Kinetic:       +160.868397
Potential:     -142.653236
External:        +0.000000
XC:            -291.390745
Entropy (-ST):   -0.186094
Local:           +0.660268
--------------------------
Free energy:   -272.701409
Extrapolated:  -272.608362

Dipole-layer corrected work functions: 3.378922, 2.930038 eV

Showing only first 2 kpts
 Kpt  Band  Eigenvalues  Occupancy
  0    28     -3.30839    1.91196
  0    29     -3.24011    1.69436
  0    30     -3.03798    0.17734
  0    31     -2.95455    0.03602

  1    28     -3.24528    1.72016
  1    29     -3.15180    0.97319
  1    30     -3.13420    0.79996
  1    31     -3.05142    0.22584


Fermi level: -3.15448

No gap
Writing to output.gpw (mode='')


Forces in eV/Ang:
  0 Li    0.01582    0.00092   -0.27942
  1 Li   -0.00873   -0.00084   -0.26497
  2 Li   -0.00835    0.00400   -0.27494
  3 Li    0.00475    0.00169   -0.27263
  4 Li    0.00079    0.00310   -0.28544
  5 Li   -0.00646    0.00808   -0.26840
  6 Li    0.00945   -0.00259   -0.27309
  7 Li   -0.00230   -0.00273   -0.28113
  8 Li   -0.00771   -0.01116   -0.27100
  9 Li   -0.00178    0.01133    0.32160
 10 Li    0.01411   -0.00415    0.24935
 11 Li   -0.01222   -0.00657    0.26946
 12 Li    0.00096   -0.00714    0.30622
 13 Li    0.01188    0.00113    0.25582
 14 Li   -0.01256    0.01166    0.26183
 15 Li   -0.00046   -0.00513    0.25521
 16 Li   -0.01817    0.00250    0.27073
 17 Li    0.02056   -0.00530    0.25597
 18 Li    0.05350   -0.00026   -0.05167
 19 Li    0.00194   -0.00147    0.04113
 20 Li   -0.04979    0.00316   -0.07136
 21 Li   -0.01401   -0.01272    0.04247
 22 Li    0.00095    0.00109    0.03077
 23 Li    0.01445   -0.00913    0.04851
 24 Li   -0.01704    0.01443    0.04162
 25 Li    0.00643    0.00092    0.03592
 26 Li    0.01268    0.00177    0.02759
 27 Li   -0.01463    0.18164    0.15160
 28 Li    0.01821   -0.00502   -0.02646
 29 Li   -0.00245   -0.00349    0.00081
 30 Li    0.01644   -0.14756    0.10131
 31 Li    0.00183   -0.00289   -0.02017
 32 Li   -0.01857    0.01361   -0.01450
 33 Li    0.00123   -0.00275   -0.00388
 34 Li   -0.00018    0.00444   -0.00888
 35 Li   -0.00262   -0.00533   -0.01786
 36 O    -0.76719    0.13134   11.16022
 37 C     4.29757    0.44370    1.68449
 38 H    -0.21618   -0.02747    0.24269
 39 H    -0.59205   -0.03700    0.10096
 40 H    -0.08308   -0.06883    0.04462
 41 H    -1.37296   -2.91482    2.39543
 42 N    -1.43038   -1.76083   -9.89620
 43 N     0.15204    4.19268   -5.99272

System changes: positions 

Initializing position-dependent things.

Density initialized from wave functions
       .-----------------------.  
      /|                       |  
     / |                       |  
    /  |                       |  
   /   |                       |  
  /    |                       |  
 *     |                       |  
 |     |                       |  
 |     |                       |  
 |     |                       |  
 |     |                       |  
 |     |                       |  
 |    H|                       |  
 |     H                       |  
 |    C|       Li      LiHO    |  
 |N   H|                       |  
 |   Li|     Li      Li        |  
 |     |  Li      Li      Ni   |  
 | Li  |   Li      Li          |  
 |     |Li      Li      Li     |  
 |     |                 Li    |  
 |   LLi     LLi     LLi       |  
 |     |  Li      Li      Li   |  
 | Li  |   Li      Li          |  
 |     |Li      Li      Li     |  
 Li    | Li      Li            |  
 |    Li      Li      Li       |  
 |     |                       |  
 |     |                       |  
 |     |                       |  
 |     |                       |  
 |     |                       |  
 |     |                       |  
 |     .-----------------------.  
 |    /                       /   
 |   /                       /    
 |  /                       /     
 | /                       /      
 |/                       /       
 *-----------------------*        

Positions:
   0 Li     1.617037    1.617037   10.000000    ( 0.0000,  0.0000,  0.0000)
   1 Li     4.851111    1.617037   10.000000    ( 0.0000,  0.0000,  0.0000)
   2 Li     8.085185    1.617037   10.000000    ( 0.0000,  0.0000,  0.0000)
   3 Li     1.617037    4.851111   10.000000    ( 0.0000,  0.0000,  0.0000)
   4 Li     4.851111    4.851111   10.000000    ( 0.0000,  0.0000,  0.0000)
   5 Li     8.085185    4.851111   10.000000    ( 0.0000,  0.0000,  0.0000)
   6 Li     1.617037    8.085185   10.000000    ( 0.0000,  0.0000,  0.0000)
   7 Li     4.851111    8.085185   10.000000    ( 0.0000,  0.0000,  0.0000)
   8 Li     8.085185    8.085185   10.000000    ( 0.0000,  0.0000,  0.0000)
   9 Li     0.000000    0.000000   11.617037    ( 0.0000,  0.0000,  0.0000)
  10 Li     3.234074    0.000000   11.617037    ( 0.0000,  0.0000,  0.0000)
  11 Li     6.468148    0.000000   11.617037    ( 0.0000,  0.0000,  0.0000)
  12 Li     0.000000    3.234074   11.617037    ( 0.0000,  0.0000,  0.0000)
  13 Li     3.234074    3.234074   11.617037    ( 0.0000,  0.0000,  0.0000)
  14 Li     6.468148    3.234074   11.617037    ( 0.0000,  0.0000,  0.0000)
  15 Li     0.000000    6.468148   11.617037    ( 0.0000,  0.0000,  0.0000)
  16 Li     3.234074    6.468148   11.617037    ( 0.0000,  0.0000,  0.0000)
  17 Li     6.468148    6.468148   11.617037    ( 0.0000,  0.0000,  0.0000)
  18 Li     1.617229    1.617037   13.469543    ( 0.0000,  0.0000,  0.0000)
  19 Li     4.851118    1.617033   13.469876    ( 0.0000,  0.0000,  0.0000)
  20 Li     8.085006    1.617049   13.469473    ( 0.0000,  0.0000,  0.0000)
  21 Li     1.616988    4.851066   13.469881    ( 0.0000,  0.0000,  0.0000)
  22 Li     4.851114    4.851115   13.469840    ( 0.0000,  0.0000,  0.0000)
  23 Li     8.085235    4.851078   13.469903    ( 0.0000,  0.0000,  0.0000)
  24 Li     1.616977    8.085235   13.469877    ( 0.0000,  0.0000,  0.0000)
  25 Li     4.851134    8.085187   13.469858    ( 0.0000,  0.0000,  0.0000)
  26 Li     8.085229    8.085190   13.469827    ( 0.0000,  0.0000,  0.0000)
  27 Li    -0.000052    0.000649   15.446481    ( 0.0000,  0.0000,  0.0000)
  28 Li     3.234139   -0.000018   15.445844    ( 0.0000,  0.0000,  0.0000)
  29 Li     6.468139   -0.000012   15.445942    ( 0.0000,  0.0000,  0.0000)
  30 Li     0.000059    3.233546   15.446301    ( 0.0000,  0.0000,  0.0000)
  31 Li     3.234083    3.234066   15.445866    ( 0.0000,  0.0000,  0.0000)
  32 Li     6.468079    3.234125   15.445886    ( 0.0000,  0.0000,  0.0000)
  33 Li     0.000004    6.468138   15.445925    ( 0.0000,  0.0000,  0.0000)
  34 Li     3.234076    6.468161   15.445906    ( 0.0000,  0.0000,  0.0000)
  35 Li     6.468136    6.468127   15.445874    ( 0.0000,  0.0000,  0.0000)
  36 O     -0.002743    1.617506   19.685842    ( 0.0000,  0.0000,  0.0000)
  37 C      1.445328    1.603550   19.657462    ( 0.0000,  0.0000,  0.0000)
  38 H      1.833461    0.851911   18.965157    ( 0.0000,  0.0000,  0.0000)
  39 H      1.831358    1.423422   20.653589    ( 0.0000,  0.0000,  0.0000)
  40 H      1.749109    2.587432   19.318670    ( 0.0000,  0.0000,  0.0000)
  41 H     -0.316564    0.743486   19.945509    ( 0.0000,  0.0000,  0.0000)
  42 N     -0.005114    1.610704   17.160556    ( 0.0000,  0.0000,  0.0000)
  43 N      0.000544    1.631991   18.271134    ( 0.0000,  0.0000,  0.0000)

Unit cell:
           periodic     x           y           z      points  spacing
  1. axis:    yes    9.702222    0.000000    0.000000    60     0.1617
  2. axis:    yes    0.000000    9.702222    0.000000    60     0.1617
  3. axis:    no     0.000000    0.000000   26.601111   168     0.1583

  Lengths:   9.702222   9.702222  26.601111
  Angles:   90.000000  90.000000  90.000000

Effective grid spacing dv^(1/3) = 0.1606

     iter     time        total  log10-change:
                         energy  eigst   dens
iter:   1 11:36:28  -275.038017  -0.06
iter:   2 11:36:35  -275.329003  +0.07  -1.11
iter:   3 11:36:42  -274.067519  -0.13  -0.96
iter:   4 11:36:50  -274.044809  -0.51  -1.55
Writing to output.gpw (mode='')

iter:   5 11:36:57  -273.920489  -0.61  -1.58
iter:   6 11:37:04  -273.927783  -0.90  -1.73
iter:   7 11:37:11  -273.848902  -1.12  -1.69
iter:   8 11:37:21  -273.837987  -0.91  -2.02
iter:   9 11:37:28  -273.840231c -1.49  -2.22
Writing to output.gpw (mode='')

iter:  10 11:37:35  -273.847791c -1.39  -2.25
iter:  11 11:37:42  -273.842856c -1.70  -2.20
iter:  12 11:37:49  -273.842677c -2.20  -2.37
iter:  13 11:37:56  -273.843474c -2.42  -2.41
iter:  14 11:38:04  -273.845995c -1.99  -2.39
Writing to output.gpw (mode='')

iter:  15 11:38:11  -273.845231c -2.60  -2.31
iter:  16 11:38:18  -273.844453c -2.84  -2.40
iter:  17 11:38:25  -273.844359c -2.86  -2.43
iter:  18 11:38:32  -273.844891c -3.10  -2.44
iter:  19 11:38:40  -273.845496c -3.09  -2.44
Writing to output.gpw (mode='')

iter:  20 11:38:47  -273.845165c -2.97  -2.30
iter:  21 11:38:54  -273.843048c -2.86  -2.28
iter:  22 11:39:01  -273.841748c -2.29  -2.49
iter:  23 11:39:08  -273.841846c -2.83  -2.85
iter:  24 11:39:15  -273.841784c -3.06  -2.93
Writing to output.gpw (mode='')

iter:  25 11:39:22  -273.841741c -3.21  -3.02
iter:  26 11:39:29  -273.841723c -3.20  -3.12
iter:  27 11:39:42  -273.841792c -3.35  -3.22
iter:  28 11:39:49  -273.841819c -3.44  -3.31
iter:  29 11:39:56  -273.841848c -3.77  -3.38
Writing to output.gpw (mode='')

iter:  30 11:40:03  -273.841859c -4.10  -3.38
iter:  31 11:40:11  -273.841880c -4.28  -3.39
iter:  32 11:40:18  -273.841901c -4.46  -3.40
iter:  33 11:40:25  -273.841928c -4.61  -3.44
iter:  34 11:40:32  -273.841938c -4.91  -3.54
Writing to output.gpw (mode='')

iter:  35 11:40:39  -273.841930c -4.88  -3.57
iter:  36 11:40:46  -273.841928c -5.13  -3.63
iter:  37 11:40:53  -273.841954c -4.93  -3.65
iter:  38 11:41:00  -273.841969c -4.94  -3.67
iter:  39 11:41:07  -273.841961c -5.23  -3.70
Writing to output.gpw (mode='')

iter:  40 11:41:14  -273.841951c -5.22  -3.92
iter:  41 11:41:21  -273.841947c -5.56  -3.99
iter:  42 11:41:29  -273.841940c -5.47  -4.03c
iter:  43 11:41:36  -273.841931c -5.82  -4.11c
iter:  44 11:41:43  -273.841930c -5.76  -4.24c
Writing to output.gpw (mode='')

iter:  45 11:41:50  -273.841930c -5.88  -4.33c
iter:  46 11:41:57  -273.841935c -5.84  -4.37c
iter:  47 11:42:04  -273.841936c -6.10  -4.40c
iter:  48 11:42:11  -273.841935c -6.30  -4.46c
iter:  49 11:42:18  -273.841940c -6.04  -4.54c
Writing to output.gpw (mode='')

iter:  50 11:42:25  -273.841938c -6.45  -4.82c
iter:  51 11:42:32  -273.841937c -6.15  -4.85c
iter:  52 11:42:39  -273.841940c -6.39  -4.88c
iter:  53 11:42:46  -273.841939c -6.53  -4.91c
iter:  54 11:42:53  -273.841939c -6.66  -5.07c
Writing to output.gpw (mode='')

iter:  55 11:43:01  -273.841939c -6.47  -5.09c
iter:  56 11:43:08  -273.841939c -6.75  -5.09c
iter:  57 11:43:15  -273.841939c -6.89  -5.13c
iter:  58 11:43:22  -273.841940c -6.87  -5.12c
iter:  59 11:43:29  -273.841940c -6.96  -5.09c
Writing to output.gpw (mode='')

iter:  60 11:43:36  -273.841940c -6.97  -5.07c
iter:  61 11:43:43  -273.841939c -6.99  -5.07c
iter:  62 11:43:50  -273.841939c -6.95  -5.09c
iter:  63 11:43:57  -273.841939c -7.36  -5.07c
iter:  64 11:44:04  -273.841939c -7.05  -5.08c
Writing to output.gpw (mode='')

iter:  65 11:44:11  -273.841939c -7.12  -5.12c
iter:  66 11:44:18  -273.841939c -7.39  -5.10c
iter:  67 11:44:25  -273.841939c -7.42c -5.16c

Converged after 67 iterations.

Dipole moment: (-12.703285, -4.915007, 0.213299) |e|*Ang

Energy contributions relative to reference atoms: (reference = -13382.245603)

Kinetic:       +161.559953
Potential:     -144.417577
External:        +0.000000
XC:            -291.553200
Entropy (-ST):   -0.160241
Local:           +0.649005
--------------------------
Free energy:   -273.922059
Extrapolated:  -273.841939

Dipole-layer corrected work functions: 3.387157, 2.977124 eV

Showing only first 2 kpts
 Kpt  Band  Eigenvalues  Occupancy
  0    28     -3.37624    1.95962
  0    29     -3.29272    1.80256
  0    30     -3.04258    0.11561
  0    31     -2.93969    0.01555

  1    28     -3.26127    1.65916
  1    29     -3.17885    0.96707
  1    30     -3.16042    0.78610
  1    31     -3.07082    0.19482


Fermi level: -3.18214

No gap
Writing to output.gpw (mode='')


Forces in eV/Ang:
  0 Li    0.01614    0.00137   -0.27733
  1 Li   -0.00843   -0.00063   -0.26267
  2 Li   -0.00912    0.00291   -0.27338
  3 Li    0.00362    0.00497   -0.27255
  4 Li    0.00084    0.00319   -0.28683
  5 Li   -0.00499    0.01230   -0.26955
  6 Li    0.00675   -0.00591   -0.27377
  7 Li   -0.00082   -0.00362   -0.28241
  8 Li   -0.00635   -0.01437   -0.27184
  9 Li   -0.00119    0.01385    0.32116
 10 Li    0.01705   -0.00314    0.25058
 11 Li   -0.01540   -0.00700    0.26614
 12 Li    0.00031   -0.00978    0.30714
 13 Li    0.01676    0.00179    0.25279
 14 Li   -0.01664    0.01018    0.26110
 15 Li   -0.00079   -0.00587    0.24504
 16 Li   -0.02236    0.00085    0.27009
 17 Li    0.02464   -0.00342    0.25512
 18 Li    0.05572    0.00102   -0.05350
 19 Li    0.00279   -0.00134    0.04694
 20 Li   -0.05248    0.00267   -0.07643
 21 Li   -0.01684   -0.01648    0.04889
 22 Li    0.00196    0.00419    0.03012
 23 Li    0.01598   -0.01137    0.05067
 24 Li   -0.02012    0.01516    0.04540
 25 Li    0.00543   -0.00180    0.03459
 26 Li    0.01624    0.00478    0.03657
 27 Li   -0.00955    0.16978    0.11046
 28 Li    0.02502   -0.00774   -0.03237
 29 Li   -0.01728   -0.01213   -0.01449
 30 Li    0.00782   -0.11781    0.05719
 31 Li    0.01563    0.00334   -0.03043
 32 Li   -0.02920    0.01911   -0.02417
 33 Li    0.00018   -0.00143   -0.01525
 34 Li   -0.00526    0.00310   -0.01065
 35 Li    0.00382   -0.00259   -0.01946
 36 O    -0.55621   -1.13292   14.81656
 37 C     2.60147    0.18878    1.41569
 38 H    -0.13441   -0.03875    0.21565
 39 H    -0.26162   -0.03898    0.32011
 40 H     0.00410    0.04790    0.02910
 41 H    -0.80342   -1.87266    1.95892
 42 N    -1.55457   -2.24395   -6.00564
 43 N     0.68862    5.05279  -12.86498

System changes: positions 

Initializing position-dependent things.

Density initialized from wave functions
       .-----------------------.  
      /|                       |  
     / |                       |  
    /  |                       |  
   /   |                       |  
  /    |                       |  
 *     |                       |  
 |     |                       |  
 |     |                       |  
 |     |                       |  
 |     |                       |  
 |     |                       |  
 |    H|                       |  
 |     H                       |  
 |    C|       Li      LiHO    |  
 |N   H|                       |  
 |   Li|     Li      Li        |  
 |     |  Li      Li      Ni   |  
 | Li  |   Li      Li          |  
 |     |Li      Li      Li     |  
 |     |                 Li    |  
 |   LLi     LLi     LLi       |  
 |     |  Li      Li      Li   |  
 | Li  |   Li      Li          |  
 |     |Li      Li      Li     |  
 Li    | Li      Li            |  
 |    Li      Li      Li       |  
 |     |                       |  
 |     |                       |  
 |     |                       |  
 |     |                       |  
 |     |                       |  
 |     |                       |  
 |     .-----------------------.  
 |    /                       /   
 |   /                       /    
 |  /                       /     
 | /                       /      
 |/                       /       
 *-----------------------*        

Positions:
   0 Li     1.617037    1.617037   10.000000    ( 0.0000,  0.0000,  0.0000)
   1 Li     4.851111    1.617037   10.000000    ( 0.0000,  0.0000,  0.0000)
   2 Li     8.085185    1.617037   10.000000    ( 0.0000,  0.0000,  0.0000)
   3 Li     1.617037    4.851111   10.000000    ( 0.0000,  0.0000,  0.0000)
   4 Li     4.851111    4.851111   10.000000    ( 0.0000,  0.0000,  0.0000)
   5 Li     8.085185    4.851111   10.000000    ( 0.0000,  0.0000,  0.0000)
   6 Li     1.617037    8.085185   10.000000    ( 0.0000,  0.0000,  0.0000)
   7 Li     4.851111    8.085185   10.000000    ( 0.0000,  0.0000,  0.0000)
   8 Li     8.085185    8.085185   10.000000    ( 0.0000,  0.0000,  0.0000)
   9 Li     0.000000    0.000000   11.617037    ( 0.0000,  0.0000,  0.0000)
  10 Li     3.234074    0.000000   11.617037    ( 0.0000,  0.0000,  0.0000)
  11 Li     6.468148    0.000000   11.617037    ( 0.0000,  0.0000,  0.0000)
  12 Li     0.000000    3.234074   11.617037    ( 0.0000,  0.0000,  0.0000)
  13 Li     3.234074    3.234074   11.617037    ( 0.0000,  0.0000,  0.0000)
  14 Li     6.468148    3.234074   11.617037    ( 0.0000,  0.0000,  0.0000)
  15 Li     0.000000    6.468148   11.617037    ( 0.0000,  0.0000,  0.0000)
  16 Li     3.234074    6.468148   11.617037    ( 0.0000,  0.0000,  0.0000)
  17 Li     6.468148    6.468148   11.617037    ( 0.0000,  0.0000,  0.0000)
  18 Li     1.617407    1.617034   13.469372    ( 0.0000,  0.0000,  0.0000)
  19 Li     4.851123    1.617028   13.470006    ( 0.0000,  0.0000,  0.0000)
  20 Li     8.084842    1.617061   13.469240    ( 0.0000,  0.0000,  0.0000)
  21 Li     1.616945    4.851028   13.470015    ( 0.0000,  0.0000,  0.0000)
  22 Li     4.851116    4.851114   13.469945    ( 0.0000,  0.0000,  0.0000)
  23 Li     8.085282    4.851051   13.470063    ( 0.0000,  0.0000,  0.0000)
  24 Li     1.616924    8.085283   13.470011    ( 0.0000,  0.0000,  0.0000)
  25 Li     4.851157    8.085194   13.469981    ( 0.0000,  0.0000,  0.0000)
  26 Li     8.085267    8.085192   13.469906    ( 0.0000,  0.0000,  0.0000)
  27 Li    -0.000109    0.001281   15.447056    ( 0.0000,  0.0000,  0.0000)
  28 Li     3.234190   -0.000031   15.445764    ( 0.0000,  0.0000,  0.0000)
  29 Li     6.468154   -0.000011   15.445968    ( 0.0000,  0.0000,  0.0000)
  30 Li     0.000128    3.233002   15.446711    ( 0.0000,  0.0000,  0.0000)
  31 Li     3.234068    3.234047   15.445814    ( 0.0000,  0.0000,  0.0000)
  32 Li     6.468033    3.234163   15.445852    ( 0.0000,  0.0000,  0.0000)
  33 Li     0.000010    6.468127   15.445929    ( 0.0000,  0.0000,  0.0000)
  34 Li     3.234083    6.468178   15.445879    ( 0.0000,  0.0000,  0.0000)
  35 Li     6.468117    6.468104   15.445816    ( 0.0000,  0.0000,  0.0000)
  36 O     -0.005657    1.619895   19.717885    ( 0.0000,  0.0000,  0.0000)
  37 C      1.462444    1.605440   19.663561    ( 0.0000,  0.0000,  0.0000)
  38 H      1.832605    0.851836   18.966017    ( 0.0000,  0.0000,  0.0000)
  39 H      1.828851    1.423300   20.653592    ( 0.0000,  0.0000,  0.0000)
  40 H      1.748695    2.587020   19.318844    ( 0.0000,  0.0000,  0.0000)
  41 H     -0.322075    0.732044   19.954266    ( 0.0000,  0.0000,  0.0000)
  42 N     -0.009751    1.605504   17.121167    ( 0.0000,  0.0000,  0.0000)
  43 N      0.000231    1.644819   18.261482    ( 0.0000,  0.0000,  0.0000)

Unit cell:
           periodic     x           y           z      points  spacing
  1. axis:    yes    9.702222    0.000000    0.000000    60     0.1617
  2. axis:    yes    0.000000    9.702222    0.000000    60     0.1617
  3. axis:    no     0.000000    0.000000   26.601111   168     0.1583

  Lengths:   9.702222   9.702222  26.601111
  Angles:   90.000000  90.000000  90.000000

Effective grid spacing dv^(1/3) = 0.1606

     iter     time        total  log10-change:
                         energy  eigst   dens
iter:   1 11:44:39  -276.280107  -0.21
iter:   2 11:44:47  -276.692879  +0.24  -1.06
iter:   3 11:44:54  -274.813062  -0.26  -0.92
iter:   4 11:45:01  -274.809624  -0.65  -1.72
Writing to output.gpw (mode='')

iter:   5 11:45:08  -274.775957  -0.68  -1.77
iter:   6 11:45:15  -274.782988  -1.08  -2.05
iter:   7 11:45:22  -274.785374c -1.33  -2.05
iter:   8 11:45:29  -274.788478c -1.42  -2.20
iter:   9 11:45:36  -274.785773c -1.51  -2.08
Writing to output.gpw (mode='')

iter:  10 11:45:43  -274.784400c -1.73  -2.21
iter:  11 11:45:50  -274.785131c -2.20  -2.49
iter:  12 11:45:57  -274.785798c -2.25  -2.60
iter:  13 11:46:04  -274.787494c -2.06  -2.66
iter:  14 11:46:11  -274.787444c -2.73  -2.54
Writing to output.gpw (mode='')

iter:  15 11:46:18  -274.787535c -2.90  -2.75
iter:  16 11:46:25  -274.787635c -2.94  -2.87
iter:  17 11:46:32  -274.787778c -2.97  -2.99
iter:  18 11:46:39  -274.787889c -3.13  -3.03
iter:  19 11:46:46  -274.787946c -3.20  -3.09
Writing to output.gpw (mode='')

iter:  20 11:46:53  -274.787944c -3.72  -3.27
iter:  21 11:47:01  -274.787967c -3.75  -3.40
iter:  22 11:47:08  -274.788004c -3.72  -3.43
iter:  23 11:47:15  -274.788008c -4.17  -3.42
iter:  24 11:47:22  -274.788050c -4.18  -3.56
Writing to output.gpw (mode='')

iter:  25 11:47:29  -274.788062c -4.25  -3.54
iter:  26 11:47:36  -274.788076c -4.25  -3.59
iter:  27 11:47:43  -274.788097c -4.49  -3.60
iter:  28 11:47:50  -274.788089c -4.46  -3.52
iter:  29 11:47:57  -274.788084c -4.59  -3.77
Writing to output.gpw (mode='')

iter:  30 11:48:04  -274.788084c -4.52  -3.66
iter:  31 11:48:11  -274.788110c -4.48  -3.90
iter:  32 11:48:18  -274.788104c -4.90  -3.82
iter:  33 11:48:25  -274.788100c -4.84  -4.01c
iter:  34 11:48:32  -274.788103c -5.09  -4.11c
Writing to output.gpw (mode='')

iter:  35 11:48:39  -274.788103c -5.20  -4.17c
iter:  36 11:48:46  -274.788102c -5.22  -4.23c
iter:  37 11:48:53  -274.788100c -5.26  -4.34c
iter:  38 11:49:00  -274.788101c -5.36  -4.45c
iter:  39 11:49:07  -274.788102c -5.57  -4.49c
Writing to output.gpw (mode='')

iter:  40 11:49:14  -274.788102c -5.62  -4.48c
iter:  41 11:49:21  -274.788101c -5.64  -4.44c
iter:  42 11:49:28  -274.788101c -5.86  -4.47c
iter:  43 11:49:42  -274.788100c -5.84  -4.48c
iter:  44 11:49:49  -274.788101c -5.80  -4.68c
Writing to output.gpw (mode='')

iter:  45 11:49:56  -274.788102c -5.82  -4.85c
iter:  46 11:50:03  -274.788102c -6.05  -4.94c
iter:  47 11:50:10  -274.788102c -6.10  -4.93c
iter:  48 11:50:17  -274.788102c -6.01  -4.93c
iter:  49 11:50:24  -274.788103c -6.24  -4.93c
Writing to output.gpw (mode='')

iter:  50 11:50:31  -274.788103c -6.25  -4.82c
iter:  51 11:50:38  -274.788102c -6.16  -5.00c
iter:  52 11:50:46  -274.788103c -6.24  -5.20c
iter:  53 11:50:53  -274.788103c -6.43  -5.27c
iter:  54 11:51:00  -274.788102c -6.38  -5.30c
Writing to output.gpw (mode='')

iter:  55 11:51:07  -274.788102c -6.44  -5.32c
iter:  56 11:51:14  -274.788102c -6.53  -5.35c
iter:  57 11:51:21  -274.788102c -6.43  -5.34c
iter:  58 11:51:28  -274.788102c -6.74  -5.39c
iter:  59 11:51:35  -274.788102c -6.79  -5.53c
Writing to output.gpw (mode='')

iter:  60 11:51:42  -274.788102c -6.85  -5.54c
iter:  61 11:51:49  -274.788102c -6.91  -5.45c
iter:  62 11:51:56  -274.788102c -6.79  -5.42c
iter:  63 11:52:03  -274.788102c -6.93  -5.38c
iter:  64 11:52:10  -274.788102c -7.10  -5.32c
Writing to output.gpw (mode='')

iter:  65 11:52:17  -274.788102c -7.18  -5.32c
iter:  66 11:52:24  -274.788102c -7.19  -5.33c
iter:  67 11:52:31  -274.788102c -7.20  -5.35c
iter:  68 11:52:38  -274.788102c -7.27  -5.24c
iter:  69 11:52:45  -274.788103c -7.19  -5.17c
Writing to output.gpw (mode='')

iter:  70 11:52:52  -274.788102c -7.43c -5.23c

Converged after 70 iterations.

Dipole moment: (-11.920760, -4.749448, 0.203160) |e|*Ang

Energy contributions relative to reference atoms: (reference = -13382.245603)

Kinetic:       +157.180165
Potential:     -141.513994
External:        +0.000000
XC:            -291.027821
Entropy (-ST):   -0.152152
Local:           +0.649624
--------------------------
Free energy:   -274.864179
Extrapolated:  -274.788102

Dipole-layer corrected work functions: 3.388932, 2.998390 eV

Showing only first 2 kpts
 Kpt  Band  Eigenvalues  Occupancy
  0    28     -3.42021    1.97869
  0    29     -3.30927    1.81977
  0    30     -3.04626    0.09965
  0    31     -2.94776    0.01452

  1    28     -3.26195    1.59339
  1    29     -3.19073    0.97074
  1    30     -3.17155    0.78238
  1    31     -3.07780    0.17940


Fermi level: -3.19366

No gap

Forces in eV/Ang:
  0 Li    0.01553    0.00139   -0.27669
  1 Li   -0.00796   -0.00051   -0.26166
  2 Li   -0.00910    0.00261   -0.27312
  3 Li    0.00316    0.00601   -0.27253
  4 Li    0.00100    0.00281   -0.28649
  5 Li   -0.00437    0.01337   -0.27031
  6 Li    0.00542   -0.00685   -0.27393
  7 Li   -0.00021   -0.00410   -0.28215
  8 Li   -0.00545   -0.01502   -0.27228
  9 Li   -0.00120    0.01458    0.32086
 10 Li    0.01746   -0.00296    0.25197
 11 Li   -0.01547   -0.00657    0.26559
 12 Li    0.00032   -0.01095    0.30791
 13 Li    0.01828    0.00179    0.25267
 14 Li   -0.01791    0.00933    0.26047
 15 Li   -0.00071   -0.00641    0.24088
 16 Li   -0.02343    0.00090    0.26957
 17 Li    0.02523   -0.00305    0.25536
 18 Li    0.05696    0.00130   -0.05834
 19 Li    0.00364   -0.00101    0.05087
 20 Li   -0.05389    0.00300   -0.08230
 21 Li   -0.01738   -0.01782    0.04921
 22 Li    0.00171    0.00552    0.03058
 23 Li    0.01637   -0.01304    0.05012
 24 Li   -0.02176    0.01534    0.04682
 25 Li    0.00503   -0.00273    0.03382
 26 Li    0.01789    0.00583    0.03943
 27 Li   -0.01079    0.19656    0.13197
 28 Li    0.02931   -0.00975   -0.03490
 29 Li   -0.02631   -0.01698   -0.02179
 30 Li    0.00611   -0.12611    0.07472
 31 Li    0.02279    0.00639   -0.03447
 32 Li   -0.03551    0.02273   -0.02852
 33 Li   -0.00046    0.00018   -0.02252
 34 Li   -0.00653    0.00291   -0.01265
 35 Li    0.00606   -0.00097   -0.02062
 36 O    -0.32002   -1.95183   15.00038
 37 C     1.32645    0.01156    1.05068
 38 H    -0.06572   -0.05212    0.20216
 39 H     0.04840   -0.07761    0.64673
 40 H     0.08822    0.18771    0.00738
 41 H    -0.40337   -1.11367    1.64684
 42 N    -1.47890   -2.39764   -2.14561
 43 N     0.76707    5.30664  -16.46459

System changes: positions 

Initializing position-dependent things.

Density initialized from wave functions
       .-----------------------.  
      /|                       |  
     / |                       |  
    /  |                       |  
   /   |                       |  
  /    |                       |  
 *     |                       |  
 |     |                       |  
 |     |                       |  
 |     |                       |  
 |     |                       |  
 |     |                       |  
 |    H|                       |  
 |     H                       |  
 |    C|       Li      LiHO    |  
 |    H|                  N    |  
 |   Li|     Li      Li        |  
 |     |  Li      Li      Ni   |  
 | Li  |   Li      Li          |  
 |     |Li      Li      Li     |  
 |     |                 Li    |  
 |   LLi     LLi     LLi       |  
 |     |  Li      Li      Li   |  
 | Li  |   Li      Li          |  
 |     |Li      Li      Li     |  
 Li    | Li      Li            |  
 |    Li      Li      Li       |  
 |     |                       |  
 |     |                       |  
 |     |                       |  
 |     |                       |  
 |     |                       |  
 |     |                       |  
 |     .-----------------------.  
 |    /                       /   
 |   /                       /    
 |  /                       /     
 | /                       /      
 |/                       /       
 *-----------------------*        

Positions:
   0 Li     1.617037    1.617037   10.000000    ( 0.0000,  0.0000,  0.0000)
   1 Li     4.851111    1.617037   10.000000    ( 0.0000,  0.0000,  0.0000)
   2 Li     8.085185    1.617037   10.000000    ( 0.0000,  0.0000,  0.0000)
   3 Li     1.617037    4.851111   10.000000    ( 0.0000,  0.0000,  0.0000)
   4 Li     4.851111    4.851111   10.000000    ( 0.0000,  0.0000,  0.0000)
   5 Li     8.085185    4.851111   10.000000    ( 0.0000,  0.0000,  0.0000)
   6 Li     1.617037    8.085185   10.000000    ( 0.0000,  0.0000,  0.0000)
   7 Li     4.851111    8.085185   10.000000    ( 0.0000,  0.0000,  0.0000)
   8 Li     8.085185    8.085185   10.000000    ( 0.0000,  0.0000,  0.0000)
   9 Li     0.000000    0.000000   11.617037    ( 0.0000,  0.0000,  0.0000)
  10 Li     3.234074    0.000000   11.617037    ( 0.0000,  0.0000,  0.0000)
  11 Li     6.468148    0.000000   11.617037    ( 0.0000,  0.0000,  0.0000)
  12 Li     0.000000    3.234074   11.617037    ( 0.0000,  0.0000,  0.0000)
  13 Li     3.234074    3.234074   11.617037    ( 0.0000,  0.0000,  0.0000)
  14 Li     6.468148    3.234074   11.617037    ( 0.0000,  0.0000,  0.0000)
  15 Li     0.000000    6.468148   11.617037    ( 0.0000,  0.0000,  0.0000)
  16 Li     3.234074    6.468148   11.617037    ( 0.0000,  0.0000,  0.0000)
  17 Li     6.468148    6.468148   11.617037    ( 0.0000,  0.0000,  0.0000)
  18 Li     1.617784    1.617018   13.468911    ( 0.0000,  0.0000,  0.0000)
  19 Li     4.851144    1.617023   13.470304    ( 0.0000,  0.0000,  0.0000)
  20 Li     8.084495    1.617100   13.468665    ( 0.0000,  0.0000,  0.0000)
  21 Li     1.616878    4.850966   13.470221    ( 0.0000,  0.0000,  0.0000)
  22 Li     4.851100    4.851104   13.470188    ( 0.0000,  0.0000,  0.0000)
  23 Li     8.085370    4.850981   13.470362    ( 0.0000,  0.0000,  0.0000)
  24 Li     1.616812    8.085379   13.470283    ( 0.0000,  0.0000,  0.0000)
  25 Li     4.851209    8.085222   13.470241    ( 0.0000,  0.0000,  0.0000)
  26 Li     8.085340    8.085181   13.470027    ( 0.0000,  0.0000,  0.0000)
  27 Li    -0.000329    0.003444   15.449355    ( 0.0000,  0.0000,  0.0000)
  28 Li     3.234315   -0.000072   15.445609    ( 0.0000,  0.0000,  0.0000)
  29 Li     6.468155   -0.000015   15.446043    ( 0.0000,  0.0000,  0.0000)
  30 Li     0.000345    3.231249   15.448599    ( 0.0000,  0.0000,  0.0000)
  31 Li     3.234033    3.233999   15.445737    ( 0.0000,  0.0000,  0.0000)
  32 Li     6.467917    3.234260   15.445799    ( 0.0000,  0.0000,  0.0000)
  33 Li     0.000020    6.468126   15.445907    ( 0.0000,  0.0000,  0.0000)
  34 Li     3.234134    6.468227   15.445795    ( 0.0000,  0.0000,  0.0000)
  35 Li     6.468049    6.468061   15.445686    ( 0.0000,  0.0000,  0.0000)
  36 O     -0.008730    1.621190   19.742337    ( 0.0000,  0.0000,  0.0000)
  37 C      1.489306    1.608387   19.670943    ( 0.0000,  0.0000,  0.0000)
  38 H      1.831426    0.851491   18.967864    ( 0.0000,  0.0000,  0.0000)
  39 H      1.826910    1.422105   20.658858    ( 0.0000,  0.0000,  0.0000)
  40 H      1.748765    2.588095   19.318877    ( 0.0000,  0.0000,  0.0000)
  41 H     -0.331293    0.712965   19.970816    ( 0.0000,  0.0000,  0.0000)
  42 N     -0.016070    1.596997   17.082597    ( 0.0000,  0.0000,  0.0000)
  43 N     -0.005540    1.667050   18.241718    ( 0.0000,  0.0000,  0.0000)

Unit cell:
           periodic     x           y           z      points  spacing
  1. axis:    yes    9.702222    0.000000    0.000000    60     0.1617
  2. axis:    yes    0.000000    9.702222    0.000000    60     0.1617
  3. axis:    no     0.000000    0.000000   26.601111   168     0.1583

  Lengths:   9.702222   9.702222  26.601111
  Angles:   90.000000  90.000000  90.000000

Effective grid spacing dv^(1/3) = 0.1606

     iter     time        total  log10-change:
                         energy  eigst   dens
iter:   1 11:53:01  -276.088356  -0.45
iter:   2 11:53:08  -276.267696  -0.28  -1.27
iter:   3 11:53:18  -275.757463  -0.60  -1.21
iter:   4 11:53:25  -275.748637  -1.18  -1.74
Writing to output.gpw (mode='')

iter:   5 11:53:32  -275.744716c -1.07  -1.89
iter:   6 11:53:39  -275.740650c -1.13  -1.99
iter:   7 11:53:46  -275.739335c -1.52  -2.22
iter:   8 11:53:53  -275.739408c -1.58  -2.32
iter:   9 11:54:00  -275.739144c -2.36  -2.56
Writing to output.gpw (mode='')

iter:  10 11:54:08  -275.738973c -2.44  -2.63
iter:  11 11:54:15  -275.739545c -2.48  -2.75
iter:  12 11:54:22  -275.739424c -2.76  -2.82
iter:  13 11:54:29  -275.739558c -3.15  -2.95
iter:  14 11:54:43  -275.739774c -3.34  -3.02
Writing to output.gpw (mode='')

iter:  15 11:54:50  -275.739765c -3.19  -3.01
iter:  16 11:54:58  -275.739886c -3.58  -3.08
iter:  17 11:55:05  -275.739891c -3.47  -3.22
iter:  18 11:55:12  -275.739914c -3.76  -3.38
iter:  19 11:55:19  -275.739942c -3.84  -3.40
Writing to output.gpw (mode='')

iter:  20 11:55:26  -275.739958c -4.25  -3.66
iter:  21 11:55:33  -275.739976c -4.10  -3.65
iter:  22 11:55:40  -275.739977c -4.17  -3.73
iter:  23 11:55:47  -275.739989c -4.35  -3.71
iter:  24 11:55:55  -275.740004c -4.43  -3.89
Writing to output.gpw (mode='')

iter:  25 11:56:02  -275.740010c -4.73  -3.91
iter:  26 11:56:09  -275.740015c -4.81  -3.94
iter:  27 11:56:16  -275.740015c -5.02  -4.00
iter:  28 11:56:23  -275.740018c -4.92  -4.03c
iter:  29 11:56:30  -275.740020c -5.11  -4.05c
Writing to output.gpw (mode='')

iter:  30 11:56:37  -275.740017c -5.15  -4.15c
iter:  31 11:56:44  -275.740022c -5.42  -4.17c
iter:  32 11:56:51  -275.740022c -5.60  -4.34c
iter:  33 11:56:59  -275.740023c -5.57  -4.37c
iter:  34 11:57:06  -275.740023c -5.60  -4.45c
Writing to output.gpw (mode='')

iter:  35 11:57:13  -275.740024c -5.76  -4.83c
iter:  36 11:57:20  -275.740024c -5.80  -4.82c
iter:  37 11:57:27  -275.740024c -5.82  -4.96c
iter:  38 11:57:34  -275.740025c -6.03  -5.01c
iter:  39 11:57:41  -275.740025c -5.82  -4.96c
Writing to output.gpw (mode='')

iter:  40 11:57:48  -275.740025c -6.12  -4.78c
iter:  41 11:57:55  -275.740026c -6.05  -4.76c
iter:  42 11:58:02  -275.740026c -6.40  -4.77c
iter:  43 11:58:10  -275.740026c -6.27  -4.80c
iter:  44 11:58:17  -275.740027c -6.56  -4.80c
Writing to output.gpw (mode='')

iter:  45 11:58:24  -275.740026c -6.54  -4.80c
iter:  46 11:58:33  -275.740026c -6.69  -4.86c
iter:  47 11:58:44  -275.740026c -6.76  -4.86c
iter:  48 11:58:54  -275.740027c -6.68  -4.92c
iter:  49 11:59:02  -275.740027c -6.66  -4.92c
Writing to output.gpw (mode='')

iter:  50 11:59:09  -275.740027c -6.64  -4.93c
iter:  51 11:59:16  -275.740027c -6.84  -4.93c
iter:  52 11:59:23  -275.740027c -7.03  -5.03c
iter:  53 11:59:30  -275.740027c -7.10  -5.06c
iter:  54 11:59:42  -275.740027c -7.18  -5.08c
Writing to output.gpw (mode='')

iter:  55 11:59:50  -275.740027c -7.08  -5.19c
iter:  56 11:59:57  -275.740027c -7.18  -5.40c
iter:  57 12:00:04  -275.740027c -7.37  -5.34c
iter:  58 12:00:11  -275.740027c -7.48c -5.73c

Converged after 58 iterations.

Dipole moment: (-10.454025, -4.669236, 0.215391) |e|*Ang

Energy contributions relative to reference atoms: (reference = -13382.245603)

Kinetic:       +152.564935
Potential:     -138.467121
External:        +0.000000
XC:            -290.413636
Entropy (-ST):   -0.146068
Local:           +0.648828
--------------------------
Free energy:   -275.813061
Extrapolated:  -275.740027

Dipole-layer corrected work functions: 3.389059, 2.975005 eV

Showing only first 2 kpts
 Kpt  Band  Eigenvalues  Occupancy
  0    28     -3.42199    1.98366
  0    29     -3.30438    1.84068
  0    30     -3.03041    0.09196
  0    31     -2.93071    0.01304

  1    28     -3.24184    1.53568
  1    29     -3.17968    0.97651
  1    30     -3.15862    0.77006
  1    31     -3.06524    0.17638


Fermi level: -3.18203

No gap
Writing to output.gpw (mode='')


Forces in eV/Ang:
  0 Li    0.01488    0.00145   -0.27540
  1 Li   -0.00646   -0.00039   -0.26110
  2 Li   -0.00977    0.00242   -0.27231
  3 Li    0.00284    0.00689   -0.27214
  4 Li    0.00115    0.00210   -0.28577
  5 Li   -0.00396    0.01342   -0.27083
  6 Li    0.00425   -0.00767   -0.27358
  7 Li    0.00043   -0.00433   -0.28152
  8 Li   -0.00479   -0.01470   -0.27241
  9 Li   -0.00103    0.01521    0.32056
 10 Li    0.01786   -0.00341    0.25352
 11 Li   -0.01590   -0.00628    0.26353
 12 Li    0.00054   -0.01214    0.30838
 13 Li    0.01976    0.00246    0.25269
 14 Li   -0.01954    0.00876    0.25811
 15 Li   -0.00054   -0.00707    0.23738
 16 Li   -0.02504    0.00093    0.26952
 17 Li    0.02622   -0.00283    0.25714
 18 Li    0.05764    0.00159   -0.06296
 19 Li    0.00434   -0.00059    0.05383
 20 Li   -0.05609    0.00369   -0.08669
 21 Li   -0.01784   -0.01936    0.04983
 22 Li    0.00099    0.00751    0.03042
 23 Li    0.01713   -0.01662    0.05066
 24 Li   -0.02349    0.01573    0.04835
 25 Li    0.00406   -0.00432    0.03219
 26 Li    0.02006    0.00862    0.04335
 27 Li   -0.01070    0.22416    0.15707
 28 Li    0.03325   -0.01171   -0.03762
 29 Li   -0.03568   -0.02069   -0.02960
 30 Li    0.00689   -0.12553    0.08721
 31 Li    0.03024    0.00965   -0.03936
 32 Li   -0.04141    0.02503   -0.03377
 33 Li   -0.00062    0.00206   -0.02814
 34 Li   -0.00726    0.00257   -0.01396
 35 Li    0.00734    0.00089   -0.02067
 36 O     0.02342   -3.23068   14.05610
 37 C    -0.04205   -0.18559    0.71322
 38 H     0.05967   -0.09285    0.15683
 39 H     0.35514   -0.10390    0.92456
 40 H     0.20319    0.36141   -0.02130
 41 H     0.08744   -0.12729    1.33210
 42 N    -1.15577   -2.68600    0.15411
 43 N     0.43916    6.01304  -17.46095

System changes: positions 

Initializing position-dependent things.

Density initialized from wave functions
       .-----------------------.  
      /|                       |  
     / |                       |  
    /  |                       |  
   /   |                       |  
  /    |                       |  
 *     |                       |  
 |     |                       |  
 |     |                       |  
 |     |                       |  
 |     |                       |  
 |     |                       |  
 |    H|                       |  
 |     H                  O    |  
 |    C|       Li      LiH     |  
 |    H|                  N    |  
 |   Li|     Li      Li        |  
 |     |  Li      Li      Ni   |  
 | Li  |   Li      Li          |  
 |     |Li      Li      Li     |  
 |     |                 Li    |  
 |   LLi     LLi     LLi       |  
 |     |  Li      Li      Li   |  
 | Li  |   Li      Li          |  
 |     |Li      Li      Li     |  
 Li    | Li      Li            |  
 |    Li      Li      Li       |  
 |     |                       |  
 |     |                       |  
 |     |                       |  
 |     |                       |  
 |     |                       |  
 |     |                       |  
 |     .-----------------------.  
 |    /                       /   
 |   /                       /    
 |  /                       /     
 | /                       /      
 |/                       /       
 *-----------------------*        

Positions:
   0 Li     1.617037    1.617037   10.000000    ( 0.0000,  0.0000,  0.0000)
   1 Li     4.851111    1.617037   10.000000    ( 0.0000,  0.0000,  0.0000)
   2 Li     8.085185    1.617037   10.000000    ( 0.0000,  0.0000,  0.0000)
   3 Li     1.617037    4.851111   10.000000    ( 0.0000,  0.0000,  0.0000)
   4 Li     4.851111    4.851111   10.000000    ( 0.0000,  0.0000,  0.0000)
   5 Li     8.085185    4.851111   10.000000    ( 0.0000,  0.0000,  0.0000)
   6 Li     1.617037    8.085185   10.000000    ( 0.0000,  0.0000,  0.0000)
   7 Li     4.851111    8.085185   10.000000    ( 0.0000,  0.0000,  0.0000)
   8 Li     8.085185    8.085185   10.000000    ( 0.0000,  0.0000,  0.0000)
   9 Li     0.000000    0.000000   11.617037    ( 0.0000,  0.0000,  0.0000)
  10 Li     3.234074    0.000000   11.617037    ( 0.0000,  0.0000,  0.0000)
  11 Li     6.468148    0.000000   11.617037    ( 0.0000,  0.0000,  0.0000)
  12 Li     0.000000    3.234074   11.617037    ( 0.0000,  0.0000,  0.0000)
  13 Li     3.234074    3.234074   11.617037    ( 0.0000,  0.0000,  0.0000)
  14 Li     6.468148    3.234074   11.617037    ( 0.0000,  0.0000,  0.0000)
  15 Li     0.000000    6.468148   11.617037    ( 0.0000,  0.0000,  0.0000)
  16 Li     3.234074    6.468148   11.617037    ( 0.0000,  0.0000,  0.0000)
  17 Li     6.468148    6.468148   11.617037    ( 0.0000,  0.0000,  0.0000)
  18 Li     1.618236    1.617001   13.468327    ( 0.0000,  0.0000,  0.0000)
  19 Li     4.851174    1.617021   13.470675    ( 0.0000,  0.0000,  0.0000)
  20 Li     8.084062    1.617153   13.467954    ( 0.0000,  0.0000,  0.0000)
  21 Li     1.616797    4.850880   13.470470    ( 0.0000,  0.0000,  0.0000)
  22 Li     4.851073    4.851109   13.470474    ( 0.0000,  0.0000,  0.0000)
  23 Li     8.085481    4.850864   13.470724    ( 0.0000,  0.0000,  0.0000)
  24 Li     1.616666    8.085497   13.470616    ( 0.0000,  0.0000,  0.0000)
  25 Li     4.851263    8.085242   13.470536    ( 0.0000,  0.0000,  0.0000)
  26 Li     8.085444    8.085195   13.470201    ( 0.0000,  0.0000,  0.0000)
  27 Li    -0.000587    0.006253   15.452329    ( 0.0000,  0.0000,  0.0000)
  28 Li     3.234491   -0.000135   15.445404    ( 0.0000,  0.0000,  0.0000)
  29 Li     6.468088   -0.000041   15.446076    ( 0.0000,  0.0000,  0.0000)
  30 Li     0.000622    3.229178   15.450957    ( 0.0000,  0.0000,  0.0000)
  31 Li     3.234045    3.233967   15.445609    ( 0.0000,  0.0000,  0.0000)
  32 Li     6.467739    3.234387   15.445695    ( 0.0000,  0.0000,  0.0000)
  33 Li     0.000033    6.468140   15.445847    ( 0.0000,  0.0000,  0.0000)
  34 Li     3.234192    6.468283   15.445687    ( 0.0000,  0.0000,  0.0000)
  35 Li     6.467970    6.468025   15.445534    ( 0.0000,  0.0000,  0.0000)
  36 O     -0.009397    1.611685   19.758184    ( 0.0000,  0.0000,  0.0000)
  37 C      1.510890    1.610386   19.677238    ( 0.0000,  0.0000,  0.0000)
  38 H      1.831165    0.850673   18.969611    ( 0.0000,  0.0000,  0.0000)
  39 H      1.826883    1.420508   20.667098    ( 0.0000,  0.0000,  0.0000)
  40 H      1.749824    2.590819   19.318672    ( 0.0000,  0.0000,  0.0000)
  41 H     -0.338340    0.698344   19.988211    ( 0.0000,  0.0000,  0.0000)
  42 N     -0.020137    1.584399   17.048232    ( 0.0000,  0.0000,  0.0000)
  43 N     -0.016633    1.700133   18.222162    ( 0.0000,  0.0000,  0.0000)

Unit cell:
           periodic     x           y           z      points  spacing
  1. axis:    yes    9.702222    0.000000    0.000000    60     0.1617
  2. axis:    yes    0.000000    9.702222    0.000000    60     0.1617
  3. axis:    no     0.000000    0.000000   26.601111   168     0.1583

  Lengths:   9.702222   9.702222  26.601111
  Angles:   90.000000  90.000000  90.000000

Effective grid spacing dv^(1/3) = 0.1606

     iter     time        total  log10-change:
                         energy  eigst   dens
iter:   1 12:00:19  -276.613139  -0.70
iter:   2 12:00:26  -276.603132  -1.04  -1.77
iter:   3 12:00:33  -276.581207  -1.38  -1.72
iter:   4 12:00:40  -276.568857  -1.68  -1.98
Writing to output.gpw (mode='')

iter:   5 12:00:48  -276.566509c -1.69  -2.18
iter:   6 12:00:55  -276.564144c -1.68  -2.24
iter:   7 12:01:02  -276.564567c -2.05  -2.39
iter:   8 12:01:09  -276.564399c -2.49  -2.42
iter:   9 12:01:16  -276.564104c -2.54  -2.53
Writing to output.gpw (mode='')

iter:  10 12:01:23  -276.564185c -3.12  -2.70
iter:  11 12:01:30  -276.564049c -3.27  -2.75
iter:  12 12:01:37  -276.563848c -2.86  -2.84
iter:  13 12:01:44  -276.563733c -3.49  -2.96
iter:  14 12:01:51  -276.563751c -3.84  -3.14
Writing to output.gpw (mode='')

iter:  15 12:01:58  -276.563768c -3.77  -3.16
iter:  16 12:02:05  -276.563748c -3.82  -3.35
iter:  17 12:02:12  -276.563760c -4.20  -3.44
iter:  18 12:02:19  -276.563770c -4.32  -3.48
iter:  19 12:02:26  -276.563781c -4.36  -3.53
Writing to output.gpw (mode='')

iter:  20 12:02:33  -276.563789c -4.30  -3.57
iter:  21 12:02:40  -276.563796c -4.69  -3.67
iter:  22 12:02:48  -276.563796c -4.64  -3.74
iter:  23 12:02:55  -276.563790c -4.96  -3.83
iter:  24 12:03:02  -276.563785c -5.05  -3.96
Writing to output.gpw (mode='')

iter:  25 12:03:09  -276.563787c -5.26  -4.11c
iter:  26 12:03:16  -276.563789c -5.53  -4.12c
iter:  27 12:03:23  -276.563788c -5.52  -4.15c
iter:  28 12:03:30  -276.563788c -5.64  -4.22c
iter:  29 12:03:37  -276.563787c -5.61  -4.39c
Writing to output.gpw (mode='')

iter:  30 12:03:44  -276.563787c -5.95  -4.58c
iter:  31 12:03:51  -276.563787c -5.99  -4.59c
iter:  32 12:03:58  -276.563787c -6.19  -4.78c
iter:  33 12:04:05  -276.563788c -6.25  -4.97c
iter:  34 12:04:12  -276.563788c -6.31  -5.02c
Writing to output.gpw (mode='')

iter:  35 12:04:19  -276.563788c -6.44  -5.07c
iter:  36 12:04:26  -276.563788c -6.48  -5.20c
iter:  37 12:04:40  -276.563788c -6.54  -5.24c
iter:  38 12:04:49  -276.563788c -6.60  -5.24c
iter:  39 12:04:56  -276.563788c -6.75  -5.22c
Writing to output.gpw (mode='')

iter:  40 12:05:03  -276.563788c -6.91  -5.10c
iter:  41 12:05:10  -276.563788c -6.94  -5.14c
iter:  42 12:05:17  -276.563788c -6.88  -5.12c
iter:  43 12:05:24  -276.563788c -7.03  -5.03c
iter:  44 12:05:31  -276.563788c -7.07  -4.99c
Writing to output.gpw (mode='')

iter:  45 12:05:38  -276.563788c -7.14  -4.98c
iter:  46 12:05:45  -276.563788c -7.06  -5.07c
iter:  47 12:05:52  -276.563788c -7.17  -5.27c
iter:  48 12:05:59  -276.563788c -7.23  -5.35c
iter:  49 12:06:06  -276.563788c -7.36  -5.38c
Writing to output.gpw (mode='')

iter:  50 12:06:13  -276.563788c -7.38  -5.45c
iter:  51 12:06:20  -276.563788c -7.66c -5.52c

Converged after 51 iterations.

Dipole moment: (-8.896434, -4.636212, 0.262655) |e|*Ang

Energy contributions relative to reference atoms: (reference = -13382.245603)

Kinetic:       +147.879913
Potential:     -135.190660
External:        +0.000000
XC:            -289.834332
Entropy (-ST):   -0.143203
Local:           +0.652893
--------------------------
Free energy:   -276.635390
Extrapolated:  -276.563788

Dipole-layer corrected work functions: 3.387474, 2.882561 eV

Showing only first 2 kpts
 Kpt  Band  Eigenvalues  Occupancy
  0    28     -3.37759    1.98449
  0    29     -3.26171    1.85296
  0    30     -2.98439    0.09373
  0    31     -2.88049    0.01223

  1    28     -3.19184    1.51408
  1    29     -3.13295    0.97937
  1    30     -3.10936    0.74888
  1    31     -3.01758    0.17431


Fermi level: -3.13502

No gap
Writing to output.gpw (mode='')


Forces in eV/Ang:
  0 Li    0.01422    0.00145   -0.27405
  1 Li   -0.00485   -0.00034   -0.26074
  2 Li   -0.01039    0.00213   -0.27121
  3 Li    0.00289    0.00778   -0.27186
  4 Li    0.00098    0.00184   -0.28504
  5 Li   -0.00391    0.01308   -0.27100
  6 Li    0.00363   -0.00838   -0.27335
  7 Li    0.00065   -0.00465   -0.28102
  8 Li   -0.00450   -0.01390   -0.27243
  9 Li   -0.00076    0.01484    0.32033
 10 Li    0.01758   -0.00362    0.25508
 11 Li   -0.01606   -0.00590    0.26189
 12 Li    0.00068   -0.01251    0.30929
 13 Li    0.02021    0.00316    0.25292
 14 Li   -0.02037    0.00820    0.25644
 15 Li   -0.00048   -0.00733    0.23524
 16 Li   -0.02558    0.00054    0.26949
 17 Li    0.02664   -0.00270    0.25879
 18 Li    0.05726    0.00196   -0.06641
 19 Li    0.00423   -0.00013    0.05471
 20 Li   -0.05711    0.00403   -0.08728
 21 Li   -0.01805   -0.02008    0.04954
 22 Li    0.00062    0.00833    0.03048
 23 Li    0.01771   -0.01911    0.05016
 24 Li   -0.02431    0.01538    0.04830
 25 Li    0.00315   -0.00506    0.03070
 26 Li    0.02163    0.01077    0.04576
 27 Li   -0.00821    0.25689    0.19730
 28 Li    0.03591   -0.01271   -0.03902
 29 Li   -0.04073   -0.02131   -0.03420
 30 Li    0.00780   -0.13002    0.11298
 31 Li    0.03595    0.01175   -0.04297
 32 Li   -0.04431    0.02429   -0.03671
 33 Li   -0.00017    0.00353   -0.03253
 34 Li   -0.00710    0.00243   -0.01478
 35 Li    0.00681    0.00243   -0.02078
 36 O     0.43418   -3.98820   12.33985
 37 C    -0.88539   -0.38169    0.50926
 38 H     0.16503   -0.10288    0.14099
 39 H     0.54437   -0.10221    1.00364
 40 H     0.22916    0.41460   -0.01178
 41 H     0.37407    0.24774    1.14442
 42 N    -0.71789   -2.86737    1.86519
 43 N    -0.16408    6.64446  -17.20429

System changes: positions 

Initializing position-dependent things.

Density initialized from wave functions
       .-----------------------.  
      /|                       |  
     / |                       |  
    /  |                       |  
   /   |                       |  
  /    |                       |  
 *     |                       |  
 |     |                       |  
 |     |                       |  
 |     |                       |  
 |     |                       |  
 |     |                       |  
 |    H|                       |  
 |     H                  O    |  
 |    C|       Li      LiH     |  
 |    H|                  N    |  
 |   Li|     Li      Li        |  
 |     |  Li      Li      Ni   |  
 | Li  |   Li      Li          |  
 |     |Li      Li      Li     |  
 |     |                 Li    |  
 |   LLi     LLi     LLi       |  
 |     |  Li      Li      Li   |  
 | Li  |   Li      Li          |  
 |     |Li      Li      Li     |  
 Li    | Li      Li            |  
 |    Li      Li      Li       |  
 |     |                       |  
 |     |                       |  
 |     |                       |  
 |     |                       |  
 |     |                       |  
 |     |                       |  
 |     .-----------------------.  
 |    /                       /   
 |   /                       /    
 |  /                       /     
 | /                       /      
 |/                       /       
 *-----------------------*        

Positions:
   0 Li     1.617037    1.617037   10.000000    ( 0.0000,  0.0000,  0.0000)
   1 Li     4.851111    1.617037   10.000000    ( 0.0000,  0.0000,  0.0000)
   2 Li     8.085185    1.617037   10.000000    ( 0.0000,  0.0000,  0.0000)
   3 Li     1.617037    4.851111   10.000000    ( 0.0000,  0.0000,  0.0000)
   4 Li     4.851111    4.851111   10.000000    ( 0.0000,  0.0000,  0.0000)
   5 Li     8.085185    4.851111   10.000000    ( 0.0000,  0.0000,  0.0000)
   6 Li     1.617037    8.085185   10.000000    ( 0.0000,  0.0000,  0.0000)
   7 Li     4.851111    8.085185   10.000000    ( 0.0000,  0.0000,  0.0000)
   8 Li     8.085185    8.085185   10.000000    ( 0.0000,  0.0000,  0.0000)
   9 Li     0.000000    0.000000   11.617037    ( 0.0000,  0.0000,  0.0000)
  10 Li     3.234074    0.000000   11.617037    ( 0.0000,  0.0000,  0.0000)
  11 Li     6.468148    0.000000   11.617037    ( 0.0000,  0.0000,  0.0000)
  12 Li     0.000000    3.234074   11.617037    ( 0.0000,  0.0000,  0.0000)
  13 Li     3.234074    3.234074   11.617037    ( 0.0000,  0.0000,  0.0000)
  14 Li     6.468148    3.234074   11.617037    ( 0.0000,  0.0000,  0.0000)
  15 Li     0.000000    6.468148   11.617037    ( 0.0000,  0.0000,  0.0000)
  16 Li     3.234074    6.468148   11.617037    ( 0.0000,  0.0000,  0.0000)
  17 Li     6.468148    6.468148   11.617037    ( 0.0000,  0.0000,  0.0000)
  18 Li     1.618634    1.616989   13.467800    ( 0.0000,  0.0000,  0.0000)
  19 Li     4.851197    1.617022   13.471006    ( 0.0000,  0.0000,  0.0000)
  20 Li     8.083674    1.617200   13.467332    ( 0.0000,  0.0000,  0.0000)
  21 Li     1.616720    4.850798   13.470697    ( 0.0000,  0.0000,  0.0000)
  22 Li     4.851051    4.851117   13.470727    ( 0.0000,  0.0000,  0.0000)
  23 Li     8.085585    4.850749   13.471045    ( 0.0000,  0.0000,  0.0000)
  24 Li     1.616532    8.085598   13.470912    ( 0.0000,  0.0000,  0.0000)
  25 Li     4.851304    8.085255   13.470789    ( 0.0000,  0.0000,  0.0000)
  26 Li     8.085547    8.085220   13.470375    ( 0.0000,  0.0000,  0.0000)
  27 Li    -0.000785    0.008857   15.455105    ( 0.0000,  0.0000,  0.0000)
  28 Li     3.234662   -0.000195   15.445213    ( 0.0000,  0.0000,  0.0000)
  29 Li     6.468004   -0.000064   15.446077    ( 0.0000,  0.0000,  0.0000)
  30 Li     0.000862    3.227374   15.453105    ( 0.0000,  0.0000,  0.0000)
  31 Li     3.234091    3.233950   15.445470    ( 0.0000,  0.0000,  0.0000)
  32 Li     6.467567    3.234491   15.445585    ( 0.0000,  0.0000,  0.0000)
  33 Li     0.000048    6.468158   15.445768    ( 0.0000,  0.0000,  0.0000)
  34 Li     3.234241    6.468331   15.445589    ( 0.0000,  0.0000,  0.0000)
  35 Li     6.467900    6.468001   15.445399    ( 0.0000,  0.0000,  0.0000)
  36 O     -0.007708    1.599880   19.767123    ( 0.0000,  0.0000,  0.0000)
  37 C      1.526492    1.611018   19.682371    ( 0.0000,  0.0000,  0.0000)
  38 H      1.831461    0.849975   18.971128    ( 0.0000,  0.0000,  0.0000)
  39 H      1.827513    1.419252   20.674022    ( 0.0000,  0.0000,  0.0000)
  40 H      1.750659    2.593133   19.318656    ( 0.0000,  0.0000,  0.0000)
  41 H     -0.343384    0.686115   20.002848    ( 0.0000,  0.0000,  0.0000)
  42 N     -0.021443    1.571936   17.023981    ( 0.0000,  0.0000,  0.0000)
  43 N     -0.029698    1.733821   18.205002    ( 0.0000,  0.0000,  0.0000)

Unit cell:
           periodic     x           y           z      points  spacing
  1. axis:    yes    9.702222    0.000000    0.000000    60     0.1617
  2. axis:    yes    0.000000    9.702222    0.000000    60     0.1617
  3. axis:    no     0.000000    0.000000   26.601111   168     0.1583

  Lengths:   9.702222   9.702222  26.601111
  Angles:   90.000000  90.000000  90.000000

Effective grid spacing dv^(1/3) = 0.1606

     iter     time        total  log10-change:
                         energy  eigst   dens
iter:   1 12:06:29  -277.234381  -0.90
iter:   2 12:06:36  -277.230975  -1.50  -2.12
iter:   3 12:06:43  -277.222800c -1.42  -2.23
iter:   4 12:06:50  -277.222753c -1.93  -2.30
Writing to output.gpw (mode='')

iter:   5 12:06:57  -277.222271c -2.02  -2.43
iter:   6 12:07:04  -277.221911c -2.15  -2.47
iter:   7 12:07:11  -277.221949c -2.47  -2.55
iter:   8 12:07:18  -277.221936c -2.76  -2.70
iter:   9 12:07:25  -277.221873c -3.31  -2.81
Writing to output.gpw (mode='')

iter:  10 12:07:33  -277.221803c -3.50  -2.86
iter:  11 12:07:40  -277.221702c -3.08  -2.89
iter:  12 12:07:47  -277.221718c -3.70  -3.20
iter:  13 12:07:54  -277.221729c -4.02  -3.24
iter:  14 12:08:01  -277.221737c -4.15  -3.23
Writing to output.gpw (mode='')

iter:  15 12:08:08  -277.221735c -4.34  -3.22
iter:  16 12:08:15  -277.221733c -4.34  -3.23
iter:  17 12:08:22  -277.221741c -4.52  -3.22
iter:  18 12:08:29  -277.221731c -4.08  -3.21
iter:  19 12:08:37  -277.221725c -4.70  -3.26
Writing to output.gpw (mode='')

iter:  20 12:08:44  -277.221745c -4.43  -3.26
iter:  21 12:08:51  -277.221746c -4.68  -3.26
iter:  22 12:08:58  -277.221744c -4.70  -3.25
iter:  23 12:09:08  -277.221730c -4.82  -3.27
iter:  24 12:09:15  -277.221719c -4.24  -3.32
Writing to output.gpw (mode='')

iter:  25 12:09:22  -277.221710c -4.83  -3.44
iter:  26 12:09:29  -277.221712c -5.12  -3.53
iter:  27 12:09:42  -277.221718c -4.91  -3.62
iter:  28 12:09:49  -277.221721c -4.99  -3.86
iter:  29 12:09:56  -277.221722c -5.23  -3.88
Writing to output.gpw (mode='')

iter:  30 12:10:04  -277.221721c -5.26  -3.93
iter:  31 12:10:11  -277.221722c -5.26  -4.08c
iter:  32 12:10:18  -277.221718c -6.05  -4.10c
iter:  33 12:10:25  -277.221717c -6.23  -4.28c
iter:  34 12:10:32  -277.221717c -6.11  -4.38c
Writing to output.gpw (mode='')

iter:  35 12:10:39  -277.221717c -6.46  -4.44c
iter:  36 12:10:46  -277.221717c -6.62  -4.54c
iter:  37 12:10:54  -277.221717c -6.62  -4.59c
iter:  38 12:11:01  -277.221716c -6.70  -4.68c
iter:  39 12:11:08  -277.221717c -6.90  -4.90c
Writing to output.gpw (mode='')

iter:  40 12:11:15  -277.221717c -7.00  -5.01c
iter:  41 12:11:22  -277.221716c -7.04  -5.06c
iter:  42 12:11:29  -277.221716c -7.29  -5.33c
iter:  43 12:11:37  -277.221716c -7.29  -5.37c
iter:  44 12:11:44  -277.221716c -7.43c -5.36c

Converged after 44 iterations.

Dipole moment: (-7.588598, -4.631248, 0.307949) |e|*Ang

Energy contributions relative to reference atoms: (reference = -13382.245603)

Kinetic:       +144.155952
Potential:     -132.573464
External:        +0.000000
XC:            -289.390535
Entropy (-ST):   -0.141866
Local:           +0.657264
--------------------------
Free energy:   -277.292649
Extrapolated:  -277.221716

Dipole-layer corrected work functions: 3.386112, 2.794128 eV

Showing only first 2 kpts
 Kpt  Band  Eigenvalues  Occupancy
  0    28     -3.33346    1.98472
  0    29     -3.21894    1.85865
  0    30     -2.94186    0.09804
  0    31     -2.83412    0.01188

  1    28     -3.14752    1.51832
  1    29     -3.08814    0.98021
  1    30     -3.06256    0.73115
  1    31     -2.97105    0.16922


Fermi level: -3.09012

No gap
Writing to output.gpw (mode='')


Forces in eV/Ang:
  0 Li    0.01391    0.00138   -0.27314
  1 Li   -0.00385   -0.00032   -0.26040
  2 Li   -0.01082    0.00171   -0.27033
  3 Li    0.00304    0.00851   -0.27181
  4 Li    0.00072    0.00189   -0.28450
  5 Li   -0.00396    0.01295   -0.27106
  6 Li    0.00337   -0.00890   -0.27323
  7 Li    0.00062   -0.00480   -0.28098
  8 Li   -0.00437   -0.01333   -0.27235
  9 Li   -0.00043    0.01407    0.31990
 10 Li    0.01742   -0.00360    0.25610
 11 Li   -0.01651   -0.00573    0.26076
 12 Li    0.00063   -0.01256    0.31064
 13 Li    0.02023    0.00375    0.25292
 14 Li   -0.02062    0.00772    0.25595
 15 Li   -0.00049   -0.00686    0.23400
 16 Li   -0.02550   -0.00016    0.26946
 17 Li    0.02672   -0.00234    0.25988
 18 Li    0.05655    0.00233   -0.06851
 19 Li    0.00376    0.00029    0.05473
 20 Li   -0.05716    0.00351   -0.08628
 21 Li   -0.01850   -0.02034    0.04925
 22 Li    0.00072    0.00821    0.03073
 23 Li    0.01827   -0.01999    0.04911
 24 Li   -0.02437    0.01502    0.04767
 25 Li    0.00243   -0.00532    0.02949
 26 Li    0.02250    0.01244    0.04727
 27 Li   -0.00287    0.27661    0.22794
 28 Li    0.03775   -0.01313   -0.03977
 29 Li   -0.04203   -0.02077   -0.03600
 30 Li    0.00679   -0.13745    0.13699
 31 Li    0.03969    0.01279   -0.04533
 32 Li   -0.04590    0.02259   -0.03789
 33 Li    0.00035    0.00424   -0.03515
 34 Li   -0.00684    0.00242   -0.01518
 35 Li    0.00596    0.00322   -0.02085
 36 O     0.72419   -4.28652   10.81025
 37 C    -1.36672   -0.50636    0.35559
 38 H     0.24527   -0.10807    0.13349
 39 H     0.66898   -0.09944    1.04457
 40 H     0.22763    0.40920    0.01428
 41 H     0.57703    0.44246    0.96258
 42 N    -0.49473   -2.74030    2.95740
 43 N    -0.61026    6.67063  -16.51147

System changes: positions 

Initializing position-dependent things.

Density initialized from wave functions
       .-----------------------.  
      /|                       |  
     / |                       |  
    /  |                       |  
   /   |                       |  
  /    |                       |  
 *     |                       |  
 |     |                       |  
 |     |                       |  
 |     |                       |  
 |     |                       |  
 |     |                       |  
 |    H|                       |  
 |     H                  O    |  
 |    C|       Li      LiH     |  
 |    H|                  N    |  
 |   Li|     Li      Li        |  
 |     |  Li      Li      Ni   |  
 | Li  |   Li      Li          |  
 |     |Li      Li      Li     |  
 |     |                 Li    |  
 |   LLi     LLi     LLi       |  
 |     |  Li      Li      Li   |  
 | Li  |   Li      Li          |  
 |     |Li      Li      Li     |  
 Li    | Li      Li            |  
 |    Li      Li      Li       |  
 |     |                       |  
 |     |                       |  
 |     |                       |  
 |     |                       |  
 |     |                       |  
 |     |                       |  
 |     .-----------------------.  
 |    /                       /   
 |   /                       /    
 |  /                       /     
 | /                       /      
 |/                       /       
 *-----------------------*        

Positions:
   0 Li     1.617037    1.617037   10.000000    ( 0.0000,  0.0000,  0.0000)
   1 Li     4.851111    1.617037   10.000000    ( 0.0000,  0.0000,  0.0000)
[...]

iter:  10 17:33:38  -283.217907c -5.28  -3.89
iter:  11 17:33:45  -283.217903c -5.95  -4.10c
iter:  12 17:33:53  -283.217895c -5.77  -4.14c
iter:  13 17:34:00  -283.217899c -6.45  -4.41c
iter:  14 17:34:07  -283.217899c -6.74  -4.67c
Writing to output.gpw (mode='')

iter:  15 17:34:14  -283.217898c -6.53  -4.69c
iter:  16 17:34:21  -283.217900c -6.87  -4.69c
iter:  17 17:34:28  -283.217900c -7.12  -4.81c
iter:  18 17:34:40  -283.217899c -7.16  -4.97c
iter:  19 17:34:48  -283.217899c -7.54c -5.13c

Converged after 19 iterations.

Dipole moment: (-8.646908, -4.541950, -0.045735) |e|*Ang

Energy contributions relative to reference atoms: (reference = -13382.245603)

Kinetic:       +132.629652
Potential:     -126.036839
External:        +0.000000
XC:            -290.444189
Entropy (-ST):   -0.143096
Local:           +0.705024
--------------------------
Free energy:   -283.289447
Extrapolated:  -283.217899

Dipole-layer corrected work functions: 3.399928, 3.487846 eV

Showing only first 2 kpts
 Kpt  Band  Eigenvalues  Occupancy
  0    28     -3.69063    1.98572
  0    29     -3.63476    1.95698
  0    30     -3.30832    0.12461
  0    31     -3.21642    0.02093

  1    28     -3.50348    1.53413
  1    29     -3.42755    0.83809
  1    30     -3.39978    0.58551
  1    31     -3.31060    0.13005


Fermi level: -3.44389

No gap
Writing to output.gpw (mode='')


Forces in eV/Ang:
  0 Li    0.02552   -0.00120   -0.27041
  1 Li   -0.01846   -0.00222   -0.27167
  2 Li   -0.01141   -0.00398   -0.26453
  3 Li    0.00070    0.01169   -0.28061
  4 Li   -0.00372   -0.00102   -0.27869
  5 Li    0.00525    0.02413   -0.27530
  6 Li    0.00203   -0.00914   -0.27537
  7 Li   -0.00480    0.00024   -0.28855
  8 Li    0.00629   -0.02252   -0.26512
  9 Li    0.01346   -0.02301    0.27071
 10 Li    0.01538    0.00311    0.26944
 11 Li   -0.01644   -0.03212    0.27062
 12 Li    0.00991    0.00462    0.30817
 13 Li    0.01533    0.00018    0.26686
 14 Li   -0.00951    0.02441    0.28442
 15 Li    0.00106    0.01816    0.23135
 16 Li   -0.04486    0.00168    0.28021
 17 Li    0.03905    0.02103    0.26412
 18 Li   -0.00120   -0.00342   -0.00205
 19 Li   -0.00429   -0.00150    0.00505
 20 Li   -0.00440    0.00178    0.01098
 21 Li   -0.00107    0.00234    0.00234
 22 Li   -0.00263   -0.00866    0.00404
 23 Li    0.00129    0.00271    0.00668
 24 Li   -0.00363    0.00957    0.00599
 25 Li   -0.00252   -0.00242    0.00262
 26 Li    0.00081    0.00589    0.00645
 27 Li    0.01192   -0.02497   -0.01673
 28 Li   -0.01222    0.00120   -0.00403
 29 Li   -0.00176    0.00278   -0.00495
 30 Li   -0.00863    0.00132    0.00122
 31 Li    0.00114    0.00071    0.00971
 32 Li    0.00269   -0.00172   -0.00191
 33 Li    0.00221    0.01766   -0.01182
 34 Li    0.00325   -0.00136   -0.00078
 35 Li   -0.00421   -0.00323    0.00490
 36 O     0.01567   -0.06338    0.00271
 37 C     0.04099    0.01400    0.01555
 38 H    -0.01733    0.01631   -0.00686
 39 H    -0.00951    0.01442    0.02751
 40 H     0.02205    0.00721   -0.02184
 41 H    -0.02230   -0.01252    0.02007
 42 N     0.01648   -0.01957   -0.02420
 43 N    -0.04140    0.02141    0.02558

System changes: positions 

Initializing position-dependent things.

Density initialized from wave functions
       .-----------------------.  
      /|                       |  
     / |                       |  
    /  |                       |  
   /   |                       |  
  /    |                       |  
 *     |                       |  
 |     |                       |  
 |     |                       |  
 |     |                       |  
 |     |                       |  
 |     |                       |  
 |     |                       |  
 |H   CHH                      |  
 |     |               Li      |  
 |    H|                       |  
 |     |     Li      Li N    Li|  
 |     |  Li      Li     NLi   |  
 | Li  |   Li      Li          |  
 |     |Li      Li      Li     |  
 Li    | Li                    |  
 |   LLi     LLi     LLi       |  
 |     |  Li      Li      Li   |  
 | Li  |   Li      Li          |  
 |     |Li      Li      Li     |  
 Li    | Li      Li            |  
 |    Li      Li      Li       |  
 |     |                       |  
 |     |                       |  
 |     |                       |  
 |     |                       |  
 |     |                       |  
 |     |                       |  
 |     .-----------------------.  
 |    /                       /   
 |   /                       /    
 |  /                       /     
 | /                       /      
 |/                       /       
 *-----------------------*        

Positions:
   0 Li     1.617037    1.617037   10.000000    ( 0.0000,  0.0000,  0.0000)
   1 Li     4.851111    1.617037   10.000000    ( 0.0000,  0.0000,  0.0000)
   2 Li     8.085185    1.617037   10.000000    ( 0.0000,  0.0000,  0.0000)
   3 Li     1.617037    4.851111   10.000000    ( 0.0000,  0.0000,  0.0000)
   4 Li     4.851111    4.851111   10.000000    ( 0.0000,  0.0000,  0.0000)
   5 Li     8.085185    4.851111   10.000000    ( 0.0000,  0.0000,  0.0000)
   6 Li     1.617037    8.085185   10.000000    ( 0.0000,  0.0000,  0.0000)
   7 Li     4.851111    8.085185   10.000000    ( 0.0000,  0.0000,  0.0000)
   8 Li     8.085185    8.085185   10.000000    ( 0.0000,  0.0000,  0.0000)
   9 Li     0.000000    0.000000   11.617037    ( 0.0000,  0.0000,  0.0000)
  10 Li     3.234074    0.000000   11.617037    ( 0.0000,  0.0000,  0.0000)
  11 Li     6.468148    0.000000   11.617037    ( 0.0000,  0.0000,  0.0000)
  12 Li     0.000000    3.234074   11.617037    ( 0.0000,  0.0000,  0.0000)
  13 Li     3.234074    3.234074   11.617037    ( 0.0000,  0.0000,  0.0000)
  14 Li     6.468148    3.234074   11.617037    ( 0.0000,  0.0000,  0.0000)
  15 Li     0.000000    6.468148   11.617037    ( 0.0000,  0.0000,  0.0000)
  16 Li     3.234074    6.468148   11.617037    ( 0.0000,  0.0000,  0.0000)
  17 Li     6.468148    6.468148   11.617037    ( 0.0000,  0.0000,  0.0000)
  18 Li     1.606523    1.610263   13.473997    ( 0.0000,  0.0000,  0.0000)
  19 Li     4.879171    1.622101   13.469279    ( 0.0000,  0.0000,  0.0000)
  20 Li     8.094488    1.607393   13.402489    ( 0.0000,  0.0000,  0.0000)
  21 Li     1.592971    4.845316   13.495689    ( 0.0000,  0.0000,  0.0000)
  22 Li     4.853927    4.880968   13.464059    ( 0.0000,  0.0000,  0.0000)
  23 Li     8.105722    4.855032   13.474768    ( 0.0000,  0.0000,  0.0000)
  24 Li     1.586362    8.098998   13.525342    ( 0.0000,  0.0000,  0.0000)
  25 Li     4.843623    8.069929   13.459255    ( 0.0000,  0.0000,  0.0000)
  26 Li     8.117536    8.103963   13.507940    ( 0.0000,  0.0000,  0.0000)
  27 Li     0.009549    0.058025   15.586072    ( 0.0000,  0.0000,  0.0000)
  28 Li     3.275212    0.009640   15.404699    ( 0.0000,  0.0000,  0.0000)
  29 Li     6.414265   -0.054391   15.393038    ( 0.0000,  0.0000,  0.0000)
  30 Li     0.043106    3.241892   15.474024    ( 0.0000,  0.0000,  0.0000)
  31 Li     3.272713    3.227499   15.358541    ( 0.0000,  0.0000,  0.0000)
  32 Li     6.405479    3.305164   15.404282    ( 0.0000,  0.0000,  0.0000)
  33 Li    -0.015088    6.451880   15.485331    ( 0.0000,  0.0000,  0.0000)
  34 Li     3.233017    6.464648   15.438976    ( 0.0000,  0.0000,  0.0000)
  35 Li     6.482636    6.482409   15.414468    ( 0.0000,  0.0000,  0.0000)
  36 O      0.257325    1.309461   20.347125    ( 0.0000,  0.0000,  0.0000)
  37 C      1.574604    1.526796   19.831884    ( 0.0000,  0.0000,  0.0000)
  38 H      1.748242    0.984779   18.892511    ( 0.0000,  0.0000,  0.0000)
  39 H      2.347689    1.238152   20.552750    ( 0.0000,  0.0000,  0.0000)
  40 H      1.655866    2.596244   19.637935    ( 0.0000,  0.0000,  0.0000)
  41 H      0.161345    0.369409   20.532323    ( 0.0000,  0.0000,  0.0000)
  42 N     -0.501892    1.513195   16.838869    ( 0.0000,  0.0000,  0.0000)
  43 N     -0.822369    2.453057   17.392613    ( 0.0000,  0.0000,  0.0000)

Unit cell:
           periodic     x           y           z      points  spacing
  1. axis:    yes    9.702222    0.000000    0.000000    60     0.1617
  2. axis:    yes    0.000000    9.702222    0.000000    60     0.1617
  3. axis:    no     0.000000    0.000000   26.601111   168     0.1583

  Lengths:   9.702222   9.702222  26.601111
  Angles:   90.000000  90.000000  90.000000

Effective grid spacing dv^(1/3) = 0.1606

     iter     time        total  log10-change:
                         energy  eigst   dens
iter:   1 17:34:56  -283.218898  -1.59
iter:   2 17:35:04  -283.219199  -2.42  -2.53
iter:   3 17:35:11  -283.219245c -2.93  -2.65
iter:   4 17:35:18  -283.218883c -3.28  -2.70
Writing to output.gpw (mode='')

iter:   5 17:35:25  -283.218408c -2.93  -2.84
iter:   6 17:35:32  -283.218159c -3.02  -2.91
iter:   7 17:35:39  -283.218218c -3.46  -3.16
iter:   8 17:35:46  -283.218199c -4.01  -3.17
iter:   9 17:35:53  -283.218182c -4.45  -3.36
Writing to output.gpw (mode='')

iter:  10 17:36:01  -283.218190c -4.34  -3.53
iter:  11 17:36:08  -283.218190c -4.85  -3.65
iter:  12 17:36:15  -283.218164c -4.83  -3.68
iter:  13 17:36:22  -283.218165c -5.15  -3.93
iter:  14 17:36:29  -283.218177c -5.47  -3.92
Writing to output.gpw (mode='')

iter:  15 17:36:36  -283.218174c -6.12  -4.19c
iter:  16 17:36:43  -283.218174c -5.84  -4.23c
iter:  17 17:36:51  -283.218174c -6.39  -4.45c
iter:  18 17:36:58  -283.218174c -6.33  -4.49c
iter:  19 17:37:05  -283.218173c -6.28  -4.56c
Writing to output.gpw (mode='')

iter:  20 17:37:12  -283.218173c -6.68  -4.60c
iter:  21 17:37:19  -283.218173c -6.87  -4.67c
iter:  22 17:37:26  -283.218175c -6.70  -4.72c
iter:  23 17:37:33  -283.218174c -7.14  -4.84c
iter:  24 17:37:40  -283.218174c -7.26  -4.94c
Writing to output.gpw (mode='')

iter:  25 17:37:48  -283.218174c -7.14  -4.97c
iter:  26 17:37:55  -283.218174c -7.45c -5.02c

Converged after 26 iterations.

Dipole moment: (-8.789327, -4.584704, -0.046731) |e|*Ang

Energy contributions relative to reference atoms: (reference = -13382.245603)

Kinetic:       +132.472810
Potential:     -125.918963
External:        +0.000000
XC:            -290.405468
Entropy (-ST):   -0.143043
Local:           +0.704969
--------------------------
Free energy:   -283.289695
Extrapolated:  -283.218174

Dipole-layer corrected work functions: 3.399917, 3.489750 eV

Showing only first 2 kpts
 Kpt  Band  Eigenvalues  Occupancy
  0    28     -3.69154    1.98571
  0    29     -3.63557    1.95686
  0    30     -3.30919    0.12443
  0    31     -3.21722    0.02087

  1    28     -3.50428    1.53308
  1    29     -3.42826    0.83580
  1    30     -3.40110    0.58858
  1    31     -3.31112    0.12902


Fermi level: -3.44483

No gap
Writing to output.gpw (mode='')


Forces in eV/Ang:
  0 Li    0.02556   -0.00122   -0.27042
  1 Li   -0.01861   -0.00202   -0.27165
  2 Li   -0.01120   -0.00406   -0.26474
  3 Li    0.00078    0.01149   -0.28072
  4 Li   -0.00370   -0.00102   -0.27893
  5 Li    0.00528    0.02410   -0.27529
  6 Li    0.00220   -0.00910   -0.27556
  7 Li   -0.00486    0.00013   -0.28844
  8 Li    0.00626   -0.02275   -0.26506
  9 Li    0.01350   -0.02248    0.27208
 10 Li    0.01511    0.00412    0.26964
 11 Li   -0.01731   -0.03205    0.27090
 12 Li    0.00999    0.00597    0.30812
 13 Li    0.01447    0.00072    0.26694
 14 Li   -0.00940    0.02567    0.28460
 15 Li    0.00129    0.01866    0.23166
 16 Li   -0.04485    0.00055    0.28048
 17 Li    0.03821    0.02058    0.26387
 18 Li   -0.00078   -0.00611   -0.00433
 19 Li   -0.00478   -0.00248    0.00446
 20 Li   -0.00361   -0.00046    0.01227
 21 Li    0.00134    0.00290   -0.00139
 22 Li   -0.00262   -0.00787    0.00310
 23 Li   -0.00066    0.00174    0.00427
 24 Li   -0.00642    0.00994    0.00694
 25 Li   -0.00191   -0.00145    0.00194
 26 Li    0.00351    0.00697    0.00722
 27 Li    0.01050   -0.02878   -0.01899
 28 Li   -0.00999    0.00042   -0.00401
 29 Li   -0.00144    0.00320   -0.00402
 30 Li   -0.01281   -0.00425    0.01151
 31 Li    0.00055    0.00095    0.01040
 32 Li    0.00444   -0.00242   -0.00051
 33 Li    0.00266    0.01741   -0.01121
 34 Li    0.00212   -0.00052    0.00061
 35 Li   -0.00383   -0.00242    0.00476
 36 O     0.02182   -0.01205   -0.03110
 37 C     0.01618   -0.00859    0.01678
 38 H    -0.02155    0.03098    0.02365
 39 H    -0.00209    0.01556    0.00178
 40 H     0.01129   -0.01242   -0.01397
 41 H    -0.01148   -0.03164    0.00601
 42 N     0.03455    0.02944   -0.00593
 43 N    -0.01375   -0.02187    0.03637

Timing:                                      incl.     excl.
-------------------------------------------------------------------
Density initialized from wave functions:     4.231     4.229   0.0% |
 Symmetrize density:                         0.002     0.002   0.0% |
Forces:                                     29.839    29.839   0.1% |
Hamiltonian:                               468.850     0.011   0.0% |
 Atomic:                                     0.018     0.018   0.0% |
  XC Correction:                             0.000     0.000   0.0% |
 Calculate atomic Hamiltonians:              0.031     0.031   0.0% |
 Communicate:                                7.387     7.387   0.0% |
 Hartree integrate/restrict:                 1.697     1.697   0.0% |
 Initialize Hamiltonian:                     0.000     0.000   0.0% |
 Poisson:                                   21.885     8.408   0.0% |
  Communicate from 1D:                       2.131     2.131   0.0% |
  Communicate from 2D:                       2.113     2.113   0.0% |
  Communicate to 1D:                         1.215     1.215   0.0% |
  Communicate to 2D:                         2.556     2.556   0.0% |
  FFT 1D:                                    2.730     2.730   0.0% |
  FFT 2D:                                    2.732     2.732   0.0% |
 XC 3D grid:                               437.446    69.219   0.3% |
  VdW-DF integral:                         368.227     3.007   0.0% |
   Convolution:                             33.418    33.418   0.1% |
   FFT:                                     14.068    14.068   0.1% |
   gather:                                 126.174   126.174   0.6% |
   hmm1:                                    11.841    11.841   0.1% |
   hmm2:                                    15.742    15.742   0.1% |
   iFFT:                                    14.825    14.825   0.1% |
   potential:                              145.517     3.847   0.0% |
    collect:                                22.943    22.943   0.1% |
    p1:                                     64.857    64.857   0.3% |
    p2:                                     23.609    23.609   0.1% |
    sum:                                    30.262    30.262   0.1% |
   splines:                                  3.634     3.634   0.0% |
 vbar:                                       0.375     0.375   0.0% |
LCAO initialization:                         1.042     0.185   0.0% |
 LCAO eigensolver:                           0.176     0.000   0.0% |
  Calculate projections:                     0.000     0.000   0.0% |
  DenseAtomicCorrection:                     0.000     0.000   0.0% |
  Distribute overlap matrix:                 0.159     0.159   0.0% |
  Orbital Layouts:                           0.015     0.015   0.0% |
  Potential matrix:                          0.001     0.001   0.0% |
  Sum over cells:                            0.001     0.001   0.0% |
 LCAO to grid:                               0.583     0.583   0.0% |
 Set positions (LCAO WFS):                   0.099     0.060   0.0% |
  Basic WFS set positions:                   0.001     0.001   0.0% |
  Basis functions set positions:             0.000     0.000   0.0% |
  P tci:                                     0.000     0.000   0.0% |
  ST tci:                                    0.011     0.011   0.0% |
  mktci:                                     0.026     0.026   0.0% |
Redistribute:                                0.049     0.049   0.0% |
SCF-cycle:                               22188.231   306.981   1.3% ||
 Davidson:                                5222.281  1566.435   6.9% |--|
  Apply hamiltonian:                       336.534   336.534   1.5% ||
  Subspace diag:                          1005.969     0.417   0.0% |
   calc_h_matrix:                          491.686   137.163   0.6% |
    Apply hamiltonian:                     354.523   354.523   1.6% ||
   diagonalize:                             64.728    64.728   0.3% |
   rotate_psi:                             449.139   449.139   2.0% ||
  calc. matrices:                         1602.451   806.627   3.5% ||
   Apply hamiltonian:                      795.824   795.824   3.5% ||
  diagonalize:                              12.492    12.492   0.1% |
  rotate_psi:                              698.399   698.399   3.1% ||
 Density:                                  111.773     0.075   0.0% |
  Atomic density matrices:                  12.633    12.633   0.1% |
  Mix:                                      54.973    54.973   0.2% |
  Multipole moments:                         3.662     3.662   0.0% |
  Pseudo density:                           40.431    40.372   0.2% |
   Symmetrize density:                       0.059     0.059   0.0% |
 Hamiltonian:                            16533.813     0.505   0.0% |
  Atomic:                                    0.914     0.907   0.0% |
   XC Correction:                            0.008     0.008   0.0% |
  Calculate atomic Hamiltonians:             1.139     1.139   0.0% |
  Communicate:                             214.588   214.588   0.9% |
  Hartree integrate/restrict:               65.730    65.730   0.3% |
  Poisson:                                 805.738   298.782   1.3% ||
   Communicate from 1D:                     79.564    79.564   0.3% |
   Communicate from 2D:                     82.466    82.466   0.4% |
   Communicate to 1D:                       45.589    45.589   0.2% |
   Communicate to 2D:                       99.395    99.395   0.4% |
   FFT 1D:                                 101.610   101.610   0.4% |
   FFT 2D:                                  98.332    98.332   0.4% |
  XC 3D grid:                            15430.994  2449.198  10.8% |---|
   VdW-DF integral:                      12981.796   109.979   0.5% |
    Convolution:                          1188.190  1188.190   5.2% |-|
    FFT:                                   510.562   510.562   2.2% ||
    gather:                               4493.124  4493.124  19.7% |-------|
    hmm1:                                  429.964   429.964   1.9% ||
    hmm2:                                  565.204   565.204   2.5% ||
    iFFT:                                  531.100   531.100   2.3% ||
    potential:                            5153.646   141.747   0.6% |
     collect:                              820.858   820.858   3.6% ||
     p1:                                  2337.589  2337.589  10.3% |---|
     p2:                                   860.654   860.654   3.8% |-|
     sum:                                  992.799   992.799   4.4% |-|
    splines:                                 0.027     0.027   0.0% |
  vbar:                                     14.204    14.204   0.1% |
 Orthonormalize:                            13.382     0.011   0.0% |
  calc_s_matrix:                             1.765     1.765   0.0% |
  inverse-cholesky:                          4.283     4.283   0.0% |
  projections:                               0.002     0.002   0.0% |
  rotate_psi_s:                              7.322     7.322   0.0% |
Set symmetry:                                0.002     0.002   0.0% |
Other:                                      70.593    70.593   0.3% |
-------------------------------------------------------------------
Total:                                             22762.836 100.0%

Memory usage: 1.13 GiB
Date: Fri Mar 10 17:37:55 2023
