
  ___ ___ ___ _ _ _  
 |   |   |_  | | | | 
 | | | | | . | | | | 
 |__ |  _|___|_____|  22.8.0
 |___|_|             

User:   vazumah@c10.hercules
Date:   Thu Mar  2 01:08:54 2023
Arch:   x86_64
Pid:    21651
CWD:    /home/vazumah/Python_projects/LiNRR/Li_adsorb_studies/proton_donors/N2_with_proton_donor/Li_BCC_100/adsorbates/HBr/bridge/0.0_1.617/N2_x
Python: 3.10.8
gpaw:   /home/vazumah/.conda/envs/GPAW/lib/python3.10/site-packages/gpaw
_gpaw:  /home/vazumah/.conda/envs/GPAW/lib/python3.10/site-packages/
        _gpaw.cpython-310-x86_64-linux-gnu.so
ase:    /home/vazumah/.conda/envs/GPAW/lib/python3.10/site-packages/ase (version 3.22.1)
numpy:  /home/vazumah/.conda/envs/GPAW/lib/python3.10/site-packages/numpy (version 1.24.1)
scipy:  /home/vazumah/.conda/envs/GPAW/lib/python3.10/site-packages/scipy (version 1.10.0)
libxc:  5.2.3
units:  Angstrom and eV
cores: 24
OpenMP: True
OMP_NUM_THREADS: 1

Input parameters:
  h: 0.16
  kpts: {size: [4, 4, 1]}
  occupations: {name: fermi-dirac,
                width: 0.05}
  poissonsolver: {dipolelayer: xy}
  xc: BEEF-vdW

System changes: positions, numbers, cell, pbc, initial_charges, initial_magmoms 

Initialize ...

species:
  Li:
    name: Lithium
    id: 830b4218f175192f93f959cfc0aad614
    Z: 3.0
    valence: 1
    core: 2
    charge: 0.0
    file: /home/vazumah/.conda/envs/GPAW/share/gpaw/Li.PBE.gz
    compensation charges: {type: gauss,
                           rc: 0.33,
                           lmax: 2}
    cutoffs: {filter: 1.91,
              core: 2.55}
    valence states:
      #              energy  rcut
      - 2s(1.00)    -2.874   1.058
      - 2p(0.00)    -1.090   1.058
      -  s          24.337   1.058
  
    # Using partial waves for Li as LCAO basis

  Br:
    name: Bromine
    id: 39dc90fcf3bf77f2d83386b416c2c495
    Z: 35.0
    valence: 7
    core: 28
    charge: 0.0
    file: /home/vazumah/.conda/envs/GPAW/share/gpaw/Br.PBE.gz
    compensation charges: {type: gauss,
                           rc: 0.35,
                           lmax: 2}
    cutoffs: {filter: 1.98,
              core: 2.38}
    valence states:
      #              energy  rcut
      - 4s(2.00)   -20.121   1.111
      - 4p(5.00)    -7.861   1.111
      -  s           7.091   1.111
      -  p          19.351   1.111
      -  d           0.000   1.111
  
    # Using partial waves for Br as LCAO basis

  H:
    name: Hydrogen
    id: d65de229564ff8ea4db303e23b6d1ecf
    Z: 1.0
    valence: 1
    core: 0
    charge: 0.0
    file: /home/vazumah/.conda/envs/GPAW/share/gpaw/H.PBE.gz
    compensation charges: {type: gauss,
                           rc: 0.15,
                           lmax: 2}
    cutoffs: {filter: 0.85,
              core: 0.53}
    valence states:
      #              energy  rcut
      - 1s(1.00)    -6.494   0.476
      -  s          20.717   0.476
      -  p           0.000   0.476
  
    # Using partial waves for H as LCAO basis

  N:
    name: Nitrogen
    id: f7500608b86eaa90eef8b1d9a670dc53
    Z: 7.0
    valence: 5
    core: 2
    charge: 0.0
    file: /home/vazumah/.conda/envs/GPAW/share/gpaw/N.PBE.gz
    compensation charges: {type: gauss,
                           rc: 0.18,
                           lmax: 2}
    cutoffs: {filter: 1.11,
              core: 0.96}
    valence states:
      #              energy  rcut
      - 2s(2.00)   -18.583   0.603
      - 2p(3.00)    -7.089   0.529
      -  s           8.629   0.603
      -  p          20.123   0.529
      -  d           0.000   0.577
  
    # Using partial waves for N as LCAO basis

Reference energy: -81178.542429  # eV

Spin-paired calculation

Convergence criteria:
 Maximum [total energy] change in last 3 cyles: 0.0005 eV / electron
 Maximum integral of absolute [dens]ity change: 0.0001 electrons / valence electron
 Maximum integral of absolute [eigenst]ate change: 4e-08 eV^2 / valence electron
 Maximum number of scf [iter]ations: 333
 (Square brackets indicate name in SCF output, whereas a 'c' in
 the SCF output indicates the quantity has converged.)

Symmetries present (total): 1

  ( 1  0  0)
  ( 0  1  0)
  ( 0  0  1)

16 k-points: 4 x 4 x 1 Monkhorst-Pack grid
8 k-points in the irreducible part of the Brillouin zone
       k-points in crystal coordinates                weights
   0:     0.12500000   -0.37500000    0.00000000          2/16
   1:     0.12500000   -0.12500000    0.00000000          2/16
   2:     0.12500000    0.12500000    0.00000000          2/16
   3:     0.12500000    0.37500000    0.00000000          2/16
   4:     0.37500000   -0.37500000    0.00000000          2/16
   5:     0.37500000   -0.12500000    0.00000000          2/16
   6:     0.37500000    0.12500000    0.00000000          2/16
   7:     0.37500000    0.37500000    0.00000000          2/16

Wave functions: Uniform real-space grid
  Kinetic energy operator: 6*3+1=19 point O(h^6) finite-difference Laplacian
  ScaLapack parameters: grid=1x1, blocksize=None
  Wavefunction extrapolation:
    Improved wavefunction reuse through dual PAW basis 

Occupation numbers: Fermi-Dirac:
  width: 0.0500  # eV
 

Eigensolver
   Davidson(niter=2) 

Densities:
  Coarse grid: 60*60*168 grid
  Fine grid: 120*120*336 grid
  Total Charge: 0.000000 

Density mixing:
  Method: separate
  Backend: pulay
  Linear mixing parameter: 0.05
  old densities: 5
  Damping of long wavelength oscillations: 50 

Hamiltonian:
  XC and Coulomb potentials evaluated on a 120*120*336 grid
  Using the BEEF-vdW Exchange-Correlation functional
  Interpolation: tri-quintic (5. degree polynomial)
  Poisson solver: FastPoissonSolver using
    Stencil: 6*3+1=19 point O(h^6) finite-difference Laplacian
    FFT axes: [0, 1]
    FST axes: [2]

Dipole correction along z-axis 

XC parameters: BEEF-vdW with 2 nearest neighbor stencil

Memory estimate:
  Process memory now: 227.04 MiB
  Calculator: 395.41 MiB
    Density: 121.75 MiB
      Arrays: 39.61 MiB
      Localized functions: 67.04 MiB
      Mixer: 15.11 MiB
    Hamiltonian: 31.20 MiB
      Arrays: 25.90 MiB
      XC: 0.00 MiB
      Poisson: 0.00 MiB
      vbar: 5.30 MiB
    Wavefunctions: 242.46 MiB
      Arrays psit_nG: 111.79 MiB
      Eigensolver: 127.10 MiB
      Projections: 0.04 MiB
      Projectors: 3.53 MiB

Total number of cores used: 24
Parallelization over k-points: 8
Domain decomposition: 1 x 1 x 3

Number of atoms: 40
Number of atomic orbitals: 157
Number of bands in calculation: 37
Number of valence electrons: 54
Bands to converge: occupied

... initialized

Initializing position-dependent things.

Density initialized from atomic densities
Creating initial wave functions:
  37 bands from LCAO basis set

       .-----------------------.  
      /|                       |  
     / |                       |  
    /  |                       |  
   /   |                       |  
  /    |                       |  
 *     |                       |  
 |     |                       |  
 |     |                       |  
 |     |                       |  
 |     |                       |  
 |     |                       |  
 |     |                       |  
 |     |                       |  
 |Br   |              H        |  
 |     |                       |  
 |   Li|     Li      Li        |  
 |N    |  Li      Li   N  Li   |  
 | Li  |   Li      Li          |  
 |     |Li      Li      Li     |  
 Li    | Li      Li            |  
 |   LLi     LLi     LLi       |  
 |     |  Li      Li      Li   |  
 | Li  |   Li      Li          |  
 |     |Li      Li      Li     |  
 Li    | Li      Li            |  
 |    Li      Li      Li       |  
 |     |                       |  
 |     |                       |  
 |     |                       |  
 |     |                       |  
 |     |                       |  
 |     |                       |  
 |     .-----------------------.  
 |    /                       /   
 |   /                       /    
 |  /                       /     
 | /                       /      
 |/                       /       
 *-----------------------*        

Positions:
   0 Li     1.617037    1.617037   10.000000    ( 0.0000,  0.0000,  0.0000)
   1 Li     4.851111    1.617037   10.000000    ( 0.0000,  0.0000,  0.0000)
   2 Li     8.085185    1.617037   10.000000    ( 0.0000,  0.0000,  0.0000)
   3 Li     1.617037    4.851111   10.000000    ( 0.0000,  0.0000,  0.0000)
   4 Li     4.851111    4.851111   10.000000    ( 0.0000,  0.0000,  0.0000)
   5 Li     8.085185    4.851111   10.000000    ( 0.0000,  0.0000,  0.0000)
   6 Li     1.617037    8.085185   10.000000    ( 0.0000,  0.0000,  0.0000)
   7 Li     4.851111    8.085185   10.000000    ( 0.0000,  0.0000,  0.0000)
   8 Li     8.085185    8.085185   10.000000    ( 0.0000,  0.0000,  0.0000)
   9 Li     0.000000    0.000000   11.617037    ( 0.0000,  0.0000,  0.0000)
  10 Li     3.234074    0.000000   11.617037    ( 0.0000,  0.0000,  0.0000)
  11 Li     6.468148    0.000000   11.617037    ( 0.0000,  0.0000,  0.0000)
  12 Li     0.000000    3.234074   11.617037    ( 0.0000,  0.0000,  0.0000)
  13 Li     3.234074    3.234074   11.617037    ( 0.0000,  0.0000,  0.0000)
  14 Li     6.468148    3.234074   11.617037    ( 0.0000,  0.0000,  0.0000)
  15 Li     0.000000    6.468148   11.617037    ( 0.0000,  0.0000,  0.0000)
  16 Li     3.234074    6.468148   11.617037    ( 0.0000,  0.0000,  0.0000)
  17 Li     6.468148    6.468148   11.617037    ( 0.0000,  0.0000,  0.0000)
  18 Li     1.617038    1.617038   13.469728    ( 0.0000,  0.0000,  0.0000)
  19 Li     4.851111    1.617038   13.469729    ( 0.0000,  0.0000,  0.0000)
  20 Li     8.085184    1.617038   13.469728    ( 0.0000,  0.0000,  0.0000)
  21 Li     1.617038    4.851111   13.469729    ( 0.0000,  0.0000,  0.0000)
  22 Li     4.851111    4.851111   13.469730    ( 0.0000,  0.0000,  0.0000)
  23 Li     8.085184    4.851111   13.469729    ( 0.0000,  0.0000,  0.0000)
  24 Li     1.617038    8.085184   13.469728    ( 0.0000,  0.0000,  0.0000)
  25 Li     4.851111    8.085184   13.469729    ( 0.0000,  0.0000,  0.0000)
  26 Li     8.085184    8.085184   13.469728    ( 0.0000,  0.0000,  0.0000)
  27 Li    -0.000000   -0.000000   15.445939    ( 0.0000,  0.0000,  0.0000)
  28 Li     3.234074    0.000000   15.445939    ( 0.0000,  0.0000,  0.0000)
  29 Li     6.468148    0.000000   15.445939    ( 0.0000,  0.0000,  0.0000)
  30 Li     0.000000    3.234074   15.445939    ( 0.0000,  0.0000,  0.0000)
  31 Li     3.234076    3.234076   15.445938    ( 0.0000,  0.0000,  0.0000)
  32 Li     6.468146    3.234076   15.445938    ( 0.0000,  0.0000,  0.0000)
  33 Li     0.000000    6.468148   15.445939    ( 0.0000,  0.0000,  0.0000)
  34 Li     3.234076    6.468146   15.445938    ( 0.0000,  0.0000,  0.0000)
  35 Li     6.468146    6.468146   15.445938    ( 0.0000,  0.0000,  0.0000)
  36 Br     0.000000    1.617037   19.445939    ( 0.0000,  0.0000,  0.0000)
  37 H     -1.421857    1.617037   19.445939    ( 0.0000,  0.0000,  0.0000)
  38 N      0.000000    1.617000   17.445939    ( 0.0000,  0.0000,  0.0000)
  39 N     -1.096622    1.617000   17.445939    ( 0.0000,  0.0000,  0.0000)

Unit cell:
           periodic     x           y           z      points  spacing
  1. axis:    yes    9.702222    0.000000    0.000000    60     0.1617
  2. axis:    yes    0.000000    9.702222    0.000000    60     0.1617
  3. axis:    no     0.000000    0.000000   26.851111   168     0.1598

  Lengths:   9.702222   9.702222  26.851111
  Angles:   90.000000  90.000000  90.000000

Effective grid spacing dv^(1/3) = 0.1611

     iter     time        total  log10-change:
                         energy  eigst   dens
iter:   1 01:10:16  -482.692005
iter:   2 01:11:07  -255.379062  +2.34  -0.07
iter:   3 01:11:57  -197.057262  +3.22  -0.23
iter:   4 01:12:48  -280.740660  +3.18  -0.19
Writing to output.gpw (mode='')

iter:   5 01:13:41  -277.115929  +2.58  -0.20
iter:   6 01:14:32  -293.569950  +2.36  -0.47
iter:   7 01:15:23  -302.151927  +2.04  -0.63
iter:   8 01:16:13  -319.686702  +2.13  -0.72
iter:   9 01:17:04  -327.859702  +2.04  -0.63
Writing to output.gpw (mode='')

iter:  10 01:17:57  -336.165951  +1.93  -0.71
iter:  11 01:18:48  -356.338097  +2.20  -0.61
iter:  12 01:19:39  -383.422876  +2.03  -0.42
iter:  13 01:20:30  -365.803273  +1.49  -0.35
iter:  14 01:21:21  -434.647424  +2.36  -0.52
Writing to output.gpw (mode='')

iter:  15 01:22:13  -381.233276  +1.54  -0.19
iter:  16 01:23:04  -362.375575  +1.35  -0.34
iter:  17 01:23:55  -389.124544  +1.54  -0.29
iter:  18 01:24:46  -353.619691  +1.48  -0.37
iter:  19 01:25:37  -333.921865  +1.94  -0.53
Writing to output.gpw (mode='')

iter:  20 01:26:30  -329.482473  +0.81  -0.63
iter:  21 01:27:21  -328.407089  +0.70  -0.74
iter:  22 01:28:12  -327.260858  +0.78  -0.81
iter:  23 01:29:03  -327.287256  +0.71  -0.97
iter:  24 01:29:54  -327.498493  +0.63  -1.02
Writing to output.gpw (mode='')

iter:  25 01:30:46  -327.335394  +0.32  -1.09
iter:  26 01:31:37  -326.608142  +0.21  -1.13
iter:  27 01:32:28  -326.708956  -0.38  -1.27
iter:  28 01:33:19  -326.491805  -0.35  -1.35
iter:  29 01:34:10  -326.531424  -0.27  -1.62
Writing to output.gpw (mode='')

iter:  30 01:35:03  -326.576150  -0.74  -1.64
iter:  31 01:35:54  -326.550917  -0.88  -1.72
iter:  32 01:36:44  -326.563253c -1.08  -1.73
iter:  33 01:37:35  -326.597804  -0.77  -1.72
iter:  34 01:38:26  -326.575180  -1.07  -1.69
Writing to output.gpw (mode='')

iter:  35 01:39:19  -326.589090c -1.04  -1.73
iter:  36 01:40:10  -326.588834c -1.43  -1.72
iter:  37 01:41:01  -326.586204c -1.44  -1.76
iter:  38 01:41:52  -326.575694c -1.41  -1.85
iter:  39 01:42:43  -326.578577c -1.66  -2.22
Writing to output.gpw (mode='')

iter:  40 01:43:36  -326.582721c -1.54  -2.26
iter:  41 01:44:27  -326.584082c -1.85  -2.42
iter:  42 01:45:18  -326.585843c -1.93  -2.51
iter:  43 01:46:10  -326.587565c -1.90  -2.51
iter:  44 01:47:00  -326.589073c -2.05  -2.72
Writing to output.gpw (mode='')

iter:  45 01:47:53  -326.590552c -2.09  -2.84
iter:  46 01:48:44  -326.591585c -2.20  -2.94
iter:  47 01:49:35  -326.592547c -2.18  -2.95
iter:  48 01:50:26  -326.593675c -2.16  -2.96
iter:  49 01:51:17  -326.594456c -2.34  -3.11
Writing to output.gpw (mode='')

iter:  50 01:52:10  -326.595059c -2.46  -3.30
iter:  51 01:53:01  -326.595564c -2.54  -3.30
iter:  52 01:53:52  -326.595953c -2.68  -3.36
iter:  53 01:54:43  -326.596335c -2.60  -3.40
iter:  54 01:55:33  -326.596691c -2.65  -3.44
Writing to output.gpw (mode='')

iter:  55 01:56:26  -326.597092c -2.63  -3.49
iter:  56 01:57:17  -326.597346c -2.84  -3.57
iter:  57 01:58:08  -326.597563c -2.98  -3.68
iter:  58 01:58:59  -326.597719c -3.02  -3.70
iter:  59 01:59:50  -326.597866c -2.96  -3.87
Writing to output.gpw (mode='')

iter:  60 02:00:43  -326.598022c -3.02  -3.93
iter:  61 02:01:34  -326.598123c -3.20  -4.02c
iter:  62 02:02:25  -326.598209c -3.26  -4.03c
iter:  63 02:03:16  -326.598291c -3.23  -4.08c
iter:  64 02:04:07  -326.598376c -3.24  -4.16c
Writing to output.gpw (mode='')

iter:  65 02:05:00  -326.598428c -3.38  -4.26c
iter:  66 02:05:51  -326.598477c -3.45  -4.23c
iter:  67 02:06:42  -326.598512c -3.52  -4.02c
iter:  68 02:07:34  -326.598542c -3.62  -4.18c
iter:  69 02:08:25  -326.598570c -3.59  -4.19c
Writing to output.gpw (mode='')

iter:  70 02:09:17  -326.598599c -3.68  -4.11c
iter:  71 02:10:09  -326.598619c -3.74  -4.06c
iter:  72 02:11:00  -326.598637c -3.74  -4.01c
iter:  73 02:11:51  -326.598651c -3.84  -4.00
iter:  74 02:12:42  -326.598664c -3.94  -3.98
Writing to output.gpw (mode='')

iter:  75 02:13:35  -326.598676c -3.98  -3.93
iter:  76 02:14:26  -326.598687c -3.90  -3.92
iter:  77 02:15:17  -326.598694c -4.22  -3.89
iter:  78 02:16:08  -326.598700c -4.21  -3.88
iter:  79 02:16:59  -326.598704c -4.18  -3.93
Writing to output.gpw (mode='')

iter:  80 02:17:53  -326.598704c -4.27  -3.96
iter:  81 02:18:43  -326.598703c -4.37  -4.04c
iter:  82 02:19:35  -326.598704c -4.46  -4.22c
iter:  83 02:20:26  -326.598703c -4.56  -4.29c
iter:  84 02:21:17  -326.598704c -4.58  -4.47c
Writing to output.gpw (mode='')

iter:  85 02:22:09  -326.598705c -4.61  -4.52c
iter:  86 02:23:01  -326.598707c -4.82  -4.62c
iter:  87 02:23:52  -326.598708c -4.88  -4.69c
iter:  88 02:24:43  -326.598709c -4.80  -4.70c
iter:  89 02:25:34  -326.598710c -4.93  -4.75c
Writing to output.gpw (mode='')

iter:  90 02:26:31  -326.598711c -5.05  -4.94c
iter:  91 02:27:22  -326.598712c -5.00  -4.96c
iter:  92 02:28:13  -326.598713c -5.01  -4.98c
iter:  93 02:29:04  -326.598713c -5.26  -5.25c
iter:  94 02:29:55  -326.598713c -5.31  -5.18c
Writing to output.gpw (mode='')

iter:  95 02:30:48  -326.598714c -5.27  -5.16c
iter:  96 02:31:39  -326.598713c -5.18  -4.94c
iter:  97 02:32:30  -326.598713c -5.21  -5.02c
iter:  98 02:33:21  -326.598714c -5.41  -5.01c
iter:  99 02:34:12  -326.598713c -5.46  -4.92c
Writing to output.gpw (mode='')

iter: 100 02:35:05  -326.598713c -5.49  -4.98c
iter: 101 02:35:57  -326.598713c -5.53  -4.94c
iter: 102 02:36:48  -326.598713c -5.60  -4.94c
iter: 103 02:37:39  -326.598713c -5.72  -5.03c
iter: 104 02:38:30  -326.598713c -5.77  -4.92c
Writing to output.gpw (mode='')

iter: 105 02:39:23  -326.598712c -5.66  -4.83c
iter: 106 02:40:14  -326.598713c -5.84  -5.02c
iter: 107 02:41:05  -326.598712c -5.62  -5.01c
iter: 108 02:41:56  -326.598712c -5.85  -4.96c
iter: 109 02:42:47  -326.598712c -6.02  -5.13c
Writing to output.gpw (mode='')

iter: 110 02:43:40  -326.598712c -5.91  -5.13c
iter: 111 02:44:31  -326.598712c -5.86  -5.23c
iter: 112 02:45:22  -326.598712c -6.14  -5.41c
iter: 113 02:46:14  -326.598712c -6.12  -5.41c
iter: 114 02:47:05  -326.598712c -6.10  -5.47c
Writing to output.gpw (mode='')

iter: 115 02:47:58  -326.598712c -6.27  -5.61c
iter: 116 02:48:49  -326.598711c -6.28  -5.69c
iter: 117 02:49:40  -326.598711c -6.28  -5.81c
iter: 118 02:50:31  -326.598711c -6.31  -5.84c
iter: 119 02:51:22  -326.598711c -6.45  -5.89c
Writing to output.gpw (mode='')

iter: 120 02:52:15  -326.598711c -6.40  -6.09c
iter: 121 02:53:06  -326.598711c -6.46  -6.07c
iter: 122 02:53:57  -326.598711c -6.53  -5.93c
iter: 123 02:54:48  -326.598711c -6.56  -6.03c
iter: 124 02:55:39  -326.598711c -6.60  -6.08c
Writing to output.gpw (mode='')

iter: 125 02:56:34  -326.598711c -6.62  -6.15c
iter: 126 02:57:25  -326.598711c -6.56  -6.13c
iter: 127 02:58:16  -326.598711c -6.71  -6.06c
iter: 128 02:59:07  -326.598711c -6.75  -6.21c
iter: 129 02:59:58  -326.598711c -6.73  -6.29c
Writing to output.gpw (mode='')

iter: 130 03:00:51  -326.598711c -6.81  -6.26c
iter: 131 03:01:42  -326.598711c -6.87  -6.43c
iter: 132 03:02:33  -326.598711c -6.89  -6.57c
iter: 133 03:03:24  -326.598711c -6.89  -6.64c
iter: 134 03:04:15  -326.598711c -6.88  -6.70c
Writing to output.gpw (mode='')

iter: 135 03:05:08  -326.598711c -7.00  -6.78c
iter: 136 03:06:00  -326.598711c -7.03  -6.64c
iter: 137 03:06:51  -326.598711c -7.00  -6.52c
iter: 138 03:07:42  -326.598711c -7.12  -6.39c
iter: 139 03:08:33  -326.598711c -7.17  -6.29c
Writing to output.gpw (mode='')

iter: 140 03:09:26  -326.598711c -7.20  -6.33c
iter: 141 03:10:17  -326.598711c -7.20  -6.30c
iter: 142 03:11:09  -326.598711c -7.19  -6.21c
iter: 143 03:12:00  -326.598711c -7.26  -6.16c
iter: 144 03:12:51  -326.598711c -7.34  -6.12c
Writing to output.gpw (mode='')

iter: 145 03:13:44  -326.598711c -7.39  -6.08c
iter: 146 03:14:35  -326.598711c -7.42c -6.12c

Converged after 146 iterations.

Dipole moment: (-8.220193, -3.820635, 0.031479) |e|*Ang

Energy contributions relative to reference atoms: (reference = -81178.542429)

Kinetic:       +137.314579
Potential:     -120.320805
External:        +0.000000
XC:            -343.727213
Entropy (-ST):   -0.155271
Local:           +0.212363
--------------------------
Free energy:   -326.676346
Extrapolated:  -326.598711

Dipole-layer corrected work functions: 3.397772, 3.337258 eV

Showing only first 2 kpts
 Kpt  Band  Eigenvalues  Occupancy
  0    25     -3.61661    1.98637
  0    26     -3.50611    1.88227
  0    27     -3.22579    0.11097
  0    28     -3.11996    0.01405

  1    25     -3.39366    1.25567
  1    26     -3.37106    1.03546
  1    27     -3.33845    0.71725
  1    28     -3.29606    0.38645


Fermi level: -3.36752

No gap
Writing to output.gpw (mode='')


Forces in eV/Ang:
  0 Li    0.02292    0.00000   -0.27103
  1 Li   -0.01313    0.00000   -0.26969
  2 Li   -0.01217    0.00000   -0.27129
  3 Li   -0.00003    0.00600   -0.27301
  4 Li    0.00271   -0.00301   -0.28028
  5 Li    0.00076    0.02019   -0.27180
  6 Li   -0.00003   -0.00600   -0.27301
  7 Li    0.00271    0.00301   -0.28028
  8 Li    0.00076   -0.02019   -0.27180
  9 Li    0.00041    0.00655    0.29661
 10 Li    0.01478    0.00260    0.24477
 11 Li   -0.01074   -0.00346    0.25958
 12 Li    0.00041   -0.00655    0.29661
 13 Li    0.01478   -0.00260    0.24477
 14 Li   -0.01074    0.00346    0.25958
 15 Li   -0.00435   -0.00000    0.23538
 16 Li   -0.01591   -0.00000    0.26712
 17 Li    0.01532   -0.00000    0.25139
 18 Li    0.02017   -0.00000   -0.00777
 19 Li    0.00587   -0.00000    0.05346
 20 Li   -0.02037   -0.00000   -0.09801
 21 Li   -0.01601   -0.02049    0.05793
 22 Li    0.00204    0.00417    0.03684
 23 Li    0.00879   -0.01678    0.05982
 24 Li   -0.01601    0.02049    0.05793
 25 Li    0.00204   -0.00417    0.03684
 26 Li    0.00879    0.01678    0.05982
 27 Li    0.00938   -0.03579   -0.03854
 28 Li    0.01563   -0.00436   -0.03613
 29 Li   -0.04774   -0.03314   -0.03518
 30 Li    0.00938    0.03580   -0.03854
 31 Li    0.01563    0.00436   -0.03613
 32 Li   -0.04774    0.03314   -0.03519
 33 Li   -0.00974   -0.00000   -0.02164
 34 Li   -0.01172    0.00000   -0.01463
 35 Li    0.02494    0.00000   -0.01523
 36 Br    3.34915    0.00020   10.95510
 37 H    -0.18012   -0.00000   -0.03203
 38 N     3.65994    0.00008   -4.97472
 39 N    -6.82762   -0.00004   -5.80864

System changes: positions 

Initializing position-dependent things.

Density initialized from wave functions
       .-----------------------.  
      /|                       |  
     / |                       |  
    /  |                       |  
   /   |                       |  
  /    |                       |  
 *     |                       |  
 |     |                       |  
 |     |                       |  
 |     |                       |  
 |     |                       |  
 |     |                       |  
 |     |                       |  
 |     |                       |  
 |Br   Li      Li     HLi      |  
 |     |                       |  
 |     |     Li      Li      Li|  
 |N    |  Li      Li   N  Li   |  
 | Li  |   Li      Li          |  
 |     |Li      Li      Li     |  
 |     |                       |  
 |   LLi     LLi     LLi       |  
 |     |  Li      Li      Li   |  
 | Li  |   Li      Li          |  
 |     |Li      Li      Li     |  
 Li    | Li      Li            |  
 |    Li      Li      Li       |  
 |     |                       |  
 |     |                       |  
 |     |                       |  
 |     |                       |  
 |     |                       |  
 |     |                       |  
 |     .-----------------------.  
 |    /                       /   
 |   /                       /    
 |  /                       /     
 | /                       /      
 |/                       /       
 *-----------------------*        

Positions:
   0 Li     1.617037    1.617037   10.000000    ( 0.0000,  0.0000,  0.0000)
   1 Li     4.851111    1.617037   10.000000    ( 0.0000,  0.0000,  0.0000)
   2 Li     8.085185    1.617037   10.000000    ( 0.0000,  0.0000,  0.0000)
   3 Li     1.617037    4.851111   10.000000    ( 0.0000,  0.0000,  0.0000)
   4 Li     4.851111    4.851111   10.000000    ( 0.0000,  0.0000,  0.0000)
   5 Li     8.085185    4.851111   10.000000    ( 0.0000,  0.0000,  0.0000)
   6 Li     1.617037    8.085185   10.000000    ( 0.0000,  0.0000,  0.0000)
   7 Li     4.851111    8.085185   10.000000    ( 0.0000,  0.0000,  0.0000)
   8 Li     8.085185    8.085185   10.000000    ( 0.0000,  0.0000,  0.0000)
   9 Li     0.000000    0.000000   11.617037    ( 0.0000,  0.0000,  0.0000)
  10 Li     3.234074    0.000000   11.617037    ( 0.0000,  0.0000,  0.0000)
  11 Li     6.468148    0.000000   11.617037    ( 0.0000,  0.0000,  0.0000)
  12 Li     0.000000    3.234074   11.617037    ( 0.0000,  0.0000,  0.0000)
  13 Li     3.234074    3.234074   11.617037    ( 0.0000,  0.0000,  0.0000)
  14 Li     6.468148    3.234074   11.617037    ( 0.0000,  0.0000,  0.0000)
  15 Li     0.000000    6.468148   11.617037    ( 0.0000,  0.0000,  0.0000)
  16 Li     3.234074    6.468148   11.617037    ( 0.0000,  0.0000,  0.0000)
  17 Li     6.468148    6.468148   11.617037    ( 0.0000,  0.0000,  0.0000)
  18 Li     1.617109    1.617038   13.469701    ( 0.0000,  0.0000,  0.0000)
  19 Li     4.851132    1.617038   13.469916    ( 0.0000,  0.0000,  0.0000)
  20 Li     8.085113    1.617038   13.469386    ( 0.0000,  0.0000,  0.0000)
  21 Li     1.616983    4.851039   13.469932    ( 0.0000,  0.0000,  0.0000)
  22 Li     4.851118    4.851126   13.469859    ( 0.0000,  0.0000,  0.0000)
  23 Li     8.085214    4.851052   13.469938    ( 0.0000,  0.0000,  0.0000)
  24 Li     1.616982    8.085255   13.469930    ( 0.0000,  0.0000,  0.0000)
  25 Li     4.851118    8.085169   13.469858    ( 0.0000,  0.0000,  0.0000)
  26 Li     8.085215    8.085243   13.469937    ( 0.0000,  0.0000,  0.0000)
  27 Li     0.000033   -0.000125   15.445805    ( 0.0000,  0.0000,  0.0000)
  28 Li     3.234128   -0.000015   15.445813    ( 0.0000,  0.0000,  0.0000)
  29 Li     6.467982   -0.000116   15.445816    ( 0.0000,  0.0000,  0.0000)
  30 Li     0.000033    3.234199   15.445804    ( 0.0000,  0.0000,  0.0000)
  31 Li     3.234131    3.234092   15.445812    ( 0.0000,  0.0000,  0.0000)
  32 Li     6.467979    3.234192   15.445815    ( 0.0000,  0.0000,  0.0000)
  33 Li    -0.000034    6.468148   15.445863    ( 0.0000,  0.0000,  0.0000)
  34 Li     3.234036    6.468146   15.445887    ( 0.0000,  0.0000,  0.0000)
  35 Li     6.468233    6.468146   15.445885    ( 0.0000,  0.0000,  0.0000)
  36 Br     0.011694    1.617038   19.484192    ( 0.0000,  0.0000,  0.0000)
  37 H     -1.422486    1.617037   19.445828    ( 0.0000,  0.0000,  0.0000)
  38 N      0.012780    1.617000   17.428569    ( 0.0000,  0.0000,  0.0000)
  39 N     -1.120462    1.617000   17.425657    ( 0.0000,  0.0000,  0.0000)

Unit cell:
           periodic     x           y           z      points  spacing
  1. axis:    yes    9.702222    0.000000    0.000000    60     0.1617
  2. axis:    yes    0.000000    9.702222    0.000000    60     0.1617
  3. axis:    no     0.000000    0.000000   26.851111   168     0.1598

  Lengths:   9.702222   9.702222  26.851111
  Angles:   90.000000  90.000000  90.000000

Effective grid spacing dv^(1/3) = 0.1611

     iter     time        total  log10-change:
                         energy  eigst   dens
iter:   1 03:15:49  -328.695600  -0.10
iter:   2 03:16:40  -328.533776  +0.23  -0.99
iter:   3 03:17:31  -327.313266  -0.33  -1.03
iter:   4 03:18:23  -327.316576  -0.80  -1.75
Writing to output.gpw (mode='')

iter:   5 03:19:16  -327.323268c -0.56  -1.85
iter:   6 03:20:07  -327.322275c -1.26  -2.01
iter:   7 03:20:58  -327.334716c -1.44  -2.13
iter:   8 03:21:50  -327.329767c -1.83  -2.20
iter:   9 03:22:41  -327.323945c -1.93  -2.36
Writing to output.gpw (mode='')

iter:  10 03:23:36  -327.324847c -2.12  -2.51
iter:  11 03:24:27  -327.325427c -2.22  -2.65
iter:  12 03:25:18  -327.325362c -2.60  -2.68
iter:  13 03:26:10  -327.325821c -2.62  -2.76
iter:  14 03:27:01  -327.325887c -2.97  -2.91
Writing to output.gpw (mode='')

iter:  15 03:27:54  -327.325931c -3.20  -2.92
iter:  16 03:28:45  -327.326166c -3.28  -2.98
iter:  17 03:29:37  -327.326153c -3.60  -3.24
iter:  18 03:30:28  -327.326165c -3.65  -3.25
iter:  19 03:31:19  -327.326204c -3.83  -3.41
Writing to output.gpw (mode='')

iter:  20 03:32:12  -327.326250c -3.88  -3.49
iter:  21 03:33:03  -327.326247c -4.12  -3.58
iter:  22 03:33:55  -327.326254c -3.97  -3.65
iter:  23 03:34:46  -327.326263c -4.03  -3.70
iter:  24 03:35:37  -327.326273c -4.38  -3.88
Writing to output.gpw (mode='')

iter:  25 03:36:31  -327.326287c -4.59  -3.92
iter:  26 03:37:23  -327.326287c -4.62  -4.04c
iter:  27 03:38:14  -327.326297c -4.79  -4.21c
iter:  28 03:39:05  -327.326298c -4.88  -4.26c
iter:  29 03:39:57  -327.326307c -4.91  -4.27c
Writing to output.gpw (mode='')

iter:  30 03:40:49  -327.326308c -4.96  -4.34c
iter:  31 03:41:41  -327.326307c -5.12  -4.35c
iter:  32 03:42:32  -327.326308c -5.14  -4.41c
iter:  33 03:43:23  -327.326310c -5.38  -4.43c
iter:  34 03:44:14  -327.326313c -5.61  -4.44c
Writing to output.gpw (mode='')

iter:  35 03:45:07  -327.326313c -5.67  -4.70c
iter:  36 03:45:58  -327.326313c -5.69  -4.78c
iter:  37 03:46:50  -327.326313c -5.67  -4.76c
iter:  38 03:47:41  -327.326314c -5.91  -4.62c
iter:  39 03:48:32  -327.326314c -5.91  -4.73c
Writing to output.gpw (mode='')

iter:  40 03:49:25  -327.326315c -6.10  -4.97c
iter:  41 03:50:16  -327.326317c -6.03  -4.98c
iter:  42 03:51:08  -327.326317c -5.87  -5.07c
iter:  43 03:51:59  -327.326316c -6.07  -5.13c
iter:  44 03:52:50  -327.326317c -6.21  -5.07c
Writing to output.gpw (mode='')

iter:  45 03:53:43  -327.326317c -6.34  -5.08c
iter:  46 03:54:35  -327.326317c -6.41  -5.34c
iter:  47 03:55:26  -327.326317c -6.41  -5.36c
iter:  48 03:56:17  -327.326317c -6.53  -5.36c
iter:  49 03:57:08  -327.326317c -6.41  -5.29c
Writing to output.gpw (mode='')

iter:  50 03:58:01  -327.326317c -6.63  -5.23c
iter:  51 03:58:53  -327.326317c -6.73  -5.14c
iter:  52 03:59:44  -327.326317c -6.73  -5.19c
iter:  53 04:00:35  -327.326318c -6.60  -5.19c
iter:  54 04:01:26  -327.326317c -6.77  -5.17c
Writing to output.gpw (mode='')

iter:  55 04:02:21  -327.326318c -6.91  -5.22c
iter:  56 04:03:12  -327.326318c -6.84  -5.27c
iter:  57 04:04:03  -327.326318c -7.13  -5.22c
iter:  58 04:04:54  -327.326318c -7.19  -5.25c
iter:  59 04:05:45  -327.326319c -7.09  -5.32c
Writing to output.gpw (mode='')

iter:  60 04:06:40  -327.326319c -7.14  -5.38c
iter:  61 04:07:31  -327.326319c -7.38  -5.48c
iter:  62 04:08:22  -327.326319c -7.24  -5.48c
iter:  63 04:09:13  -327.326318c -7.40c -5.64c

Converged after 63 iterations.

Dipole moment: (-10.385317, -3.704594, -0.006898) |e|*Ang

Energy contributions relative to reference atoms: (reference = -81178.542429)

Kinetic:       +127.648691
Potential:     -112.899574
External:        +0.000000
XC:            -342.220419
Entropy (-ST):   -0.157640
Local:           +0.223803
--------------------------
Free energy:   -327.405138
Extrapolated:  -327.326318

Dipole-layer corrected work functions: 3.400923, 3.414183 eV

Showing only first 2 kpts
 Kpt  Band  Eigenvalues  Occupancy
  0    25     -3.65541    1.98603
  0    26     -3.53964    1.86699
  0    27     -3.27403    0.12948
  0    28     -3.16261    0.01480

  1    25     -3.43364    1.25515
  1    26     -3.41237    1.04817
  1    27     -3.37966    0.72811
  1    28     -3.32886    0.34332


Fermi level: -3.40755

Gap: 0.006 eV
Transition (v -> c):
  (s=0, k=1, n=26, [0.12, -0.12, 0.00]) -> (s=0, k=4, n=27, [0.38, -0.38, 0.00])
Writing to output.gpw (mode='')


Forces in eV/Ang:
  0 Li    0.02326    0.00000   -0.27138
  1 Li   -0.01353    0.00000   -0.26911
  2 Li   -0.01225    0.00000   -0.27194
  3 Li    0.00084    0.00673   -0.27349
  4 Li    0.00285   -0.00208   -0.28111
  5 Li    0.00055    0.02113   -0.27242
  6 Li    0.00084   -0.00674   -0.27349
  7 Li    0.00285    0.00208   -0.28111
  8 Li    0.00055   -0.02113   -0.27242
  9 Li    0.00035    0.00688    0.30060
 10 Li    0.01518    0.00287    0.24463
 11 Li   -0.01040   -0.00335    0.26051
 12 Li    0.00035   -0.00688    0.30060
 13 Li    0.01518   -0.00287    0.24463
 14 Li   -0.01040    0.00335    0.26051
 15 Li   -0.00454   -0.00000    0.23423
 16 Li   -0.01681   -0.00000    0.26566
 17 Li    0.01519   -0.00000    0.25014
 18 Li    0.02252   -0.00000   -0.01413
 19 Li    0.00523   -0.00000    0.05144
 20 Li   -0.02202   -0.00000   -0.10444
 21 Li   -0.01718   -0.02016    0.05638
 22 Li    0.00187    0.00307    0.03779
 23 Li    0.00896   -0.01536    0.05649
 24 Li   -0.01718    0.02016    0.05638
 25 Li    0.00187   -0.00307    0.03779
 26 Li    0.00896    0.01536    0.05649
 27 Li   -0.00464    0.00553    0.02668
 28 Li    0.01333   -0.00511   -0.03385
 29 Li   -0.03903   -0.02592   -0.01992
 30 Li   -0.00463   -0.00552    0.02667
 31 Li    0.01332    0.00510   -0.03385
 32 Li   -0.03903    0.02593   -0.01993
 33 Li   -0.00843   -0.00000   -0.02504
 34 Li   -0.01014    0.00000   -0.01591
 35 Li    0.02284    0.00000   -0.01709
 36 Br    2.56212    0.00017    9.17006
 37 H     0.10654   -0.00000   -0.04869
 38 N    -0.46011   -0.00019   -4.25169
 39 N    -2.07671   -0.00019   -4.92183

System changes: positions 

Initializing position-dependent things.

Density initialized from wave functions
       .-----------------------.  
      /|                       |  
     / |                       |  
    /  |                       |  
   /   |                       |  
  /    |                       |  
 *     |                       |  
 |     |                       |  
 |     |                       |  
 |     |                       |  
 |     |                       |  
 |     |                       |  
 |     |                       |  
 |     |                       |  
 |Br   |       Li     HLi      Li 
 |     |                       |  
 |     |     Li      Li      Li|  
 |N    |  Li      Li   N  Li   |  
 |     |   Li      Li      Li  |  
 |     |Li      Li      Li     |  
 |     |                       |  
 |   LLi     LLi     LLi       |  
 |     |  Li      Li      Li   |  
 | Li  |   Li      Li          |  
 |     |Li      Li      Li     |  
 Li    | Li      Li            |  
 |    Li      Li      Li       |  
 |     |                       |  
 |     |                       |  
 |     |                       |  
 |     |                       |  
 |     |                       |  
 |     |                       |  
 |     .-----------------------.  
 |    /                       /   
 |   /                       /    
 |  /                       /     
 | /                       /      
 |/                       /       
 *-----------------------*        

Positions:
   0 Li     1.617037    1.617037   10.000000    ( 0.0000,  0.0000,  0.0000)
   1 Li     4.851111    1.617037   10.000000    ( 0.0000,  0.0000,  0.0000)
   2 Li     8.085185    1.617037   10.000000    ( 0.0000,  0.0000,  0.0000)
   3 Li     1.617037    4.851111   10.000000    ( 0.0000,  0.0000,  0.0000)
   4 Li     4.851111    4.851111   10.000000    ( 0.0000,  0.0000,  0.0000)
   5 Li     8.085185    4.851111   10.000000    ( 0.0000,  0.0000,  0.0000)
   6 Li     1.617037    8.085185   10.000000    ( 0.0000,  0.0000,  0.0000)
   7 Li     4.851111    8.085185   10.000000    ( 0.0000,  0.0000,  0.0000)
   8 Li     8.085185    8.085185   10.000000    ( 0.0000,  0.0000,  0.0000)
   9 Li     0.000000    0.000000   11.617037    ( 0.0000,  0.0000,  0.0000)
  10 Li     3.234074    0.000000   11.617037    ( 0.0000,  0.0000,  0.0000)
  11 Li     6.468148    0.000000   11.617037    ( 0.0000,  0.0000,  0.0000)
  12 Li     0.000000    3.234074   11.617037    ( 0.0000,  0.0000,  0.0000)
  13 Li     3.234074    3.234074   11.617037    ( 0.0000,  0.0000,  0.0000)
  14 Li     6.468148    3.234074   11.617037    ( 0.0000,  0.0000,  0.0000)
  15 Li     0.000000    6.468148   11.617037    ( 0.0000,  0.0000,  0.0000)
  16 Li     3.234074    6.468148   11.617037    ( 0.0000,  0.0000,  0.0000)
  17 Li     6.468148    6.468148   11.617037    ( 0.0000,  0.0000,  0.0000)
  18 Li     1.617214    1.617038   13.469627    ( 0.0000,  0.0000,  0.0000)
  19 Li     4.851154    1.617038   13.470146    ( 0.0000,  0.0000,  0.0000)
  20 Li     8.085010    1.617038   13.468902    ( 0.0000,  0.0000,  0.0000)
  21 Li     1.616903    4.850949   13.470184    ( 0.0000,  0.0000,  0.0000)
  22 Li     4.851126    4.851138   13.470031    ( 0.0000,  0.0000,  0.0000)
  23 Li     8.085255    4.850985   13.470189    ( 0.0000,  0.0000,  0.0000)
  24 Li     1.616903    8.085346   13.470183    ( 0.0000,  0.0000,  0.0000)
  25 Li     4.851126    8.085157   13.470031    ( 0.0000,  0.0000,  0.0000)
  26 Li     8.085255    8.085310   13.470187    ( 0.0000,  0.0000,  0.0000)
  27 Li    -0.000011   -0.000033   15.446031    ( 0.0000,  0.0000,  0.0000)
  28 Li     3.234185   -0.000040   15.445663    ( 0.0000,  0.0000,  0.0000)
  29 Li     6.467819   -0.000221   15.445750    ( 0.0000,  0.0000,  0.0000)
  30 Li    -0.000011    3.234107   15.446030    ( 0.0000,  0.0000,  0.0000)
  31 Li     3.234188    3.234116   15.445662    ( 0.0000,  0.0000,  0.0000)
  32 Li     6.467816    3.234298   15.445750    ( 0.0000,  0.0000,  0.0000)
  33 Li    -0.000070    6.468148   15.445744    ( 0.0000,  0.0000,  0.0000)
  34 Li     3.233992    6.468146   15.445813    ( 0.0000,  0.0000,  0.0000)
  35 Li     6.468333    6.468146   15.445804    ( 0.0000,  0.0000,  0.0000)
  36 Br     0.022027    1.617038   19.522834    ( 0.0000,  0.0000,  0.0000)
  37 H     -1.421542    1.617037   19.445580    ( 0.0000,  0.0000,  0.0000)
  38 N      0.004061    1.616999   17.410484    ( 0.0000,  0.0000,  0.0000)
  39 N     -1.122213    1.616999   17.404802    ( 0.0000,  0.0000,  0.0000)

Unit cell:
           periodic     x           y           z      points  spacing
  1. axis:    yes    9.702222    0.000000    0.000000    60     0.1617
  2. axis:    yes    0.000000    9.702222    0.000000    60     0.1617
  3. axis:    no     0.000000    0.000000   26.851111   168     0.1598

  Lengths:   9.702222   9.702222  26.851111
  Angles:   90.000000  90.000000  90.000000

Effective grid spacing dv^(1/3) = 0.1611

     iter     time        total  log10-change:
                         energy  eigst   dens
iter:   1 04:10:28  -327.937998  -1.16
iter:   2 04:11:19  -327.887354  -1.06  -1.65
iter:   3 04:12:10  -327.870024  -2.09  -1.79
iter:   4 04:13:01  -327.862639c -1.32  -2.20
Writing to output.gpw (mode='')

iter:   5 04:13:54  -327.856211c -2.34  -2.03
iter:   6 04:14:45  -327.864281c -1.73  -2.30
iter:   7 04:15:36  -327.855609c -2.35  -2.16
iter:   8 04:16:27  -327.854385c -2.65  -2.54
iter:   9 04:17:18  -327.854387c -3.00  -2.73
Writing to output.gpw (mode='')

iter:  10 04:18:14  -327.854250c -2.80  -2.80
iter:  11 04:19:05  -327.854006c -2.91  -2.97
iter:  12 04:19:56  -327.854218c -3.36  -3.02
iter:  13 04:20:48  -327.854201c -3.76  -3.02
iter:  14 04:21:39  -327.854062c -3.59  -3.22
Writing to output.gpw (mode='')

iter:  15 04:22:32  -327.854163c -4.15  -3.49
iter:  16 04:23:23  -327.854128c -4.30  -3.52
iter:  17 04:24:14  -327.854154c -4.38  -3.63
iter:  18 04:25:05  -327.854144c -4.46  -3.70
iter:  19 04:25:56  -327.854169c -4.88  -3.78
Writing to output.gpw (mode='')

iter:  20 04:26:49  -327.854163c -5.03  -3.93
iter:  21 04:27:40  -327.854170c -5.08  -3.98
iter:  22 04:28:31  -327.854169c -5.14  -4.17c
iter:  23 04:29:22  -327.854169c -4.94  -4.14c
iter:  24 04:30:14  -327.854172c -5.28  -4.19c
Writing to output.gpw (mode='')

iter:  25 04:31:07  -327.854173c -5.42  -4.40c
iter:  26 04:31:58  -327.854173c -5.56  -4.39c
iter:  27 04:32:49  -327.854173c -5.37  -4.36c
iter:  28 04:33:40  -327.854174c -5.80  -4.27c
iter:  29 04:34:31  -327.854175c -5.79  -4.33c
Writing to output.gpw (mode='')

iter:  30 04:35:24  -327.854178c -5.81  -4.38c
iter:  31 04:36:15  -327.854178c -5.87  -4.41c
iter:  32 04:37:06  -327.854179c -6.18  -4.48c
iter:  33 04:37:57  -327.854179c -6.37  -4.57c
iter:  34 04:38:48  -327.854180c -6.50  -4.65c
Writing to output.gpw (mode='')

iter:  35 04:39:41  -327.854180c -6.66  -4.98c
iter:  36 04:40:32  -327.854180c -6.65  -5.06c
iter:  37 04:41:24  -327.854180c -6.63  -5.29c
iter:  38 04:42:15  -327.854180c -6.75  -5.43c
iter:  39 04:43:06  -327.854181c -6.77  -5.42c
Writing to output.gpw (mode='')

iter:  40 04:43:59  -327.854181c -6.79  -5.43c
iter:  41 04:44:50  -327.854181c -6.97  -5.44c
iter:  42 04:45:41  -327.854182c -7.07  -5.58c
iter:  43 04:46:32  -327.854181c -7.07  -5.71c
iter:  44 04:47:23  -327.854181c -7.14  -5.78c
Writing to output.gpw (mode='')

iter:  45 04:48:16  -327.854182c -7.13  -5.79c
iter:  46 04:49:07  -327.854182c -7.21  -5.78c
iter:  47 04:49:58  -327.854182c -7.31  -5.73c
iter:  48 04:50:49  -327.854182c -7.55c -5.68c

Converged after 48 iterations.

Dipole moment: (-10.249964, -3.690297, -0.023592) |e|*Ang

Energy contributions relative to reference atoms: (reference = -81178.542429)

Kinetic:       +125.486086
Potential:     -111.520079
External:        +0.000000
XC:            -341.974978
Entropy (-ST):   -0.155817
Local:           +0.232698
--------------------------
Free energy:   -327.932090
Extrapolated:  -327.854182

Dipole-layer corrected work functions: 3.401580, 3.446931 eV

Showing only first 2 kpts
 Kpt  Band  Eigenvalues  Occupancy
  0    25     -3.67218    1.98605
  0    26     -3.55617    1.86657
  0    27     -3.28780    0.12256
  0    28     -3.17668    0.01405

  1    25     -3.45218    1.27223
  1    26     -3.42650    1.02243
  1    27     -3.39800    0.74333
  1    28     -3.34380    0.33342


Fermi level: -3.42426

Gap: 0.004 eV
Transition (v -> c):
  (s=0, k=1, n=26, [0.12, -0.12, 0.00]) -> (s=0, k=4, n=27, [0.38, -0.38, 0.00])
Writing to output.gpw (mode='')


Forces in eV/Ang:
  0 Li    0.02296    0.00000   -0.27140
  1 Li   -0.01319    0.00000   -0.26824
  2 Li   -0.01225    0.00000   -0.27149
  3 Li    0.00146    0.00671   -0.27350
  4 Li    0.00292   -0.00160   -0.28159
  5 Li    0.00021    0.02081   -0.27243
  6 Li    0.00146   -0.00671   -0.27350
  7 Li    0.00292    0.00160   -0.28159
  8 Li    0.00021   -0.02081   -0.27244
  9 Li    0.00053    0.00733    0.30138
 10 Li    0.01576    0.00243    0.24463
 11 Li   -0.01097   -0.00371    0.25934
 12 Li    0.00053   -0.00733    0.30138
 13 Li    0.01576   -0.00243    0.24463
 14 Li   -0.01097    0.00371    0.25934
 15 Li   -0.00488   -0.00000    0.23381
 16 Li   -0.01774   -0.00000    0.26562
 17 Li    0.01570   -0.00000    0.25055
 18 Li    0.02324   -0.00000   -0.01509
 19 Li    0.00559   -0.00000    0.05111
 20 Li   -0.02471   -0.00000   -0.10346
 21 Li   -0.01761   -0.01965    0.05578
 22 Li    0.00122    0.00296    0.03761
 23 Li    0.00954   -0.01655    0.05740
 24 Li   -0.01761    0.01965    0.05579
 25 Li    0.00122   -0.00295    0.03761
 26 Li    0.00954    0.01655    0.05740
 27 Li    0.00195    0.00133    0.01466
 28 Li    0.01358   -0.00488   -0.03340
 29 Li   -0.04208   -0.02611   -0.02557
 30 Li    0.00196   -0.00133    0.01465
 31 Li    0.01358    0.00488   -0.03339
 32 Li   -0.04209    0.02611   -0.02557
 33 Li   -0.00843   -0.00000   -0.02517
 34 Li   -0.00922    0.00000   -0.01575
 35 Li    0.02232    0.00000   -0.01692
 36 Br    1.92571    0.00015    7.95569
 37 H     0.32465   -0.00000   -0.01695
 38 N     0.03556   -0.00020   -3.80707
 39 N    -2.20454   -0.00013   -4.18356

System changes: positions 

Initializing position-dependent things.

Density initialized from wave functions
       .-----------------------.  
      /|                       |  
     / |                       |  
    /  |                       |  
   /   |                       |  
  /    |                       |  
 *     |                       |  
 |     |                       |  
 |     |                       |  
 |     |                       |  
 |     |                       |  
 |     |                       |  
 |     |                       |  
 |     |                       |  
 |Br   |       Li     HLi      |  
 |     |                       |  
 |     |     Li      Li      Li|  
 |     |  Li      Li   N  Ni   |  
 | Li  |   Li      Li          |  
 |     |Li      Li      Li     |  
 Li    |                       |  
 |   LLi     LLi     LLi       |  
 |     |  Li      Li      Li   |  
 | Li  |   Li      Li          |  
 |     |Li      Li      Li     |  
 Li    | Li      Li            |  
 |    Li      Li      Li       |  
 |     |                       |  
 |     |                       |  
 |     |                       |  
 |     |                       |  
 |     |                       |  
 |     |                       |  
 |     .-----------------------.  
 |    /                       /   
 |   /                       /    
 |  /                       /     
 | /                       /      
 |/                       /       
 *-----------------------*        

Positions:
   0 Li     1.617037    1.617037   10.000000    ( 0.0000,  0.0000,  0.0000)
   1 Li     4.851111    1.617037   10.000000    ( 0.0000,  0.0000,  0.0000)
   2 Li     8.085185    1.617037   10.000000    ( 0.0000,  0.0000,  0.0000)
   3 Li     1.617037    4.851111   10.000000    ( 0.0000,  0.0000,  0.0000)
   4 Li     4.851111    4.851111   10.000000    ( 0.0000,  0.0000,  0.0000)
   5 Li     8.085185    4.851111   10.000000    ( 0.0000,  0.0000,  0.0000)
   6 Li     1.617037    8.085185   10.000000    ( 0.0000,  0.0000,  0.0000)
   7 Li     4.851111    8.085185   10.000000    ( 0.0000,  0.0000,  0.0000)
   8 Li     8.085185    8.085185   10.000000    ( 0.0000,  0.0000,  0.0000)
   9 Li     0.000000    0.000000   11.617037    ( 0.0000,  0.0000,  0.0000)
  10 Li     3.234074    0.000000   11.617037    ( 0.0000,  0.0000,  0.0000)
  11 Li     6.468148    0.000000   11.617037    ( 0.0000,  0.0000,  0.0000)
  12 Li     0.000000    3.234074   11.617037    ( 0.0000,  0.0000,  0.0000)
  13 Li     3.234074    3.234074   11.617037    ( 0.0000,  0.0000,  0.0000)
  14 Li     6.468148    3.234074   11.617037    ( 0.0000,  0.0000,  0.0000)
  15 Li     0.000000    6.468148   11.617037    ( 0.0000,  0.0000,  0.0000)
  16 Li     3.234074    6.468148   11.617037    ( 0.0000,  0.0000,  0.0000)
  17 Li     6.468148    6.468148   11.617037    ( 0.0000,  0.0000,  0.0000)
  18 Li     1.617388    1.617038   13.469497    ( 0.0000,  0.0000,  0.0000)
  19 Li     4.851194    1.617038   13.470491    ( 0.0000,  0.0000,  0.0000)
  20 Li     8.084811    1.617038   13.468179    ( 0.0000,  0.0000,  0.0000)
  21 Li     1.616774    4.850818   13.470561    ( 0.0000,  0.0000,  0.0000)
  22 Li     4.851128    4.851154   13.470293    ( 0.0000,  0.0000,  0.0000)
  23 Li     8.085327    4.850864   13.470585    ( 0.0000,  0.0000,  0.0000)
  24 Li     1.616774    8.085477   13.470560    ( 0.0000,  0.0000,  0.0000)
  25 Li     4.851128    8.085140   13.470292    ( 0.0000,  0.0000,  0.0000)
  26 Li     8.085327    8.085431   13.470584    ( 0.0000,  0.0000,  0.0000)
  27 Li     0.000025    0.000045   15.446193    ( 0.0000,  0.0000,  0.0000)
  28 Li     3.234275   -0.000073   15.445442    ( 0.0000,  0.0000,  0.0000)
  29 Li     6.467523   -0.000385   15.445562    ( 0.0000,  0.0000,  0.0000)
  30 Li     0.000026    3.234029   15.446192    ( 0.0000,  0.0000,  0.0000)
  31 Li     3.234278    3.234150   15.445441    ( 0.0000,  0.0000,  0.0000)
  32 Li     6.467520    3.234462   15.445562    ( 0.0000,  0.0000,  0.0000)
  33 Li    -0.000125    6.468148   15.445560    ( 0.0000,  0.0000,  0.0000)
  34 Li     3.233941    6.468146   15.445702    ( 0.0000,  0.0000,  0.0000)
  35 Li     6.468477    6.468146   15.445684    ( 0.0000,  0.0000,  0.0000)
  36 Br     0.027640    1.617039   19.562438    ( 0.0000,  0.0000,  0.0000)
  37 H     -1.416608    1.617037   19.445703    ( 0.0000,  0.0000,  0.0000)
  38 N     -0.001888    1.616997   17.389975    ( 0.0000,  0.0000,  0.0000)
  39 N     -1.126361    1.616998   17.384732    ( 0.0000,  0.0000,  0.0000)

Unit cell:
           periodic     x           y           z      points  spacing
  1. axis:    yes    9.702222    0.000000    0.000000    60     0.1617
  2. axis:    yes    0.000000    9.702222    0.000000    60     0.1617
  3. axis:    no     0.000000    0.000000   26.851111   168     0.1598

  Lengths:   9.702222   9.702222  26.851111
  Angles:   90.000000  90.000000  90.000000

Effective grid spacing dv^(1/3) = 0.1611

     iter     time        total  log10-change:
                         energy  eigst   dens
iter:   1 04:52:04  -328.363447  -1.23
iter:   2 04:52:55  -328.333997  -1.27  -1.74
iter:   3 04:53:46  -328.323898  -2.38  -1.90
iter:   4 04:54:38  -328.321404c -1.63  -2.34
Writing to output.gpw (mode='')

iter:   5 04:55:30  -328.318462c -2.65  -2.17
iter:   6 04:56:22  -328.320931c -2.06  -2.41
iter:   7 04:57:13  -328.317874c -2.66  -2.36
iter:   8 04:58:04  -328.317536c -3.23  -2.77
iter:   9 04:58:55  -328.317745c -3.61  -2.89
Writing to output.gpw (mode='')

iter:  10 04:59:48  -328.317638c -3.08  -2.86
iter:  11 05:00:39  -328.317326c -3.29  -3.08
iter:  12 05:01:30  -328.317370c -3.61  -3.23
iter:  13 05:02:21  -328.317553c -3.93  -3.30
iter:  14 05:03:12  -328.317407c -4.25  -3.39
Writing to output.gpw (mode='')

iter:  15 05:04:05  -328.317457c -4.60  -3.62
iter:  16 05:04:56  -328.317426c -4.46  -3.65
iter:  17 05:05:47  -328.317450c -4.55  -3.77
iter:  18 05:06:39  -328.317442c -4.85  -3.79
iter:  19 05:07:30  -328.317451c -5.05  -3.88
Writing to output.gpw (mode='')

iter:  20 05:08:23  -328.317456c -5.22  -4.16c
iter:  21 05:09:14  -328.317457c -5.43  -4.23c
iter:  22 05:10:05  -328.317467c -5.49  -4.24c
iter:  23 05:10:56  -328.317465c -5.76  -4.32c
iter:  24 05:11:47  -328.317464c -5.52  -4.53c
Writing to output.gpw (mode='')

iter:  25 05:12:40  -328.317464c -5.90  -4.62c
iter:  26 05:13:31  -328.317465c -5.88  -4.64c
iter:  27 05:14:22  -328.317466c -5.93  -4.68c
iter:  28 05:15:13  -328.317465c -6.02  -4.71c
iter:  29 05:16:04  -328.317466c -6.09  -4.82c
Writing to output.gpw (mode='')

iter:  30 05:16:59  -328.317466c -6.30  -4.89c
iter:  31 05:17:50  -328.317467c -6.43  -4.93c
iter:  32 05:18:41  -328.317467c -6.49  -4.98c
iter:  33 05:19:33  -328.317467c -6.62  -5.06c
iter:  34 05:20:24  -328.317468c -6.74  -5.25c
Writing to output.gpw (mode='')

iter:  35 05:21:16  -328.317468c -6.75  -5.31c
iter:  36 05:22:08  -328.317468c -6.88  -5.34c
iter:  37 05:22:59  -328.317468c -7.08  -5.42c
iter:  38 05:23:50  -328.317468c -7.06  -5.55c
iter:  39 05:24:41  -328.317469c -7.19  -5.64c
Writing to output.gpw (mode='')

iter:  40 05:25:34  -328.317468c -7.16  -5.75c
iter:  41 05:26:25  -328.317468c -7.33  -5.78c
iter:  42 05:27:16  -328.317468c -7.50c -5.77c

Converged after 42 iterations.

Dipole moment: (-10.042034, -3.663786, -0.042691) |e|*Ang

Energy contributions relative to reference atoms: (reference = -81178.542429)

Kinetic:       +123.169105
Potential:     -109.957744
External:        +0.000000
XC:            -341.692088
Entropy (-ST):   -0.154764
Local:           +0.240641
--------------------------
Free energy:   -328.394850
Extrapolated:  -328.317468

Dipole-layer corrected work functions: 3.402510, 3.484577 eV

Showing only first 2 kpts
 Kpt  Band  Eigenvalues  Occupancy
  0    25     -3.69133    1.98601
  0    26     -3.57433    1.86374
  0    27     -3.30620    0.12053
  0    28     -3.19478    0.01372

  1    25     -3.47315    1.28775
  1    26     -3.44404    1.00494
  1    27     -3.41828    0.75262
  1    28     -3.36048    0.31918


Fermi level: -3.44354

Gap: 0.003 eV
Transition (v -> c):
  (s=0, k=1, n=26, [0.12, -0.12, 0.00]) -> (s=0, k=7, n=27, [0.38, 0.38, 0.00])
Writing to output.gpw (mode='')


Forces in eV/Ang:
  0 Li    0.02278    0.00000   -0.27145
  1 Li   -0.01299    0.00000   -0.26751
  2 Li   -0.01226    0.00000   -0.27136
  3 Li    0.00201    0.00681   -0.27359
  4 Li    0.00299   -0.00114   -0.28204
  5 Li    0.00004    0.02068   -0.27257
  6 Li    0.00201   -0.00681   -0.27359
  7 Li    0.00299    0.00114   -0.28204
  8 Li    0.00004   -0.02068   -0.27257
  9 Li    0.00068    0.00764    0.30247
 10 Li    0.01633    0.00213    0.24465
 11 Li   -0.01140   -0.00402    0.25864
 12 Li    0.00068   -0.00764    0.30246
 13 Li    0.01633   -0.00213    0.24465
 14 Li   -0.01140    0.00402    0.25864
 15 Li   -0.00514   -0.00000    0.23349
 16 Li   -0.01863   -0.00000    0.26542
 17 Li    0.01597   -0.00000    0.25102
 18 Li    0.02382   -0.00000   -0.01644
 19 Li    0.00569   -0.00000    0.05035
 20 Li   -0.02668   -0.00000   -0.10307
 21 Li   -0.01807   -0.01920    0.05491
 22 Li    0.00064    0.00275    0.03734
 23 Li    0.00993   -0.01714    0.05722
 24 Li   -0.01807    0.01921    0.05491
 25 Li    0.00064   -0.00275    0.03734
 26 Li    0.00993    0.01714    0.05722
 27 Li    0.00532    0.00254    0.01233
 28 Li    0.01339   -0.00487   -0.03286
 29 Li   -0.04331   -0.02523   -0.02765
 30 Li    0.00532   -0.00254    0.01232
 31 Li    0.01339    0.00487   -0.03286
 32 Li   -0.04331    0.02523   -0.02765
 33 Li   -0.00816   -0.00000   -0.02543
 34 Li   -0.00835    0.00000   -0.01565
 35 Li    0.02164    0.00000   -0.01678
 36 Br    1.48972    0.00013    6.80807
 37 H     0.37999   -0.00000    0.01031
 38 N     0.15388    0.00028   -3.34478
 39 N    -2.01586    0.00026   -3.51468

System changes: positions 

Initializing position-dependent things.

Density initialized from wave functions
       .-----------------------.  
      /|                       |  
     / |                       |  
    /  |                       |  
   /   |                       |  
  /    |                       |  
 *     |                       |  
 |     |                       |  
 |     |                       |  
 |     |                       |  
 |     |                       |  
 |     |                       |  
 |     |                       |  
 |     |                       |  
 |Br   |       Li      Hi      |  
 |     |                       |  
 |     |     Li      Li      Li|  
 |     |  Li      Li   N  Ni   |  
 | Li  |   Li      Li          |  
 |     |Li      Li      Li     |  
 Li    |                       |  
 |   LLi     LLi     LLi       |  
 |     |  Li      Li      Li   |  
 | Li  |   Li      Li          |  
 |     |Li      Li      Li     |  
 Li    | Li      Li            |  
 |    Li      Li      Li       |  
 |     |                       |  
 |     |                       |  
 |     |                       |  
 |     |                       |  
 |     |                       |  
 |     |                       |  
 |     .-----------------------.  
 |    /                       /   
 |   /                       /    
 |  /                       /     
 | /                       /      
 |/                       /       
 *-----------------------*        

Positions:
   0 Li     1.617037    1.617037   10.000000    ( 0.0000,  0.0000,  0.0000)
   1 Li     4.851111    1.617037   10.000000    ( 0.0000,  0.0000,  0.0000)
   2 Li     8.085185    1.617037   10.000000    ( 0.0000,  0.0000,  0.0000)
   3 Li     1.617037    4.851111   10.000000    ( 0.0000,  0.0000,  0.0000)
   4 Li     4.851111    4.851111   10.000000    ( 0.0000,  0.0000,  0.0000)
   5 Li     8.085185    4.851111   10.000000    ( 0.0000,  0.0000,  0.0000)
   6 Li     1.617037    8.085185   10.000000    ( 0.0000,  0.0000,  0.0000)
   7 Li     4.851111    8.085185   10.000000    ( 0.0000,  0.0000,  0.0000)
   8 Li     8.085185    8.085185   10.000000    ( 0.0000,  0.0000,  0.0000)
   9 Li     0.000000    0.000000   11.617037    ( 0.0000,  0.0000,  0.0000)
  10 Li     3.234074    0.000000   11.617037    ( 0.0000,  0.0000,  0.0000)
  11 Li     6.468148    0.000000   11.617037    ( 0.0000,  0.0000,  0.0000)
  12 Li     0.000000    3.234074   11.617037    ( 0.0000,  0.0000,  0.0000)
  13 Li     3.234074    3.234074   11.617037    ( 0.0000,  0.0000,  0.0000)
  14 Li     6.468148    3.234074   11.617037    ( 0.0000,  0.0000,  0.0000)
  15 Li     0.000000    6.468148   11.617037    ( 0.0000,  0.0000,  0.0000)
  16 Li     3.234074    6.468148   11.617037    ( 0.0000,  0.0000,  0.0000)
  17 Li     6.468148    6.468148   11.617037    ( 0.0000,  0.0000,  0.0000)
  18 Li     1.617627    1.617038   13.469307    ( 0.0000,  0.0000,  0.0000)
  19 Li     4.851249    1.617038   13.470948    ( 0.0000,  0.0000,  0.0000)
  20 Li     8.084520    1.617038   13.467209    ( 0.0000,  0.0000,  0.0000)
  21 Li     1.616595    4.850647   13.471058    ( 0.0000,  0.0000,  0.0000)
  22 Li     4.851124    4.851174   13.470641    ( 0.0000,  0.0000,  0.0000)
  23 Li     8.085428    4.850693   13.471117    ( 0.0000,  0.0000,  0.0000)
  24 Li     1.616595    8.085648   13.471057    ( 0.0000,  0.0000,  0.0000)
  25 Li     4.851124    8.085120   13.470640    ( 0.0000,  0.0000,  0.0000)
  26 Li     8.085428    8.085602   13.471115    ( 0.0000,  0.0000,  0.0000)
  27 Li     0.000116    0.000159   15.446374    ( 0.0000,  0.0000,  0.0000)
  28 Li     3.234395   -0.000119   15.445149    ( 0.0000,  0.0000,  0.0000)
  29 Li     6.467108   -0.000596   15.445284    ( 0.0000,  0.0000,  0.0000)
  30 Li     0.000116    3.233915   15.446374    ( 0.0000,  0.0000,  0.0000)
  31 Li     3.234397    3.234195   15.445149    ( 0.0000,  0.0000,  0.0000)
  32 Li     6.467105    3.234672   15.445284    ( 0.0000,  0.0000,  0.0000)
  33 Li    -0.000196    6.468148   15.445310    ( 0.0000,  0.0000,  0.0000)
  34 Li     3.233881    6.468146   15.445554    ( 0.0000,  0.0000,  0.0000)
  35 Li     6.468664    6.468146   15.445525    ( 0.0000,  0.0000,  0.0000)
  36 Br     0.030741    1.617040   19.602318    ( 0.0000,  0.0000,  0.0000)
  37 H     -1.409982    1.617037   19.446219    ( 0.0000,  0.0000,  0.0000)
  38 N     -0.007101    1.617002   17.367915    ( 0.0000,  0.0000,  0.0000)
  39 N     -1.131393    1.617003   17.365546    ( 0.0000,  0.0000,  0.0000)

Unit cell:
           periodic     x           y           z      points  spacing
  1. axis:    yes    9.702222    0.000000    0.000000    60     0.1617
  2. axis:    yes    0.000000    9.702222    0.000000    60     0.1617
  3. axis:    no     0.000000    0.000000   26.851111   168     0.1598

  Lengths:   9.702222   9.702222  26.851111
  Angles:   90.000000  90.000000  90.000000

Effective grid spacing dv^(1/3) = 0.1611

     iter     time        total  log10-change:
                         energy  eigst   dens
iter:   1 05:28:31  -328.750148  -1.24
iter:   2 05:29:22  -328.726115  -1.37  -1.77
iter:   3 05:30:13  -328.717772  -2.49  -1.95
iter:   4 05:31:04  -328.716429c -1.78  -2.40
Writing to output.gpw (mode='')

iter:   5 05:31:59  -328.714583c -2.78  -2.24
iter:   6 05:32:50  -328.716241c -2.19  -2.47
iter:   7 05:33:41  -328.714027c -2.80  -2.44
iter:   8 05:34:32  -328.713807c -3.09  -2.92
iter:   9 05:35:23  -328.714008c -3.53  -2.81
Writing to output.gpw (mode='')

iter:  10 05:36:16  -328.713904c -3.51  -2.99
iter:  11 05:37:07  -328.713860c -3.91  -3.33
iter:  12 05:37:58  -328.713921c -4.20  -3.41
iter:  13 05:38:49  -328.713949c -4.23  -3.42
iter:  14 05:39:40  -328.713896c -4.37  -3.51
Writing to output.gpw (mode='')

iter:  15 05:40:34  -328.713906c -4.48  -3.68
iter:  16 05:41:25  -328.713890c -4.77  -3.73
iter:  17 05:42:16  -328.713901c -4.86  -3.85
iter:  18 05:43:07  -328.713898c -5.05  -3.89
iter:  19 05:43:58  -328.713905c -5.16  -4.01c
Writing to output.gpw (mode='')

iter:  20 05:44:50  -328.713913c -5.28  -4.20c
iter:  21 05:45:41  -328.713911c -5.41  -4.23c
iter:  22 05:46:32  -328.713914c -5.66  -4.42c
iter:  23 05:47:23  -328.713913c -5.74  -4.46c
iter:  24 05:48:14  -328.713916c -5.74  -4.53c
Writing to output.gpw (mode='')

iter:  25 05:49:07  -328.713914c -5.79  -4.57c
iter:  26 05:49:58  -328.713916c -6.14  -4.65c
iter:  27 05:50:49  -328.713914c -6.28  -4.70c
iter:  28 05:51:40  -328.713915c -6.51  -4.96c
iter:  29 05:52:31  -328.713916c -6.38  -5.08c
Writing to output.gpw (mode='')

iter:  30 05:53:24  -328.713916c -6.40  -5.16c
iter:  31 05:54:15  -328.713917c -6.48  -5.23c
iter:  32 05:55:06  -328.713917c -6.68  -5.26c
iter:  33 05:55:58  -328.713917c -6.91  -5.38c
iter:  34 05:56:49  -328.713917c -6.90  -5.55c
Writing to output.gpw (mode='')

iter:  35 05:57:41  -328.713917c -6.86  -5.66c
iter:  36 05:58:32  -328.713917c -7.06  -5.75c
iter:  37 05:59:23  -328.713917c -7.29  -5.73c
iter:  38 06:00:15  -328.713917c -7.07  -5.69c
iter:  39 06:01:06  -328.713917c -7.33  -5.53c
Writing to output.gpw (mode='')

iter:  40 06:01:58  -328.713917c -7.48c -5.49c

Converged after 40 iterations.

Dipole moment: (-9.725871, -3.636692, -0.060241) |e|*Ang

Energy contributions relative to reference atoms: (reference = -81178.542429)

Kinetic:       +121.028569
Potential:     -108.484397
External:        +0.000000
XC:            -341.427803
Entropy (-ST):   -0.154065
Local:           +0.246747
--------------------------
Free energy:   -328.790949
Extrapolated:  -328.713917

Dipole-layer corrected work functions: 3.403422, 3.519226 eV

Showing only first 2 kpts
 Kpt  Band  Eigenvalues  Occupancy
  0    25     -3.70890    1.98595
  0    26     -3.59064    1.85996
  0    27     -3.32373    0.11997
  0    28     -3.21192    0.01355

  1    25     -3.49239    1.30108
  1    26     -3.46067    0.99349
  1    27     -3.43669    0.75850
  1    28     -3.37556    0.30498


Fermi level: -3.46132

No gap

Forces in eV/Ang:
  0 Li    0.02267    0.00000   -0.27154
  1 Li   -0.01286    0.00000   -0.26690
  2 Li   -0.01230    0.00000   -0.27140
  3 Li    0.00248    0.00696   -0.27371
  4 Li    0.00306   -0.00076   -0.28245
  5 Li   -0.00000    0.02065   -0.27275
  6 Li    0.00249   -0.00696   -0.27371
  7 Li    0.00306    0.00076   -0.28245
  8 Li   -0.00000   -0.02065   -0.27275
  9 Li    0.00082    0.00784    0.30359
 10 Li    0.01691    0.00187    0.24474
 11 Li   -0.01179   -0.00433    0.25819
 12 Li    0.00082   -0.00784    0.30359
 13 Li    0.01691   -0.00187    0.24474
 14 Li   -0.01179    0.00433    0.25819
 15 Li   -0.00538   -0.00000    0.23330
 16 Li   -0.01947   -0.00000    0.26526
 17 Li    0.01611   -0.00000    0.25164
 18 Li    0.02416   -0.00000   -0.01779
 19 Li    0.00564   -0.00000    0.04932
 20 Li   -0.02812   -0.00000   -0.10265
 21 Li   -0.01847   -0.01882    0.05388
 22 Li    0.00011    0.00257    0.03686
 23 Li    0.01018   -0.01747    0.05648
 24 Li   -0.01847    0.01882    0.05388
 25 Li    0.00011   -0.00257    0.03687
 26 Li    0.01018    0.01747    0.05648
 27 Li    0.00724    0.00515    0.01279
 28 Li    0.01309   -0.00503   -0.03236
 29 Li   -0.04381   -0.02401   -0.02825
 30 Li    0.00724   -0.00514    0.01278
 31 Li    0.01308    0.00503   -0.03236
 32 Li   -0.04381    0.02401   -0.02825
 33 Li   -0.00776   -0.00000   -0.02555
 34 Li   -0.00761    0.00000   -0.01549
 35 Li    0.02100    0.00000   -0.01653
 36 Br    1.18566    0.00010    5.81560
 37 H     0.37321    0.00000    0.03353
 38 N     0.17430    0.00005   -2.83665
 39 N    -1.66684    0.00015   -2.96395

System changes: positions 

Initializing position-dependent things.

Density initialized from wave functions
       .-----------------------.  
      /|                       |  
     / |                       |  
    /  |                       |  
   /   |                       |  
  /    |                       |  
 *     |                       |  
 |     |                       |  
 |     |                       |  
 |     |                       |  
 |     |                       |  
 |     |                       |  
 |     |                       |  
 |     |                       |  
 |Br   |       Li      Hi      |  
 |     |                       |  
 |     |     Li      Li      Li|  
 |     |  Li      Li   N  Ni   |  
 | Li  |   Li      Li          |  
 |     |Li      Li      Li     |  
 Li    |                       |  
 |   LLi     LLi     LLi       |  
 |     |  Li      Li      Li   |  
 | Li  |   Li      Li          |  
 |     |Li      Li      Li     |  
 Li    | Li      Li            |  
 |    Li      Li      Li       |  
 |     |                       |  
 |     |                       |  
 |     |                       |  
 |     |                       |  
 |     |                       |  
 |     |                       |  
 |     .-----------------------.  
 |    /                       /   
 |   /                       /    
 |  /                       /     
 | /                       /      
 |/                       /       
 *-----------------------*        

Positions:
   0 Li     1.617037    1.617037   10.000000    ( 0.0000,  0.0000,  0.0000)
   1 Li     4.851111    1.617037   10.000000    ( 0.0000,  0.0000,  0.0000)
   2 Li     8.085185    1.617037   10.000000    ( 0.0000,  0.0000,  0.0000)
   3 Li     1.617037    4.851111   10.000000    ( 0.0000,  0.0000,  0.0000)
   4 Li     4.851111    4.851111   10.000000    ( 0.0000,  0.0000,  0.0000)
   5 Li     8.085185    4.851111   10.000000    ( 0.0000,  0.0000,  0.0000)
   6 Li     1.617037    8.085185   10.000000    ( 0.0000,  0.0000,  0.0000)
   7 Li     4.851111    8.085185   10.000000    ( 0.0000,  0.0000,  0.0000)
   8 Li     8.085185    8.085185   10.000000    ( 0.0000,  0.0000,  0.0000)
   9 Li     0.000000    0.000000   11.617037    ( 0.0000,  0.0000,  0.0000)
  10 Li     3.234074    0.000000   11.617037    ( 0.0000,  0.0000,  0.0000)
  11 Li     6.468148    0.000000   11.617037    ( 0.0000,  0.0000,  0.0000)
  12 Li     0.000000    3.234074   11.617037    ( 0.0000,  0.0000,  0.0000)
  13 Li     3.234074    3.234074   11.617037    ( 0.0000,  0.0000,  0.0000)
  14 Li     6.468148    3.234074   11.617037    ( 0.0000,  0.0000,  0.0000)
  15 Li     0.000000    6.468148   11.617037    ( 0.0000,  0.0000,  0.0000)
  16 Li     3.234074    6.468148   11.617037    ( 0.0000,  0.0000,  0.0000)
  17 Li     6.468148    6.468148   11.617037    ( 0.0000,  0.0000,  0.0000)
  18 Li     1.617927    1.617038   13.469058    ( 0.0000,  0.0000,  0.0000)
  19 Li     4.851317    1.617038   13.471505    ( 0.0000,  0.0000,  0.0000)
  20 Li     8.084144    1.617038   13.466005    ( 0.0000,  0.0000,  0.0000)
  21 Li     1.616367    4.850438   13.471667    ( 0.0000,  0.0000,  0.0000)
  22 Li     4.851113    4.851198   13.471068    ( 0.0000,  0.0000,  0.0000)
  23 Li     8.085556    4.850478   13.471770    ( 0.0000,  0.0000,  0.0000)
  24 Li     1.616367    8.085857   13.471665    ( 0.0000,  0.0000,  0.0000)
  25 Li     4.851113    8.085097   13.471067    ( 0.0000,  0.0000,  0.0000)
  26 Li     8.085556    8.085817   13.471768    ( 0.0000,  0.0000,  0.0000)
  27 Li     0.000249    0.000321   15.446591    ( 0.0000,  0.0000,  0.0000)
  28 Li     3.234540   -0.000179   15.444788    ( 0.0000,  0.0000,  0.0000)
  29 Li     6.466584   -0.000845   15.444933    ( 0.0000,  0.0000,  0.0000)
  30 Li     0.000249    3.233753   15.446591    ( 0.0000,  0.0000,  0.0000)
  31 Li     3.234543    3.234255   15.444787    ( 0.0000,  0.0000,  0.0000)
  32 Li     6.466582    3.234922   15.444932    ( 0.0000,  0.0000,  0.0000)
  33 Li    -0.000279    6.468148   15.444999    ( 0.0000,  0.0000,  0.0000)
  34 Li     3.233814    6.468146   15.445373    ( 0.0000,  0.0000,  0.0000)
  35 Li     6.468891    6.468146   15.445330    ( 0.0000,  0.0000,  0.0000)
  36 Br     0.032567    1.617041   19.642276    ( 0.0000,  0.0000,  0.0000)
  37 H     -1.402659    1.617037   19.447132    ( 0.0000,  0.0000,  0.0000)
  38 N     -0.011492    1.617004   17.346217    ( 0.0000,  0.0000,  0.0000)
  39 N     -1.135667    1.617007   17.346917    ( 0.0000,  0.0000,  0.0000)

Unit cell:
           periodic     x           y           z      points  spacing
  1. axis:    yes    9.702222    0.000000    0.000000    60     0.1617
  2. axis:    yes    0.000000    9.702222    0.000000    60     0.1617
  3. axis:    no     0.000000    0.000000   26.851111   168     0.1598

  Lengths:   9.702222   9.702222  26.851111
  Angles:   90.000000  90.000000  90.000000

Effective grid spacing dv^(1/3) = 0.1611

     iter     time        total  log10-change:
                         energy  eigst   dens
iter:   1 06:03:11  -329.082478  -1.25
iter:   2 06:04:02  -329.059653  -1.42  -1.78
iter:   3 06:04:53  -329.051690  -2.54  -1.96
iter:   4 06:05:44  -329.050415c -1.88  -2.43
Writing to output.gpw (mode='')

iter:   5 06:06:37  -329.049124c -2.87  -2.30
iter:   6 06:07:28  -329.050680c -2.32  -2.56
iter:   7 06:08:19  -329.048662c -2.85  -2.48
iter:   8 06:09:10  -329.048543c -2.95  -3.01
iter:   9 06:10:01  -329.048664c -3.57  -2.81
Writing to output.gpw (mode='')

iter:  10 06:10:54  -329.048635c -3.81  -3.15
iter:  11 06:11:45  -329.048637c -4.18  -3.35
iter:  12 06:12:36  -329.048683c -4.10  -3.48
iter:  13 06:13:28  -329.048639c -4.20  -3.45
iter:  14 06:14:19  -329.048636c -4.72  -3.71
Writing to output.gpw (mode='')

iter:  15 06:15:12  -329.048637c -4.55  -3.74
iter:  16 06:16:03  -329.048645c -4.88  -3.80
iter:  17 06:16:54  -329.048655c -5.02  -3.85
iter:  18 06:17:45  -329.048652c -5.11  -3.90
iter:  19 06:18:36  -329.048651c -5.22  -3.98
Writing to output.gpw (mode='')

iter:  20 06:19:29  -329.048652c -5.42  -4.07c
iter:  21 06:20:20  -329.048662c -5.46  -4.18c
iter:  22 06:21:11  -329.048659c -5.68  -4.24c
iter:  23 06:22:02  -329.048660c -5.81  -4.40c
iter:  24 06:22:53  -329.048661c -6.06  -4.44c
Writing to output.gpw (mode='')

iter:  25 06:23:47  -329.048662c -6.15  -4.56c
iter:  26 06:24:38  -329.048662c -6.26  -4.70c
iter:  27 06:25:29  -329.048663c -6.28  -4.76c
iter:  28 06:26:20  -329.048662c -6.41  -4.82c
iter:  29 06:27:11  -329.048662c -6.49  -4.99c
Writing to output.gpw (mode='')

iter:  30 06:28:04  -329.048662c -6.48  -5.04c
iter:  31 06:28:55  -329.048662c -6.74  -5.12c
iter:  32 06:29:46  -329.048663c -6.77  -5.14c
iter:  33 06:30:37  -329.048663c -6.97  -5.27c
iter:  34 06:31:28  -329.048663c -7.02  -5.34c
Writing to output.gpw (mode='')

iter:  35 06:32:22  -329.048664c -7.07  -5.35c
iter:  36 06:33:13  -329.048663c -7.09  -5.41c
iter:  37 06:34:04  -329.048664c -7.25  -5.42c
iter:  38 06:34:55  -329.048664c -7.41c -5.64c

Converged after 38 iterations.

Dipole moment: (-9.402242, -3.613487, -0.074566) |e|*Ang

Energy contributions relative to reference atoms: (reference = -81178.542429)

Kinetic:       +119.203442
Potential:     -107.218190
External:        +0.000000
XC:            -341.206326
Entropy (-ST):   -0.153548
Local:           +0.249185
--------------------------
Free energy:   -329.125438
Extrapolated:  -329.048664

Dipole-layer corrected work functions: 3.404174, 3.547515 eV

Showing only first 2 kpts
 Kpt  Band  Eigenvalues  Occupancy
  0    25     -3.72322    1.98590
  0    26     -3.60365    1.85597
  0    27     -3.33812    0.11967
  0    28     -3.22605    0.01344

  1    25     -3.50813    1.31212
  1    26     -3.47441    0.98563
  1    27     -3.45165    0.76262
  1    28     -3.38760    0.29236


Fermi level: -3.47584

No gap
Writing to output.gpw (mode='')


Forces in eV/Ang:
  0 Li    0.02261    0.00000   -0.27164
  1 Li   -0.01275    0.00000   -0.26636
  2 Li   -0.01235    0.00000   -0.27149
  3 Li    0.00287    0.00713   -0.27385
  4 Li    0.00310   -0.00044   -0.28281
  5 Li    0.00004    0.02065   -0.27294
  6 Li    0.00287   -0.00713   -0.27385
  7 Li    0.00310    0.00044   -0.28280
  8 Li    0.00004   -0.02065   -0.27294
  9 Li    0.00095    0.00794    0.30465
 10 Li    0.01750    0.00162    0.24490
 11 Li   -0.01221   -0.00465    0.25793
 12 Li    0.00095   -0.00793    0.30465
 13 Li    0.01750   -0.00162    0.24489
 14 Li   -0.01221    0.00466    0.25793
 15 Li   -0.00564   -0.00000    0.23327
 16 Li   -0.02022   -0.00000    0.26524
 17 Li    0.01622   -0.00000    0.25242
 18 Li    0.02433   -0.00000   -0.01909
 19 Li    0.00550   -0.00000    0.04811
 20 Li   -0.02913   -0.00000   -0.10187
 21 Li   -0.01878   -0.01846    0.05274
 22 Li   -0.00035    0.00244    0.03619
 23 Li    0.01032   -0.01767    0.05544
 24 Li   -0.01878    0.01847    0.05274
 25 Li   -0.00035   -0.00243    0.03620
 26 Li    0.01032    0.01767    0.05544
 27 Li    0.00846    0.00744    0.01324
 28 Li    0.01288   -0.00525   -0.03188
 29 Li   -0.04392   -0.02273   -0.02826
 30 Li    0.00846   -0.00743    0.01323
 31 Li    0.01288    0.00525   -0.03188
 32 Li   -0.04392    0.02273   -0.02826
 33 Li   -0.00733   -0.00000   -0.02546
 34 Li   -0.00700    0.00000   -0.01521
 35 Li    0.02040    0.00000   -0.01613
 36 Br    0.95189    0.00008    4.93396
 37 H     0.35077    0.00000    0.05577
 38 N     0.19439   -0.00007   -2.48336
 39 N    -1.46531   -0.00022   -2.53747

System changes: positions 

Initializing position-dependent things.

Density initialized from wave functions
       .-----------------------.  
      /|                       |  
     / |                       |  
    /  |                       |  
   /   |                       |  
  /    |                       |  
 *     |                       |  
 |     |                       |  
 |     |                       |  
 |     |                       |  
 |     |                       |  
 |     |                       |  
 |     |                       |  
 |     |                       |  
 |Br   |       Li      Hi      |  
 |     |                       |  
 |     |     Li      Li      Li|  
 |     |  Li      Li   N  Ni   |  
 | Li  |   Li      Li          |  
 |     |Li      Li      Li     |  
 Li    |                       |  
 |   LLi     LLi     LLi       |  
 |     |  Li      Li      Li   |  
 | Li  |   Li      Li          |  
 |     |Li      Li      Li     |  
 Li    | Li      Li            |  
 |    Li      Li      Li       |  
 |     |                       |  
 |     |                       |  
 |     |                       |  
 |     |                       |  
 |     |                       |  
 |     |                       |  
 |     .-----------------------.  
 |    /                       /   
 |   /                       /    
 |  /                       /     
 | /                       /      
 |/                       /       
 *-----------------------*        

Positions:
   0 Li     1.617037    1.617037   10.000000    ( 0.0000,  0.0000,  0.0000)
   1 Li     4.851111    1.617037   10.000000    ( 0.0000,  0.0000,  0.0000)
   2 Li     8.085185    1.617037   10.000000    ( 0.0000,  0.0000,  0.0000)
   3 Li     1.617037    4.851111   10.000000    ( 0.0000,  0.0000,  0.0000)
   4 Li     4.851111    4.851111   10.000000    ( 0.0000,  0.0000,  0.0000)
   5 Li     8.085185    4.851111   10.000000    ( 0.0000,  0.0000,  0.0000)
   6 Li     1.617037    8.085185   10.000000    ( 0.0000,  0.0000,  0.0000)
   7 Li     4.851111    8.085185   10.000000    ( 0.0000,  0.0000,  0.0000)
   8 Li     8.085185    8.085185   10.000000    ( 0.0000,  0.0000,  0.0000)
   9 Li     0.000000    0.000000   11.617037    ( 0.0000,  0.0000,  0.0000)
  10 Li     3.234074    0.000000   11.617037    ( 0.0000,  0.0000,  0.0000)
  11 Li     6.468148    0.000000   11.617037    ( 0.0000,  0.0000,  0.0000)
  12 Li     0.000000    3.234074   11.617037    ( 0.0000,  0.0000,  0.0000)
  13 Li     3.234074    3.234074   11.617037    ( 0.0000,  0.0000,  0.0000)
  14 Li     6.468148    3.234074   11.617037    ( 0.0000,  0.0000,  0.0000)
  15 Li     0.000000    6.468148   11.617037    ( 0.0000,  0.0000,  0.0000)
  16 Li     3.234074    6.468148   11.617037    ( 0.0000,  0.0000,  0.0000)
  17 Li     6.468148    6.468148   11.617037    ( 0.0000,  0.0000,  0.0000)
  18 Li     1.618293    1.617038   13.468740    ( 0.0000,  0.0000,  0.0000)
  19 Li     4.851397    1.617038   13.472169    ( 0.0000,  0.0000,  0.0000)
  20 Li     8.083678    1.617038   13.464548    ( 0.0000,  0.0000,  0.0000)
  21 Li     1.616086    4.850185   13.472396    ( 0.0000,  0.0000,  0.0000)
  22 Li     4.851094    4.851226   13.471580    ( 0.0000,  0.0000,  0.0000)
  23 Li     8.085713    4.850213   13.472551    ( 0.0000,  0.0000,  0.0000)
  24 Li     1.616086    8.086109   13.472395    ( 0.0000,  0.0000,  0.0000)
  25 Li     4.851094    8.085069   13.471579    ( 0.0000,  0.0000,  0.0000)
  26 Li     8.085713    8.086081   13.472550    ( 0.0000,  0.0000,  0.0000)
  27 Li     0.000419    0.000540   15.446858    ( 0.0000,  0.0000,  0.0000)
  28 Li     3.234716   -0.000255   15.444351    ( 0.0000,  0.0000,  0.0000)
  29 Li     6.465946   -0.001135   15.444510    ( 0.0000,  0.0000,  0.0000)
  30 Li     0.000420    3.233534   15.446857    ( 0.0000,  0.0000,  0.0000)
  31 Li     3.234719    3.234331   15.444350    ( 0.0000,  0.0000,  0.0000)
  32 Li     6.465944    3.235211   15.444509    ( 0.0000,  0.0000,  0.0000)
  33 Li    -0.000375    6.468148   15.444622    ( 0.0000,  0.0000,  0.0000)
  34 Li     3.233738    6.468146   15.445155    ( 0.0000,  0.0000,  0.0000)
  35 Li     6.469162    6.468146   15.445099    ( 0.0000,  0.0000,  0.0000)
  36 Br     0.033452    1.617041   19.682267    ( 0.0000,  0.0000,  0.0000)
  37 H     -1.394722    1.617037   19.448505    ( 0.0000,  0.0000,  0.0000)
  38 N     -0.015624    1.617004   17.323199    ( 0.0000,  0.0000,  0.0000)
  39 N     -1.140264    1.617006   17.327879    ( 0.0000,  0.0000,  0.0000)

Unit cell:
           periodic     x           y           z      points  spacing
  1. axis:    yes    9.702222    0.000000    0.000000    60     0.1617
  2. axis:    yes    0.000000    9.702222    0.000000    60     0.1617
  3. axis:    no     0.000000    0.000000   26.851111   168     0.1598

  Lengths:   9.702222   9.702222  26.851111
  Angles:   90.000000  90.000000  90.000000

Effective grid spacing dv^(1/3) = 0.1611

     iter     time        total  log10-change:
                         energy  eigst   dens
iter:   1 06:36:10  -329.364826  -1.24
iter:   2 06:37:01  -329.345789  -1.51  -1.81
iter:   3 06:37:52  -329.338988c -2.59  -2.00
iter:   4 06:38:43  -329.337610c -2.02  -2.47
Writing to output.gpw (mode='')

iter:   5 06:39:36  -329.336936c -2.98  -2.38
iter:   6 06:40:27  -329.337727c -2.55  -2.61
iter:   7 06:41:18  -329.336527c -2.92  -2.62
iter:   8 06:42:09  -329.336418c -3.21  -3.09
iter:   9 06:43:00  -329.336531c -3.66  -3.04
Writing to output.gpw (mode='')

iter:  10 06:43:53  -329.336534c -4.17  -3.36
iter:  11 06:44:44  -329.336602c -4.06  -3.41
iter:  12 06:45:35  -329.336571c -4.29  -3.48
iter:  13 06:46:26  -329.336562c -4.75  -3.64
iter:  14 06:47:17  -329.336557c -4.51  -3.69
Writing to output.gpw (mode='')

iter:  15 06:48:10  -329.336562c -4.79  -3.84
iter:  16 06:49:01  -329.336576c -4.91  -3.86
iter:  17 06:49:52  -329.336574c -5.14  -3.92
iter:  18 06:50:43  -329.336577c -5.04  -3.91
iter:  19 06:51:34  -329.336578c -5.40  -3.92
Writing to output.gpw (mode='')

iter:  20 06:52:27  -329.336581c -5.48  -3.91
iter:  21 06:53:18  -329.336589c -5.76  -3.92
iter:  22 06:54:09  -329.336582c -5.66  -4.15c
iter:  23 06:55:00  -329.336584c -5.85  -4.36c
iter:  24 06:55:51  -329.336588c -5.93  -4.39c
Writing to output.gpw (mode='')

iter:  25 06:56:44  -329.336585c -5.89  -4.52c
iter:  26 06:57:35  -329.336586c -6.21  -4.68c
iter:  27 06:58:26  -329.336588c -6.27  -4.71c
iter:  28 06:59:17  -329.336586c -6.50  -4.79c
iter:  29 07:00:08  -329.336587c -6.51  -4.91c
Writing to output.gpw (mode='')

iter:  30 07:01:01  -329.336587c -6.63  -5.03c
iter:  31 07:01:52  -329.336588c -6.75  -5.25c
iter:  32 07:02:43  -329.336587c -6.69  -5.32c
iter:  33 07:03:34  -329.336588c -7.00  -5.43c
iter:  34 07:04:25  -329.336588c -7.04  -5.36c
Writing to output.gpw (mode='')

iter:  35 07:05:18  -329.336588c -6.95  -5.45c
iter:  36 07:06:09  -329.336588c -6.97  -5.52c
iter:  37 07:07:00  -329.336588c -7.13  -5.56c
iter:  38 07:07:51  -329.336588c -7.29  -5.56c
iter:  39 07:08:42  -329.336589c -7.67c -5.52c

Converged after 39 iterations.

Dipole moment: (-9.038354, -3.592239, -0.086662) |e|*Ang

Energy contributions relative to reference atoms: (reference = -81178.542429)

Kinetic:       +117.521349
Potential:     -106.034431
External:        +0.000000
XC:            -341.002311
Entropy (-ST):   -0.153246
Local:           +0.255428
--------------------------
Free energy:   -329.413212
Extrapolated:  -329.336589

Dipole-layer corrected work functions: 3.404849, 3.571442 eV

Showing only first 2 kpts
 Kpt  Band  Eigenvalues  Occupancy
  0    25     -3.73529    1.98583
  0    26     -3.61423    1.85130
  0    27     -3.35050    0.11985
  0    28     -3.23817    0.01339

[...]

Effective grid spacing dv^(1/3) = 0.1611

     iter     time        total  log10-change:
                         energy  eigst   dens
iter:   1 19:16:50  -331.316231  -1.23
iter:   2 19:19:27  -331.311349  -1.16  -1.54
iter:   3 19:21:53  -331.232608  -2.68  -1.59
iter:   4 19:24:24  -331.231817  -3.07  -2.37
Writing to output.gpw (mode='')

iter:   5 19:26:55  -331.230555c -2.64  -2.48
iter:   6 19:29:35  -331.230594c -3.20  -2.80
iter:   7 19:32:05  -331.230436c -3.14  -2.85
iter:   8 19:34:43  -331.230447c -3.53  -3.13
iter:   9 19:37:09  -331.230432c -3.93  -3.20
Writing to output.gpw (mode='')

iter:  10 19:39:41  -331.230420c -4.12  -3.28
iter:  11 19:42:15  -331.230419c -4.46  -3.51
iter:  12 19:44:41  -331.230403c -4.56  -3.52
iter:  13 19:47:05  -331.230413c -4.90  -3.76
iter:  14 19:49:37  -331.230415c -4.99  -3.77
Writing to output.gpw (mode='')

iter:  15 19:52:14  -331.230417c -4.97  -3.86
iter:  16 19:54:41  -331.230417c -5.15  -3.88
iter:  17 19:57:12  -331.230418c -5.39  -3.92
iter:  18 19:59:45  -331.230419c -5.71  -4.19c
iter:  19 20:02:09  -331.230419c -5.45  -4.31c
Writing to output.gpw (mode='')

iter:  20 20:04:38  -331.230419c -5.74  -4.46c
iter:  21 20:07:18  -331.230419c -5.90  -4.48c
iter:  22 20:09:46  -331.230419c -6.00  -4.53c
iter:  23 20:12:15  -331.230419c -5.95  -4.60c
iter:  24 20:14:45  -331.230419c -6.32  -4.63c
Writing to output.gpw (mode='')

iter:  25 20:17:16  -331.230419c -6.27  -4.74c
iter:  26 20:19:48  -331.230420c -6.57  -4.78c
iter:  27 20:22:25  -331.230420c -6.74  -4.95c
iter:  28 20:24:52  -331.230421c -6.77  -5.02c
iter:  29 20:27:23  -331.230421c -6.99  -5.25c
Writing to output.gpw (mode='')

iter:  30 20:30:13  -331.230421c -6.94  -5.30c
iter:  31 20:32:39  -331.230421c -6.98  -5.37c
iter:  32 20:35:12  -331.230421c -7.18  -5.48c
iter:  33 20:37:48  -331.230421c -7.29  -5.47c
iter:  34 20:40:17  -331.230421c -7.41c -5.68c

Converged after 34 iterations.

Dipole moment: (20.727125, -3.337880, -0.194378) |e|*Ang

Energy contributions relative to reference atoms: (reference = -81178.542429)

Kinetic:       +104.929491
Potential:      -94.382660
External:        +0.000000
XC:            -341.985461
Entropy (-ST):   -0.178167
Local:           +0.297293
--------------------------
Free energy:   -331.319504
Extrapolated:  -331.230421

Dipole-layer corrected work functions: 3.406542, 3.780202 eV

Showing only first 2 kpts
 Kpt  Band  Eigenvalues  Occupancy
  0    25     -3.82971    1.98244
  0    26     -3.59706    1.03685
  0    27     -3.54459    0.54754
  0    28     -3.38146    0.02845

  1    25     -3.71305    1.83266
  1    26     -3.60113    1.07747
  1    27     -3.52900    0.43256
  1    28     -3.42046    0.06104


Fermi level: -3.59337

No gap
Writing to output.gpw (mode='')


Forces in eV/Ang:
  0 Li    0.00493   -0.00000   -0.27320
  1 Li   -0.00142   -0.00000   -0.27730
  2 Li   -0.00062   -0.00000   -0.25883
  3 Li   -0.01381    0.01669   -0.28662
  4 Li   -0.00660    0.01077   -0.28050
  5 Li   -0.00946    0.01709   -0.29446
  6 Li   -0.01381   -0.01669   -0.28661
  7 Li   -0.00660   -0.01078   -0.28051
  8 Li   -0.00946   -0.01709   -0.29444
  9 Li   -0.03856    0.01062    0.28512
 10 Li    0.00952   -0.02965    0.24684
 11 Li    0.01695    0.05072    0.28915
 12 Li   -0.03856   -0.01061    0.28515
 13 Li    0.00952    0.02966    0.24684
 14 Li    0.01695   -0.05073    0.28916
 15 Li   -0.00145    0.00002    0.24661
 16 Li    0.04679    0.00002    0.31752
 17 Li    0.00884    0.00003    0.24176
 18 Li    0.00801    0.00003    0.05968
 19 Li    0.01199   -0.00000    0.03605
 20 Li   -0.09522   -0.00012    0.05056
 21 Li    0.02279   -0.00182    0.01754
 22 Li    0.00859   -0.00289    0.02430
 23 Li    0.02488    0.00578    0.01031
 24 Li    0.02282    0.00181    0.01750
 25 Li    0.00859    0.00290    0.02431
 26 Li    0.02487   -0.00573    0.01028
 27 Li    0.03812    0.10712    0.00787
 28 Li    0.04008   -0.00802    0.01336
 29 Li   -0.09131   -0.11247   -0.12610
 30 Li    0.03781   -0.10816    0.00836
 31 Li    0.04007    0.00801    0.01335
 32 Li   -0.09133    0.11246   -0.12601
 33 Li   -0.01035   -0.00002   -0.01892
 34 Li   -0.01108    0.00000   -0.01317
 35 Li   -0.00338   -0.00003    0.01625
 36 Br    0.02802    0.00016    0.26907
 37 H    -0.00991   -0.00000   -0.35602
 38 N     0.22875    0.00080    0.44295
 39 N    -0.16170    0.00011   -0.31466

System changes: positions 

Initializing position-dependent things.

Density initialized from wave functions
       .-----------------------.  
      /|                       |  
     / |                       |  
    /  |                       |  
   /   |                       |  
  /    |                       |  
 *     |                       |  
 |     |                       |  
 |     |                       |  
 |     |                       |  
 |     |                       |  
 |     |                       |  
 |     |                 Br    |  
 |     |                 H     |  
 |     |       Li              Li 
 |     |                       |  
 |   Li|     Li      Li        |  
 |     |  Li      Li      Li   |  
 |     |   Li       Li   N Li  |  
 |     |Li      Li    N Li     |  
 |     |          Li           |  
 |   Li|     LLi     LLi       |  
 |    Li  Li      Li      Li   |  
 | Li  |   Li      Li          |  
 |     |Li      Li      Li     |  
 Li    | Li      Li            |  
 |    Li      Li      Li       |  
 |     |                       |  
 |     |                       |  
 |     |                       |  
 |     |                       |  
 |     |                       |  
 |     |                       |  
 |     .-----------------------.  
 |    /                       /   
 |   /                       /    
 |  /                       /     
 | /                       /      
 |/                       /       
 *-----------------------*        

Positions:
   0 Li     1.617037    1.617037   10.000000    ( 0.0000,  0.0000,  0.0000)
   1 Li     4.851111    1.617037   10.000000    ( 0.0000,  0.0000,  0.0000)
   2 Li     8.085185    1.617037   10.000000    ( 0.0000,  0.0000,  0.0000)
   3 Li     1.617037    4.851111   10.000000    ( 0.0000,  0.0000,  0.0000)
   4 Li     4.851111    4.851111   10.000000    ( 0.0000,  0.0000,  0.0000)
   5 Li     8.085185    4.851111   10.000000    ( 0.0000,  0.0000,  0.0000)
   6 Li     1.617037    8.085185   10.000000    ( 0.0000,  0.0000,  0.0000)
   7 Li     4.851111    8.085185   10.000000    ( 0.0000,  0.0000,  0.0000)
   8 Li     8.085185    8.085185   10.000000    ( 0.0000,  0.0000,  0.0000)
   9 Li     0.000000    0.000000   11.617037    ( 0.0000,  0.0000,  0.0000)
  10 Li     3.234074    0.000000   11.617037    ( 0.0000,  0.0000,  0.0000)
  11 Li     6.468148    0.000000   11.617037    ( 0.0000,  0.0000,  0.0000)
  12 Li     0.000000    3.234074   11.617037    ( 0.0000,  0.0000,  0.0000)
  13 Li     3.234074    3.234074   11.617037    ( 0.0000,  0.0000,  0.0000)
  14 Li     6.468148    3.234074   11.617037    ( 0.0000,  0.0000,  0.0000)
  15 Li     0.000000    6.468148   11.617037    ( 0.0000,  0.0000,  0.0000)
  16 Li     3.234074    6.468148   11.617037    ( 0.0000,  0.0000,  0.0000)
  17 Li     6.468148    6.468148   11.617037    ( 0.0000,  0.0000,  0.0000)
  18 Li     1.648919    1.617035   13.418309    ( 0.0000,  0.0000,  0.0000)
  19 Li     4.830180    1.617039   13.477394    ( 0.0000,  0.0000,  0.0000)
  20 Li     8.097994    1.617055   13.564468    ( 0.0000,  0.0000,  0.0000)
  21 Li     1.608450    4.830168   13.481775    ( 0.0000,  0.0000,  0.0000)
  22 Li     4.907240    4.825435   13.525065    ( 0.0000,  0.0000,  0.0000)
  23 Li     8.079437    4.848138   13.468512    ( 0.0000,  0.0000,  0.0000)
  24 Li     1.608420    8.106177   13.481817    ( 0.0000,  0.0000,  0.0000)
  25 Li     4.907233    8.110854   13.525057    ( 0.0000,  0.0000,  0.0000)
  26 Li     8.079461    8.088209   13.468560    ( 0.0000,  0.0000,  0.0000)
  27 Li    -0.047898   -0.076340   15.534578    ( 0.0000,  0.0000,  0.0000)
  28 Li     3.284846   -0.009486   15.436105    ( 0.0000,  0.0000,  0.0000)
  29 Li     6.724191    0.151485   15.530280    ( 0.0000,  0.0000,  0.0000)
  30 Li    -0.047931    3.310513   15.534491    ( 0.0000,  0.0000,  0.0000)
  31 Li     3.284837    3.243552   15.436106    ( 0.0000,  0.0000,  0.0000)
  32 Li     6.724238    3.082572   15.530276    ( 0.0000,  0.0000,  0.0000)
  33 Li     0.000760    6.468214   15.398005    ( 0.0000,  0.0000,  0.0000)
  34 Li     3.193013    6.468143   15.438916    ( 0.0000,  0.0000,  0.0000)
  35 Li     6.491471    6.468153   15.444123    ( 0.0000,  0.0000,  0.0000)
  36 Br    -0.462537    1.617166   21.395005    ( 0.0000,  0.0000,  0.0000)
  37 H     -0.593024    1.617069   19.985110    ( 0.0000,  0.0000,  0.0000)
  38 N     -0.559784    1.617160   16.433408    ( 0.0000,  0.0000,  0.0000)
  39 N     -1.435785    1.616881   15.576128    ( 0.0000,  0.0000,  0.0000)

Unit cell:
           periodic     x           y           z      points  spacing
  1. axis:    yes    9.702222    0.000000    0.000000    60     0.1617
  2. axis:    yes    0.000000    9.702222    0.000000    60     0.1617
  3. axis:    no     0.000000    0.000000   26.851111   168     0.1598

  Lengths:   9.702222   9.702222  26.851111
  Angles:   90.000000  90.000000  90.000000

Effective grid spacing dv^(1/3) = 0.1611

     iter     time        total  log10-change:
                         energy  eigst   dens
iter:   1 20:43:24  -331.353250  -0.92
iter:   2 20:46:01  -331.337785  -1.06  -1.47
iter:   3 20:48:28  -331.251558  -2.37  -1.56
iter:   4 20:51:06  -331.246489  -2.69  -2.06
Writing to output.gpw (mode='')

iter:   5 20:53:40  -331.243755c -2.60  -2.26
iter:   6 20:56:14  -331.243168c -2.38  -2.54
iter:   7 20:58:46  -331.243062c -2.67  -2.71
iter:   8 21:01:12  -331.243050c -3.03  -2.84
iter:   9 21:03:34  -331.243015c -3.32  -3.00
Writing to output.gpw (mode='')

iter:  10 21:06:02  -331.243035c -3.49  -3.08
iter:  11 21:08:25  -331.243049c -3.85  -3.03
iter:  12 21:11:04  -331.243209c -3.50  -3.06
iter:  13 21:13:42  -331.243011c -3.71  -3.06
iter:  14 21:16:13  -331.243056c -4.49  -3.34
Writing to output.gpw (mode='')

iter:  15 21:18:44  -331.243065c -4.60  -3.46
iter:  16 21:21:21  -331.243042c -4.43  -3.56
iter:  17 21:23:53  -331.243042c -4.57  -3.69
iter:  18 21:26:33  -331.243046c -4.90  -3.82
iter:  19 21:29:11  -331.243048c -4.89  -3.89
Writing to output.gpw (mode='')

iter:  20 21:31:47  -331.243051c -5.12  -4.04c
iter:  21 21:34:19  -331.243049c -5.34  -4.08c
iter:  22 21:36:42  -331.243050c -5.56  -4.20c
iter:  23 21:39:13  -331.243054c -5.53  -4.28c
iter:  24 21:41:43  -331.243053c -5.75  -4.41c
Writing to output.gpw (mode='')

iter:  25 21:44:12  -331.243055c -5.92  -4.47c
iter:  26 21:46:37  -331.243055c -5.94  -4.53c
iter:  27 21:49:13  -331.243055c -6.18  -4.60c
iter:  28 21:51:48  -331.243055c -6.37  -4.63c
iter:  29 21:54:17  -331.243055c -6.48  -4.90c
Writing to output.gpw (mode='')

iter:  30 21:56:45  -331.243055c -6.49  -5.15c
iter:  31 21:59:17  -331.243055c -6.66  -5.12c
iter:  32 22:01:49  -331.243055c -6.48  -5.08c
iter:  33 22:04:18  -331.243055c -6.87  -4.97c
iter:  34 22:06:47  -331.243055c -6.97  -4.95c
Writing to output.gpw (mode='')

iter:  35 22:09:14  -331.243055c -6.94  -4.95c
iter:  36 22:11:35  -331.243055c -7.23  -5.06c
iter:  37 22:14:02  -331.243055c -7.18  -5.02c
iter:  38 22:16:25  -331.243056c -7.13  -5.11c
iter:  39 22:18:52  -331.243056c -7.43c -5.23c

Converged after 39 iterations.

Dipole moment: (20.851475, -3.498879, -0.194096) |e|*Ang

Energy contributions relative to reference atoms: (reference = -81178.542429)

Kinetic:       +105.592117
Potential:      -94.936122
External:        +0.000000
XC:            -342.106937
Entropy (-ST):   -0.177776
Local:           +0.296775
--------------------------
Free energy:   -331.331944
Extrapolated:  -331.243056

Dipole-layer corrected work functions: 3.405771, 3.778891 eV

Showing only first 2 kpts
 Kpt  Band  Eigenvalues  Occupancy
  0    25     -3.82827    1.98231
  0    26     -3.59550    1.03166
  0    27     -3.54504    0.55947
  0    28     -3.37775    0.02699

  1    25     -3.71227    1.83348
  1    26     -3.60077    1.08414
  1    27     -3.52799    0.43278
  1    28     -3.41751    0.05883


Fermi level: -3.59233

No gap
Writing to output.gpw (mode='')


Forces in eV/Ang:
  0 Li    0.00573   -0.00001   -0.27374
  1 Li   -0.00173   -0.00000   -0.27838
  2 Li   -0.00085   -0.00001   -0.26088
  3 Li   -0.01398    0.01664   -0.28705
  4 Li   -0.00677    0.01106   -0.28087
  5 Li   -0.00945    0.01775   -0.29488
  6 Li   -0.01398   -0.01665   -0.28705
  7 Li   -0.00678   -0.01107   -0.28089
  8 Li   -0.00945   -0.01775   -0.29486
  9 Li   -0.03954    0.01552    0.29388
 10 Li    0.00994   -0.02747    0.24980
 11 Li    0.01719    0.05095    0.29582
 12 Li   -0.03954   -0.01551    0.29391
 13 Li    0.00996    0.02748    0.24980
 14 Li    0.01720   -0.05097    0.29584
 15 Li    0.00053    0.00003    0.24740
 16 Li    0.04686    0.00002    0.31764
 17 Li    0.01025    0.00002    0.24507
 18 Li    0.01133    0.00002    0.04474
 19 Li    0.00390    0.00000    0.02328
 20 Li   -0.08018   -0.00019    0.04288
 21 Li    0.01711   -0.00550    0.01768
 22 Li    0.00812   -0.00045    0.01694
 23 Li    0.02659    0.00291    0.00787
 24 Li    0.01717    0.00546    0.01763
 25 Li    0.00813    0.00048    0.01693
 26 Li    0.02657   -0.00290    0.00781
 27 Li    0.05457    0.01818   -0.01640
 28 Li    0.03699   -0.00637    0.01502
 29 Li   -0.05925   -0.07207   -0.10323
 30 Li    0.05458   -0.01804   -0.01650
 31 Li    0.03701    0.00636    0.01501
 32 Li   -0.05927    0.07207   -0.10309
 33 Li   -0.00819   -0.00007   -0.01504
 34 Li   -0.00615    0.00001   -0.00941
 35 Li   -0.00789   -0.00003    0.01425
 36 Br    0.04519    0.00014    0.39519
 37 H    -0.03038   -0.00002   -0.48530
 38 N     0.28554   -0.00071    0.61331
 39 N    -0.41032    0.00044   -0.44849

System changes: positions 

Initializing position-dependent things.

Density initialized from wave functions
       .-----------------------.  
      /|                       |  
     / |                       |  
    /  |                       |  
   /   |                       |  
  /    |                       |  
 *     |                       |  
 |     |                       |  
 |     |                       |  
 |     |                       |  
 |     |                       |  
 |     |                       |  
 |     |                 Br    |  
 |     |                 H     |  
 |     |       Li              Li 
 |     |                       |  
 |     |     Li      Li      Li|  
 |     |  Li      Li      Li   |  
 |     |   Li       Li   N Li  |  
 |     |Li      Li    N Li     |  
 |     |          Li           |  
 |   LLi     LLi     LLi       |  
 |     |  Li      Li      Li   |  
 | Li  |   Li      Li          |  
 |     |Li      Li      Li     |  
 Li    | Li      Li            |  
 |    Li      Li      Li       |  
 |     |                       |  
 |     |                       |  
 |     |                       |  
 |     |                       |  
 |     |                       |  
 |     |                       |  
 |     .-----------------------.  
 |    /                       /   
 |   /                       /    
 |  /                       /     
 | /                       /      
 |/                       /       
 *-----------------------*        

Positions:
   0 Li     1.617037    1.617037   10.000000    ( 0.0000,  0.0000,  0.0000)
   1 Li     4.851111    1.617037   10.000000    ( 0.0000,  0.0000,  0.0000)
   2 Li     8.085185    1.617037   10.000000    ( 0.0000,  0.0000,  0.0000)
   3 Li     1.617037    4.851111   10.000000    ( 0.0000,  0.0000,  0.0000)
   4 Li     4.851111    4.851111   10.000000    ( 0.0000,  0.0000,  0.0000)
   5 Li     8.085185    4.851111   10.000000    ( 0.0000,  0.0000,  0.0000)
   6 Li     1.617037    8.085185   10.000000    ( 0.0000,  0.0000,  0.0000)
   7 Li     4.851111    8.085185   10.000000    ( 0.0000,  0.0000,  0.0000)
   8 Li     8.085185    8.085185   10.000000    ( 0.0000,  0.0000,  0.0000)
   9 Li     0.000000    0.000000   11.617037    ( 0.0000,  0.0000,  0.0000)
  10 Li     3.234074    0.000000   11.617037    ( 0.0000,  0.0000,  0.0000)
  11 Li     6.468148    0.000000   11.617037    ( 0.0000,  0.0000,  0.0000)
  12 Li     0.000000    3.234074   11.617037    ( 0.0000,  0.0000,  0.0000)
  13 Li     3.234074    3.234074   11.617037    ( 0.0000,  0.0000,  0.0000)
  14 Li     6.468148    3.234074   11.617037    ( 0.0000,  0.0000,  0.0000)
  15 Li     0.000000    6.468148   11.617037    ( 0.0000,  0.0000,  0.0000)
  16 Li     3.234074    6.468148   11.617037    ( 0.0000,  0.0000,  0.0000)
  17 Li     6.468148    6.468148   11.617037    ( 0.0000,  0.0000,  0.0000)
  18 Li     1.649258    1.617039   13.429314    ( 0.0000,  0.0000,  0.0000)
  19 Li     4.832690    1.617038   13.483879    ( 0.0000,  0.0000,  0.0000)
  20 Li     8.085257    1.617046   13.586102    ( 0.0000,  0.0000,  0.0000)
  21 Li     1.612625    4.830610   13.484337    ( 0.0000,  0.0000,  0.0000)
  22 Li     4.907766    4.825177   13.528772    ( 0.0000,  0.0000,  0.0000)
  23 Li     8.083096    4.849554   13.470386    ( 0.0000,  0.0000,  0.0000)
  24 Li     1.612596    8.105736   13.484376    ( 0.0000,  0.0000,  0.0000)
  25 Li     4.907758    8.111111   13.528765    ( 0.0000,  0.0000,  0.0000)
  26 Li     8.083121    8.086802   13.470434    ( 0.0000,  0.0000,  0.0000)
  27 Li    -0.043431   -0.049710   15.537742    ( 0.0000,  0.0000,  0.0000)
  28 Li     3.290464   -0.010757   15.438066    ( 0.0000,  0.0000,  0.0000)
  29 Li     6.707647    0.133692   15.507911    ( 0.0000,  0.0000,  0.0000)
  30 Li    -0.043512    3.283700   15.537748    ( 0.0000,  0.0000,  0.0000)
  31 Li     3.290452    3.244822   15.438066    ( 0.0000,  0.0000,  0.0000)
  32 Li     6.707683    3.100373   15.507915    ( 0.0000,  0.0000,  0.0000)
  33 Li    -0.000852    6.468216   15.395246    ( 0.0000,  0.0000,  0.0000)
  34 Li     3.191503    6.468143   15.436595    ( 0.0000,  0.0000,  0.0000)
  35 Li     6.490832    6.468148   15.446303    ( 0.0000,  0.0000,  0.0000)
  36 Br    -0.456546    1.617180   21.378119    ( 0.0000,  0.0000,  0.0000)
  37 H     -0.597198    1.617069   19.967061    ( 0.0000,  0.0000,  0.0000)
  38 N     -0.559873    1.617326   16.447049    ( 0.0000,  0.0000,  0.0000)
  39 N     -1.435257    1.616833   15.585782    ( 0.0000,  0.0000,  0.0000)

Unit cell:
           periodic     x           y           z      points  spacing
  1. axis:    yes    9.702222    0.000000    0.000000    60     0.1617
  2. axis:    yes    0.000000    9.702222    0.000000    60     0.1617
  3. axis:    no     0.000000    0.000000   26.851111   168     0.1598

  Lengths:   9.702222   9.702222  26.851111
  Angles:   90.000000  90.000000  90.000000

Effective grid spacing dv^(1/3) = 0.1611

     iter     time        total  log10-change:
                         energy  eigst   dens
iter:   1 22:21:55  -331.335952  -0.89
iter:   2 22:24:27  -331.305150  -1.47  -1.56
iter:   3 22:26:54  -331.277924  -2.19  -1.72
iter:   4 22:29:31  -331.260386  -2.21  -1.89
Writing to output.gpw (mode='')

iter:   5 22:31:56  -331.259330c -2.71  -2.31
iter:   6 22:34:31  -331.258036c -2.30  -2.40
iter:   7 22:36:57  -331.258083c -2.59  -2.64
iter:   8 22:39:35  -331.258004c -2.93  -2.72
iter:   9 22:42:04  -331.257975c -2.91  -2.92
Writing to output.gpw (mode='')

iter:  10 22:44:37  -331.257932c -3.47  -2.97
iter:  11 22:47:04  -331.257933c -3.65  -3.12
iter:  12 22:49:36  -331.257925c -3.95  -3.34
iter:  13 22:52:06  -331.257916c -4.01  -3.38
iter:  14 22:54:42  -331.257936c -4.14  -3.57
Writing to output.gpw (mode='')

iter:  15 22:57:14  -331.257933c -4.56  -3.59
iter:  16 22:59:41  -331.257937c -4.57  -3.64
iter:  17 23:02:10  -331.257952c -4.72  -3.74
