
  ___ ___ ___ _ _ _  
 |   |   |_  | | | | 
 | | | | | . | | | | 
 |__ |  _|___|_____|  22.8.0
 |___|_|             

User:   vazumah@c22.hercules
Date:   Thu Mar  9 17:34:25 2023
Arch:   x86_64
Pid:    19252
CWD:    /home/vazumah/Python_projects/LiNRR/Li_adsorb_studies/proton_donors/N2_with_proton_donor/Li_BCC_100/adsorbates/HBr/bridge/0.0_1.617/N2_x
Python: 3.10.8
gpaw:   /home/vazumah/.conda/envs/GPAW/lib/python3.10/site-packages/gpaw
_gpaw:  /home/vazumah/.conda/envs/GPAW/lib/python3.10/site-packages/
        _gpaw.cpython-310-x86_64-linux-gnu.so
ase:    /home/vazumah/.conda/envs/GPAW/lib/python3.10/site-packages/ase (version 3.22.1)
numpy:  /home/vazumah/.conda/envs/GPAW/lib/python3.10/site-packages/numpy (version 1.24.1)
scipy:  /home/vazumah/.conda/envs/GPAW/lib/python3.10/site-packages/scipy (version 1.10.0)
libxc:  5.2.3
units:  Angstrom and eV
cores: 24
OpenMP: True
OMP_NUM_THREADS: 1

Reading from output.gpw
Reading input parameters:
  h: 0.16
  kpts: {size: [4, 4, 1]}
  occupations: {name: fermi-dirac,
                width: 0.05}
  poissonsolver: {dipolelayer: xy}
  xc: BEEF-vdW

Initialize ...

species:
  Li:
    name: Lithium
    id: 830b4218f175192f93f959cfc0aad614
    Z: 3.0
    valence: 1
    core: 2
    charge: 0.0
    file: /home/vazumah/.conda/envs/GPAW/share/gpaw/Li.PBE.gz
    compensation charges: {type: gauss,
                           rc: 0.33,
                           lmax: 2}
    cutoffs: {filter: 1.91,
              core: 2.55}
    valence states:
      #              energy  rcut
      - 2s(1.00)    -2.874   1.058
      - 2p(0.00)    -1.090   1.058
      -  s          24.337   1.058
  
    # Using partial waves for Li as LCAO basis

  Br:
    name: Bromine
    id: 39dc90fcf3bf77f2d83386b416c2c495
    Z: 35.0
    valence: 7
    core: 28
    charge: 0.0
    file: /home/vazumah/.conda/envs/GPAW/share/gpaw/Br.PBE.gz
    compensation charges: {type: gauss,
                           rc: 0.35,
                           lmax: 2}
    cutoffs: {filter: 1.98,
              core: 2.38}
    valence states:
      #              energy  rcut
      - 4s(2.00)   -20.121   1.111
      - 4p(5.00)    -7.861   1.111
      -  s           7.091   1.111
      -  p          19.351   1.111
      -  d           0.000   1.111
  
    # Using partial waves for Br as LCAO basis

  H:
    name: Hydrogen
    id: d65de229564ff8ea4db303e23b6d1ecf
    Z: 1.0
    valence: 1
    core: 0
    charge: 0.0
    file: /home/vazumah/.conda/envs/GPAW/share/gpaw/H.PBE.gz
    compensation charges: {type: gauss,
                           rc: 0.15,
                           lmax: 2}
    cutoffs: {filter: 0.85,
              core: 0.53}
    valence states:
      #              energy  rcut
      - 1s(1.00)    -6.494   0.476
      -  s          20.717   0.476
      -  p           0.000   0.476
  
    # Using partial waves for H as LCAO basis

  N:
    name: Nitrogen
    id: f7500608b86eaa90eef8b1d9a670dc53
    Z: 7.0
    valence: 5
    core: 2
    charge: 0.0
    file: /home/vazumah/.conda/envs/GPAW/share/gpaw/N.PBE.gz
    compensation charges: {type: gauss,
                           rc: 0.18,
                           lmax: 2}
    cutoffs: {filter: 1.11,
              core: 0.96}
    valence states:
      #              energy  rcut
      - 2s(2.00)   -18.583   0.603
      - 2p(3.00)    -7.089   0.529
      -  s           8.629   0.603
      -  p          20.123   0.529
      -  d           0.000   0.577
  
    # Using partial waves for N as LCAO basis

Reference energy: -81178.542429  # eV

Spin-paired calculation

Convergence criteria:
 Maximum [total energy] change in last 3 cyles: 0.0005 eV / electron
 Maximum integral of absolute [dens]ity change: 0.0001 electrons / valence electron
 Maximum integral of absolute [eigenst]ate change: 4e-08 eV^2 / valence electron
 Maximum number of scf [iter]ations: 333
 (Square brackets indicate name in SCF output, whereas a 'c' in
 the SCF output indicates the quantity has converged.)

Symmetries present (total): 1

  ( 1  0  0)
  ( 0  1  0)
  ( 0  0  1)

16 k-points: 4 x 4 x 1 Monkhorst-Pack grid
8 k-points in the irreducible part of the Brillouin zone
       k-points in crystal coordinates                weights
   0:     0.12500000   -0.37500000    0.00000000          2/16
   1:     0.12500000   -0.12500000    0.00000000          2/16
   2:     0.12500000    0.12500000    0.00000000          2/16
   3:     0.12500000    0.37500000    0.00000000          2/16
   4:     0.37500000   -0.37500000    0.00000000          2/16
   5:     0.37500000   -0.12500000    0.00000000          2/16
   6:     0.37500000    0.12500000    0.00000000          2/16
   7:     0.37500000    0.37500000    0.00000000          2/16

Wave functions: Uniform real-space grid
  Kinetic energy operator: 6*3+1=19 point O(h^6) finite-difference Laplacian
  ScaLapack parameters: grid=1x1, blocksize=None
  Wavefunction extrapolation:
    Improved wavefunction reuse through dual PAW basis 

Occupation numbers: Fermi-Dirac:
  width: 0.0500  # eV
 

Eigensolver
   Davidson(niter=2) 

Densities:
  Coarse grid: 60*60*168 grid
  Fine grid: 120*120*336 grid
  Total Charge: 0.000000 

Density mixing:
  Method: separate
  Backend: pulay
  Linear mixing parameter: 0.05
  old densities: 5
  Damping of long wavelength oscillations: 50 

Hamiltonian:
  XC and Coulomb potentials evaluated on a 120*120*336 grid
  Using the BEEF-vdW Exchange-Correlation functional
  Interpolation: tri-quintic (5. degree polynomial)
  Poisson solver: FastPoissonSolver using
    Stencil: 6*3+1=19 point O(h^6) finite-difference Laplacian
    FFT axes: [0, 1]
    FST axes: [2]

Dipole correction along z-axis 

XC parameters: BEEF-vdW with 2 nearest neighbor stencil

Memory estimate:
  Process memory now: 228.84 MiB
  Calculator: 395.41 MiB
    Density: 121.75 MiB
      Arrays: 39.61 MiB
      Localized functions: 67.04 MiB
      Mixer: 15.11 MiB
    Hamiltonian: 31.20 MiB
      Arrays: 25.90 MiB
      XC: 0.00 MiB
      Poisson: 0.00 MiB
      vbar: 5.30 MiB
    Wavefunctions: 242.46 MiB
      Arrays psit_nG: 111.79 MiB
      Eigensolver: 127.10 MiB
      Projections: 0.04 MiB
      Projectors: 3.53 MiB

Total number of cores used: 24
Parallelization over k-points: 8
Domain decomposition: 1 x 1 x 3

Number of atoms: 40
Number of atomic orbitals: 157
Number of bands in calculation: 37
Number of valence electrons: 54
Bands to converge: occupied

... initialized

Initializing position-dependent things.

Creating initial wave functions:
  37 bands from LCAO basis set

       .-----------------------.  
      /|                       |  
     / |                       |  
    /  |                       |  
   /   |                       |  
  /    |                       |  
 *     |                       |  
 |     |                       |  
 |     |                       |  
 |     |                       |  
 |     |                       |  
 |     |                       |  
 |     |                       |  
 |     |                 Br    |  
 |     |       Li              |  
 |     |                H      |  
 |   Li|     Li      Li        |  
 |     |  Li      Li      Li   |  
 | Li  |   Li       Li N       |  
 |     |Li      Li    N Li     |  
 |     |          Li     Li    |  
 |   LLi     LLi     LLi       |  
 |     |  Li      Li      Li   |  
 | Li  |   Li      Li          |  
 |     |Li      Li      Li     |  
 Li    | Li      Li            |  
 |    Li      Li      Li       |  
 |     |                       |  
 |     |                       |  
 |     |                       |  
 |     |                       |  
 |     |                       |  
 |     |                       |  
 |     .-----------------------.  
 |    /                       /   
 |   /                       /    
 |  /                       /     
 | /                       /      
 |/                       /       
 *-----------------------*        

Positions:
   0 Li     1.617037    1.617037   10.000000    ( 0.0000,  0.0000,  0.0000)
   1 Li     4.851111    1.617037   10.000000    ( 0.0000,  0.0000,  0.0000)
   2 Li     8.085185    1.617037   10.000000    ( 0.0000,  0.0000,  0.0000)
   3 Li     1.617037    4.851111   10.000000    ( 0.0000,  0.0000,  0.0000)
   4 Li     4.851111    4.851111   10.000000    ( 0.0000,  0.0000,  0.0000)
   5 Li     8.085185    4.851111   10.000000    ( 0.0000,  0.0000,  0.0000)
   6 Li     1.617037    8.085185   10.000000    ( 0.0000,  0.0000,  0.0000)
   7 Li     4.851111    8.085185   10.000000    ( 0.0000,  0.0000,  0.0000)
   8 Li     8.085185    8.085185   10.000000    ( 0.0000,  0.0000,  0.0000)
   9 Li     0.000000    0.000000   11.617037    ( 0.0000,  0.0000,  0.0000)
  10 Li     3.234074    0.000000   11.617037    ( 0.0000,  0.0000,  0.0000)
  11 Li     6.468148    0.000000   11.617037    ( 0.0000,  0.0000,  0.0000)
  12 Li     0.000000    3.234074   11.617037    ( 0.0000,  0.0000,  0.0000)
  13 Li     3.234074    3.234074   11.617037    ( 0.0000,  0.0000,  0.0000)
  14 Li     6.468148    3.234074   11.617037    ( 0.0000,  0.0000,  0.0000)
  15 Li     0.000000    6.468148   11.617037    ( 0.0000,  0.0000,  0.0000)
  16 Li     3.234074    6.468148   11.617037    ( 0.0000,  0.0000,  0.0000)
  17 Li     6.468148    6.468148   11.617037    ( 0.0000,  0.0000,  0.0000)
  18 Li     1.654811    1.616855   13.539581    ( 0.0000,  0.0000,  0.0000)
  19 Li     4.882117    1.615599   13.518888    ( 0.0000,  0.0000,  0.0000)
  20 Li     8.059895    1.610051   13.588806    ( 0.0000,  0.0000,  0.0000)
  21 Li     1.578324    4.831655   13.584211    ( 0.0000,  0.0000,  0.0000)
  22 Li     4.913753    4.804335   13.573863    ( 0.0000,  0.0000,  0.0000)
  23 Li     8.153998    4.873452   13.506537    ( 0.0000,  0.0000,  0.0000)
  24 Li     1.581492    8.097107   13.579718    ( 0.0000,  0.0000,  0.0000)
  25 Li     4.914742    8.130463   13.574041    ( 0.0000,  0.0000,  0.0000)
  26 Li     8.152859    8.060444   13.504143    ( 0.0000,  0.0000,  0.0000)
  27 Li    -0.017566    0.125925   15.741172    ( 0.0000,  0.0000,  0.0000)
  28 Li     3.296602   -0.004046   15.503141    ( 0.0000,  0.0000,  0.0000)
  29 Li     6.726565    0.079459   15.499121    ( 0.0000,  0.0000,  0.0000)
  30 Li     0.010842    3.107753   15.754578    ( 0.0000,  0.0000,  0.0000)
  31 Li     3.293814    3.237665   15.503164    ( 0.0000,  0.0000,  0.0000)
  32 Li     6.731211    3.135705   15.489654    ( 0.0000,  0.0000,  0.0000)
  33 Li     0.015766    6.462355   15.562777    ( 0.0000,  0.0000,  0.0000)
  34 Li     3.240467    6.469940   15.478161    ( 0.0000,  0.0000,  0.0000)
  35 Li     6.497316    6.468356   15.461012    ( 0.0000,  0.0000,  0.0000)
  36 Br    -0.426610    1.629578   20.137710    ( 0.0000,  0.0000,  0.0000)
  37 H     -0.829215    1.614960   18.745637    ( 0.0000,  0.0000,  0.0000)
  38 N     -1.063276    1.600281   16.644282    ( 0.0000,  0.0000,  0.0000)
  39 N     -1.532742    1.623091   15.479427    ( 0.0000,  0.0000,  0.0000)

Unit cell:
           periodic     x           y           z      points  spacing
  1. axis:    yes    9.702222    0.000000    0.000000    60     0.1617
  2. axis:    yes    0.000000    9.702222    0.000000    60     0.1617
  3. axis:    no     0.000000    0.000000   26.851111   168     0.1598

  Lengths:   9.702222   9.702222  26.851111
  Angles:   90.000000  90.000000  90.000000

Effective grid spacing dv^(1/3) = 0.1611

     iter     time        total  log10-change:
                         energy  eigst   dens
iter:   1 17:36:05  -330.795479  +0.94
iter:   2 17:36:46  -331.225514  +0.33  -1.76
iter:   3 17:37:27  -331.349580  -0.13  -2.00
iter:   4 17:38:08  -331.398701  -0.52  -2.20
Writing to output.gpw (mode='')

iter:   5 17:38:53  -331.419853  -0.87  -2.39
iter:   6 17:39:34  -331.430141  -1.19  -2.66
iter:   7 17:40:15  -331.435030c -1.49  -2.78
iter:   8 17:40:56  -331.437978c -1.72  -3.05
iter:   9 17:41:37  -331.439784c -1.95  -3.10
Writing to output.gpw (mode='')

iter:  10 17:42:23  -331.440941c -2.14  -3.06
iter:  11 17:43:04  -331.441770c -2.25  -2.98
iter:  12 17:43:45  -331.442409c -2.42  -2.91
iter:  13 17:44:26  -331.442836c -2.58  -2.82
iter:  14 17:45:08  -331.443170c -2.64  -2.78
Writing to output.gpw (mode='')

iter:  15 17:45:51  -331.443357c -2.82  -2.71
iter:  16 17:46:32  -331.443336c -2.96  -2.71
iter:  17 17:47:13  -331.443474c -3.03  -2.84
iter:  18 17:47:54  -331.443435c -3.11  -2.82
iter:  19 17:48:36  -331.443471c -3.22  -3.05
Writing to output.gpw (mode='')

iter:  20 17:49:19  -331.443519c -3.30  -3.21
iter:  21 17:50:00  -331.443546c -3.58  -3.36
iter:  22 17:50:41  -331.443582c -3.61  -3.44
iter:  23 17:51:22  -331.443595c -3.86  -3.50
iter:  24 17:52:03  -331.443619c -3.82  -3.55
Writing to output.gpw (mode='')

iter:  25 17:52:46  -331.443643c -3.93  -3.72
iter:  26 17:53:27  -331.443660c -4.20  -3.81
iter:  27 17:54:09  -331.443674c -4.18  -4.00
iter:  28 17:54:50  -331.443682c -4.30  -4.05c
iter:  29 17:55:31  -331.443686c -4.50  -4.05c
Writing to output.gpw (mode='')

iter:  30 17:56:14  -331.443689c -4.62  -4.03c
iter:  31 17:56:55  -331.443693c -4.54  -4.06c
iter:  32 17:57:36  -331.443700c -4.67  -4.06c
iter:  33 17:58:17  -331.443702c -4.97  -3.99
iter:  34 17:58:58  -331.443702c -5.02  -3.96
Writing to output.gpw (mode='')

iter:  35 17:59:41  -331.443705c -5.11  -4.03c
iter:  36 18:00:22  -331.443705c -5.07  -4.02c
iter:  37 18:01:03  -331.443708c -5.07  -4.02c
iter:  38 18:01:44  -331.443707c -5.26  -3.99
iter:  39 18:02:25  -331.443704c -5.23  -3.95
Writing to output.gpw (mode='')

iter:  40 18:03:11  -331.443707c -5.48  -3.98
iter:  41 18:03:53  -331.443707c -5.54  -3.88
iter:  42 18:04:34  -331.443705c -5.61  -4.00
iter:  43 18:05:15  -331.443705c -5.68  -4.01c
iter:  44 18:05:56  -331.443704c -5.71  -4.01c
Writing to output.gpw (mode='')

iter:  45 18:06:39  -331.443708c -5.79  -4.01c
iter:  46 18:07:20  -331.443708c -5.94  -4.10c
iter:  47 18:08:01  -331.443710c -5.84  -4.15c
iter:  48 18:08:42  -331.443711c -6.13  -4.42c
iter:  49 18:09:23  -331.443710c -5.95  -4.49c
Writing to output.gpw (mode='')

iter:  50 18:10:08  -331.443709c -6.09  -4.73c
iter:  51 18:10:49  -331.443710c -6.29  -4.73c
iter:  52 18:11:30  -331.443710c -6.43  -4.77c
iter:  53 18:12:11  -331.443709c -6.43  -4.86c
iter:  54 18:12:53  -331.443710c -6.63  -4.91c
Writing to output.gpw (mode='')

iter:  55 18:13:36  -331.443710c -6.47  -4.93c
iter:  56 18:14:17  -331.443710c -6.79  -4.85c
iter:  57 18:14:58  -331.443709c -6.76  -5.03c
iter:  58 18:15:39  -331.443710c -6.89  -5.13c
iter:  59 18:16:20  -331.443710c -6.74  -5.20c
Writing to output.gpw (mode='')

iter:  60 18:17:04  -331.443710c -7.03  -5.32c
iter:  61 18:17:45  -331.443709c -7.08  -5.34c
iter:  62 18:18:26  -331.443710c -7.03  -5.41c
iter:  63 18:19:07  -331.443710c -7.36  -5.62c
iter:  64 18:19:48  -331.443710c -7.20  -5.63c
Writing to output.gpw (mode='')

iter:  65 18:20:34  -331.443710c -7.32  -5.66c
iter:  66 18:21:15  -331.443710c -7.29  -5.72c
iter:  67 18:21:56  -331.443710c -7.35  -5.83c
iter:  68 18:22:37  -331.443710c -7.48c -5.89c

Converged after 68 iterations.

Dipole moment: (13.612823, -5.078891, -0.359883) |e|*Ang

Energy contributions relative to reference atoms: (reference = -81178.542429)

Kinetic:       +100.663707
Potential:      -90.921732
External:        +0.000000
XC:            -341.395090
Entropy (-ST):   -0.187523
Local:           +0.303166
--------------------------
Free energy:   -331.537471
Extrapolated:  -331.443710

Dipole-layer corrected work functions: 3.408427, 4.100245 eV

Showing only first 2 kpts
 Kpt  Band  Eigenvalues  Occupancy
  0    25     -3.96620    1.97152
  0    26     -3.77005    1.15588
  0    27     -3.71101    0.59194
  0    28     -3.59782    0.08374

  1    25     -3.92738    1.93911
  1    26     -3.76030    1.05960
  1    27     -3.69968    0.50210
  1    28     -3.62941    0.15192


Fermi level: -3.75434

Gap: 0.036 eV
Transition (v -> c):
  (s=0, k=1, n=26, [0.12, -0.12, 0.00]) -> (s=0, k=4, n=27, [0.38, -0.38, 0.00])
Writing to output.gpw (mode='')


Forces in eV/Ang:
  0 Li    0.00157    0.00107   -0.29169
  1 Li    0.00292    0.00073   -0.28740
  2 Li   -0.00683    0.00041   -0.26872
  3 Li   -0.00990    0.00790   -0.28805
  4 Li   -0.01071    0.01041   -0.29429
  5 Li   -0.01255    0.00779   -0.29630
  6 Li   -0.00998   -0.00741   -0.28835
  7 Li   -0.01038   -0.00959   -0.29309
  8 Li   -0.01293   -0.00777   -0.29633
  9 Li   -0.01779    0.04543    0.32898
 10 Li   -0.00585   -0.01564    0.30670
 11 Li    0.04039    0.01729    0.31650
 12 Li   -0.01949   -0.04715    0.32623
 13 Li   -0.00626    0.01365    0.30648
 14 Li    0.04163   -0.01875    0.31802
 15 Li    0.04871   -0.00227    0.23827
 16 Li    0.01761   -0.00224    0.38684
 17 Li    0.02447   -0.00082    0.30113
 18 Li   -0.02120   -0.00299   -0.04419
 19 Li   -0.04253   -0.00105   -0.01786
 20 Li    0.00172    0.01842   -0.02263
 21 Li    0.01723   -0.03750    0.00139
 22 Li    0.00999    0.01788   -0.03606
 23 Li    0.00346   -0.03297    0.01543
 24 Li    0.01023    0.04429    0.00520
 25 Li    0.00938   -0.01858   -0.03600
 26 Li    0.00496    0.03032    0.01655
 27 Li    0.00381   -0.03643   -0.04251
 28 Li    0.00769   -0.01541    0.02116
 29 Li    0.02774    0.03066    0.02010
 30 Li   -0.06771   -0.03603   -0.01989
 31 Li    0.01650    0.01827    0.02073
 32 Li   -0.00296    0.01288    0.01922
 33 Li   -0.00084    0.00573   -0.01289
 34 Li    0.00261   -0.00323    0.01793
 35 Li   -0.02913   -0.00177    0.02493
 36 Br   -0.03008    0.00322   -0.11239
 37 H     0.00882    0.00734    0.06487
 38 N     0.04077    0.02723   -0.24201
 39 N    -0.02213   -0.05607    0.12314

System changes: positions 

Initializing position-dependent things.

Density initialized from wave functions
       .-----------------------.  
      /|                       |  
     / |                       |  
    /  |                       |  
   /   |                       |  
  /    |                       |  
 *     |                       |  
 |     |                       |  
 |     |                       |  
 |     |                       |  
 |     |                       |  
 |     |                       |  
 |     |                       |  
 |     |                 Br    |  
 |     |       Li              |  
 |     |                H      |  
 |   Li|     Li      Li        |  
 |     |  Li      Li      Li   |  
 | Li  |   Li       Li N       |  
 |     |Li      Li    N Li     |  
 |     |          Li     Li    |  
 |   LLi     LLi     LLi       |  
 |     |  Li      Li      Li   |  
 | Li  |   Li      Li          |  
 |     |Li      Li      Li     |  
 Li    | Li      Li            |  
 |    Li      Li      Li       |  
 |     |                       |  
 |     |                       |  
 |     |                       |  
 |     |                       |  
 |     |                       |  
 |     |                       |  
 |     .-----------------------.  
 |    /                       /   
 |   /                       /    
 |  /                       /     
 | /                       /      
 |/                       /       
 *-----------------------*        

Positions:
   0 Li     1.617037    1.617037   10.000000    ( 0.0000,  0.0000,  0.0000)
   1 Li     4.851111    1.617037   10.000000    ( 0.0000,  0.0000,  0.0000)
   2 Li     8.085185    1.617037   10.000000    ( 0.0000,  0.0000,  0.0000)
   3 Li     1.617037    4.851111   10.000000    ( 0.0000,  0.0000,  0.0000)
   4 Li     4.851111    4.851111   10.000000    ( 0.0000,  0.0000,  0.0000)
   5 Li     8.085185    4.851111   10.000000    ( 0.0000,  0.0000,  0.0000)
   6 Li     1.617037    8.085185   10.000000    ( 0.0000,  0.0000,  0.0000)
   7 Li     4.851111    8.085185   10.000000    ( 0.0000,  0.0000,  0.0000)
   8 Li     8.085185    8.085185   10.000000    ( 0.0000,  0.0000,  0.0000)
   9 Li     0.000000    0.000000   11.617037    ( 0.0000,  0.0000,  0.0000)
  10 Li     3.234074    0.000000   11.617037    ( 0.0000,  0.0000,  0.0000)
  11 Li     6.468148    0.000000   11.617037    ( 0.0000,  0.0000,  0.0000)
  12 Li     0.000000    3.234074   11.617037    ( 0.0000,  0.0000,  0.0000)
  13 Li     3.234074    3.234074   11.617037    ( 0.0000,  0.0000,  0.0000)
  14 Li     6.468148    3.234074   11.617037    ( 0.0000,  0.0000,  0.0000)
  15 Li     0.000000    6.468148   11.617037    ( 0.0000,  0.0000,  0.0000)
  16 Li     3.234074    6.468148   11.617037    ( 0.0000,  0.0000,  0.0000)
  17 Li     6.468148    6.468148   11.617037    ( 0.0000,  0.0000,  0.0000)
  18 Li     1.648926    1.616536   13.532050    ( 0.0000,  0.0000,  0.0000)
  19 Li     4.871720    1.615405   13.514813    ( 0.0000,  0.0000,  0.0000)
  20 Li     8.051342    1.609299   13.589227    ( 0.0000,  0.0000,  0.0000)
  21 Li     1.577158    4.828060   13.583486    ( 0.0000,  0.0000,  0.0000)
  22 Li     4.917483    4.807513   13.570226    ( 0.0000,  0.0000,  0.0000)
  23 Li     8.156489    4.867078   13.510940    ( 0.0000,  0.0000,  0.0000)
  24 Li     1.579744    8.101041   13.579154    ( 0.0000,  0.0000,  0.0000)
  25 Li     4.918523    8.127370   13.570307    ( 0.0000,  0.0000,  0.0000)
  26 Li     8.155526    8.066190   13.508745    ( 0.0000,  0.0000,  0.0000)
  27 Li    -0.015851    0.117395   15.737763    ( 0.0000,  0.0000,  0.0000)
  28 Li     3.289637   -0.005292   15.505278    ( 0.0000,  0.0000,  0.0000)
  29 Li     6.728109    0.078398   15.506732    ( 0.0000,  0.0000,  0.0000)
  30 Li     0.001906    3.105483   15.754119    ( 0.0000,  0.0000,  0.0000)
  31 Li     3.288503    3.239340   15.505117    ( 0.0000,  0.0000,  0.0000)
  32 Li     6.733344    3.138257   15.498345    ( 0.0000,  0.0000,  0.0000)
  33 Li     0.013948    6.462650   15.564069    ( 0.0000,  0.0000,  0.0000)
  34 Li     3.238420    6.469445   15.481483    ( 0.0000,  0.0000,  0.0000)
  35 Li     6.494005    6.467850   15.468929    ( 0.0000,  0.0000,  0.0000)
  36 Br    -0.422131    1.631273   20.100652    ( 0.0000,  0.0000,  0.0000)
  37 H     -0.853656    1.615280   18.713974    ( 0.0000,  0.0000,  0.0000)
  38 N     -1.058666    1.601495   16.635683    ( 0.0000,  0.0000,  0.0000)
  39 N     -1.536972    1.627492   15.469537    ( 0.0000,  0.0000,  0.0000)

Unit cell:
           periodic     x           y           z      points  spacing
  1. axis:    yes    9.702222    0.000000    0.000000    60     0.1617
  2. axis:    yes    0.000000    9.702222    0.000000    60     0.1617
  3. axis:    no     0.000000    0.000000   26.851111   168     0.1598

  Lengths:   9.702222   9.702222  26.851111
  Angles:   90.000000  90.000000  90.000000

Effective grid spacing dv^(1/3) = 0.1611

     iter     time        total  log10-change:
                         energy  eigst   dens
iter:   1 18:23:33  -331.452817  -1.31
iter:   2 18:24:14  -331.452882  -2.00  -2.22
iter:   3 18:24:55  -331.450631c -2.45  -2.27
iter:   4 18:25:36  -331.449516c -2.17  -2.43
Writing to output.gpw (mode='')

iter:   5 18:26:19  -331.449247c -2.97  -2.48
iter:   6 18:27:00  -331.449175c -2.92  -2.69
iter:   7 18:27:41  -331.449332c -2.60  -2.83
iter:   8 18:28:22  -331.449072c -3.51  -2.80
iter:   9 18:29:03  -331.449089c -3.50  -3.01
Writing to output.gpw (mode='')

iter:  10 18:29:46  -331.449036c -3.84  -3.07
iter:  11 18:30:27  -331.449018c -4.10  -3.25
iter:  12 18:31:08  -331.448978c -4.28  -3.28
iter:  13 18:31:49  -331.449004c -4.55  -3.48
iter:  14 18:32:30  -331.448992c -4.70  -3.51
Writing to output.gpw (mode='')

iter:  15 18:33:13  -331.449003c -4.71  -3.64
iter:  16 18:33:54  -331.449007c -5.22  -3.80
iter:  17 18:34:34  -331.449010c -5.35  -3.86
iter:  18 18:35:15  -331.449009c -5.56  -3.93
iter:  19 18:35:56  -331.449009c -5.70  -4.01c
Writing to output.gpw (mode='')

iter:  20 18:36:39  -331.449009c -5.66  -4.14c
iter:  21 18:37:20  -331.449006c -6.07  -4.20c
iter:  22 18:38:01  -331.449005c -6.14  -4.33c
iter:  23 18:38:42  -331.449006c -6.48  -4.44c
iter:  24 18:39:23  -331.449009c -6.40  -4.47c
Writing to output.gpw (mode='')

iter:  25 18:40:06  -331.449007c -6.59  -4.44c
iter:  26 18:40:47  -331.449007c -6.83  -4.52c
iter:  27 18:41:28  -331.449008c -6.77  -4.53c
iter:  28 18:42:09  -331.449007c -7.09  -4.58c
iter:  29 18:42:50  -331.449006c -6.93  -4.65c
Writing to output.gpw (mode='')

iter:  30 18:43:32  -331.449006c -7.10  -4.75c
iter:  31 18:44:13  -331.449006c -7.27  -4.80c
iter:  32 18:44:54  -331.449005c -7.31  -4.79c
iter:  33 18:45:35  -331.449005c -7.32  -4.84c
iter:  34 18:46:16  -331.449006c -7.81c -5.09c

Converged after 34 iterations.

Dipole moment: (13.688838, -4.938048, -0.367747) |e|*Ang

Energy contributions relative to reference atoms: (reference = -81178.542429)

Kinetic:       +100.374186
Potential:      -90.662872
External:        +0.000000
XC:            -341.369013
Entropy (-ST):   -0.187036
Local:           +0.302212
--------------------------
Free energy:   -331.542524
Extrapolated:  -331.449006

Dipole-layer corrected work functions: 3.409082, 4.116017 eV

Showing only first 2 kpts
 Kpt  Band  Eigenvalues  Occupancy
  0    25     -3.97407    1.97133
  0    26     -3.77803    1.15356
  0    27     -3.71842    0.58525
  0    28     -3.60660    0.08466

  1    25     -3.93801    1.94189
  1    26     -3.76885    1.06288
  1    27     -3.70754    0.49944
  1    28     -3.63771    0.15218


Fermi level: -3.76255

Gap: 0.037 eV
Transition (v -> c):
  (s=0, k=1, n=26, [0.12, -0.12, 0.00]) -> (s=0, k=4, n=27, [0.38, -0.38, 0.00])
Writing to output.gpw (mode='')


Forces in eV/Ang:
  0 Li    0.00194    0.00104   -0.29074
  1 Li    0.00371    0.00079   -0.28653
  2 Li   -0.00633    0.00054   -0.26853
  3 Li   -0.01030    0.00819   -0.28773
  4 Li   -0.01075    0.01084   -0.29367
  5 Li   -0.01272    0.00738   -0.29620
  6 Li   -0.01048   -0.00751   -0.28809
  7 Li   -0.01051   -0.01002   -0.29238
  8 Li   -0.01296   -0.00729   -0.29651
  9 Li   -0.02097    0.04522    0.32550
 10 Li   -0.00732   -0.01841    0.30362
 11 Li    0.03916    0.01733    0.31383
 12 Li   -0.02256   -0.04727    0.32210
 13 Li   -0.00780    0.01594    0.30363
 14 Li    0.03989   -0.01871    0.31475
 15 Li    0.04640   -0.00266    0.24190
 16 Li    0.01645   -0.00215    0.38633
 17 Li    0.03162   -0.00106    0.30096
 18 Li   -0.01945   -0.00260   -0.03367
 19 Li   -0.03125   -0.00056   -0.00682
 20 Li   -0.00330    0.02348   -0.06596
 21 Li    0.02037   -0.03050    0.00192
 22 Li    0.00516    0.01286   -0.02607
 23 Li   -0.00083   -0.02287    0.01179
 24 Li    0.01458    0.03574    0.00511
 25 Li    0.00433   -0.01417   -0.02587
 26 Li    0.00010    0.01918    0.01213
 27 Li   -0.02266    0.00065   -0.03343
 28 Li    0.01310   -0.01647    0.01593
 29 Li    0.03459    0.04343    0.01862
 30 Li   -0.04839   -0.02326   -0.02673
 31 Li    0.01924    0.01811    0.01603
 32 Li   -0.00922    0.00912    0.01323
 33 Li    0.00053    0.00472   -0.01343
 34 Li    0.00241   -0.00172    0.01208
 35 Li   -0.02481   -0.00056    0.01909
 36 Br   -0.05849    0.00038   -0.13727
 37 H     0.02219    0.00807    0.09124
 38 N    -0.02543    0.02543   -0.37881
 39 N     0.06861   -0.10638    0.32406

System changes: positions 

Initializing position-dependent things.

Density initialized from wave functions
       .-----------------------.  
      /|                       |  
     / |                       |  
    /  |                       |  
   /   |                       |  
  /    |                       |  
 *     |                       |  
 |     |                       |  
 |     |                       |  
 |     |                       |  
 |     |                       |  
 |     |                       |  
 |     |                       |  
 |     |                 Br    |  
 |     |       Li              |  
 |     |                H      |  
 |   Li|     Li      Li        |  
 |     |  Li      Li      Li   |  
 |     |   Li       Li N   Li  |  
 |     |Li      Li    N Li     |  
 |     |          Li     Li    |  
 |   LLi     LLi     LLi       |  
 |     |  Li      Li      Li   |  
 | Li  |   Li      Li          |  
 |     |Li      Li      Li     |  
 Li    | Li      Li            |  
 |    Li      Li      Li       |  
 |     |                       |  
 |     |                       |  
 |     |                       |  
 |     |                       |  
 |     |                       |  
 |     |                       |  
 |     .-----------------------.  
 |    /                       /   
 |   /                       /    
 |  /                       /     
 | /                       /      
 |/                       /       
 *-----------------------*        

Positions:
   0 Li     1.617037    1.617037   10.000000    ( 0.0000,  0.0000,  0.0000)
   1 Li     4.851111    1.617037   10.000000    ( 0.0000,  0.0000,  0.0000)
   2 Li     8.085185    1.617037   10.000000    ( 0.0000,  0.0000,  0.0000)
   3 Li     1.617037    4.851111   10.000000    ( 0.0000,  0.0000,  0.0000)
   4 Li     4.851111    4.851111   10.000000    ( 0.0000,  0.0000,  0.0000)
   5 Li     8.085185    4.851111   10.000000    ( 0.0000,  0.0000,  0.0000)
   6 Li     1.617037    8.085185   10.000000    ( 0.0000,  0.0000,  0.0000)
   7 Li     4.851111    8.085185   10.000000    ( 0.0000,  0.0000,  0.0000)
   8 Li     8.085185    8.085185   10.000000    ( 0.0000,  0.0000,  0.0000)
   9 Li     0.000000    0.000000   11.617037    ( 0.0000,  0.0000,  0.0000)
  10 Li     3.234074    0.000000   11.617037    ( 0.0000,  0.0000,  0.0000)
  11 Li     6.468148    0.000000   11.617037    ( 0.0000,  0.0000,  0.0000)
  12 Li     0.000000    3.234074   11.617037    ( 0.0000,  0.0000,  0.0000)
  13 Li     3.234074    3.234074   11.617037    ( 0.0000,  0.0000,  0.0000)
  14 Li     6.468148    3.234074   11.617037    ( 0.0000,  0.0000,  0.0000)
  15 Li     0.000000    6.468148   11.617037    ( 0.0000,  0.0000,  0.0000)
  16 Li     3.234074    6.468148   11.617037    ( 0.0000,  0.0000,  0.0000)
  17 Li     6.468148    6.468148   11.617037    ( 0.0000,  0.0000,  0.0000)
  18 Li     1.641778    1.616115   13.520053    ( 0.0000,  0.0000,  0.0000)
  19 Li     4.859316    1.615203   13.509373    ( 0.0000,  0.0000,  0.0000)
  20 Li     8.045037    1.609021   13.586851    ( 0.0000,  0.0000,  0.0000)
  21 Li     1.576361    4.821633   13.582623    ( 0.0000,  0.0000,  0.0000)
  22 Li     4.921212    4.811946   13.563395    ( 0.0000,  0.0000,  0.0000)
  23 Li     8.158078    4.857665   13.516617    ( 0.0000,  0.0000,  0.0000)
  24 Li     1.578084    8.108141   13.578644    ( 0.0000,  0.0000,  0.0000)
  25 Li     4.922274    8.123052   13.563362    ( 0.0000,  0.0000,  0.0000)
  26 Li     8.157359    8.074854   13.514699    ( 0.0000,  0.0000,  0.0000)
  27 Li    -0.015125    0.105143   15.730173    ( 0.0000,  0.0000,  0.0000)
  28 Li     3.282824   -0.007396   15.507807    ( 0.0000,  0.0000,  0.0000)
  29 Li     6.730053    0.078839   15.516736    ( 0.0000,  0.0000,  0.0000)
  30 Li    -0.010999    3.104835   15.749580    ( 0.0000,  0.0000,  0.0000)
  31 Li     3.283810    3.241993   15.507431    ( 0.0000,  0.0000,  0.0000)
  32 Li     6.735056    3.140969   15.509750    ( 0.0000,  0.0000,  0.0000)
  33 Li     0.012346    6.463208   15.564229    ( 0.0000,  0.0000,  0.0000)
  34 Li     3.237004    6.468792   15.486089    ( 0.0000,  0.0000,  0.0000)
  35 Li     6.489164    6.467241   15.477526    ( 0.0000,  0.0000,  0.0000)
  36 Br    -0.418551    1.633047   20.070525    ( 0.0000,  0.0000,  0.0000)
  37 H     -0.877745    1.615839   18.690900    ( 0.0000,  0.0000,  0.0000)
  38 N     -1.047296    1.602831   16.623800    ( 0.0000,  0.0000,  0.0000)
  39 N     -1.537529    1.630540   15.460840    ( 0.0000,  0.0000,  0.0000)

Unit cell:
           periodic     x           y           z      points  spacing
  1. axis:    yes    9.702222    0.000000    0.000000    60     0.1617
  2. axis:    yes    0.000000    9.702222    0.000000    60     0.1617
  3. axis:    no     0.000000    0.000000   26.851111   168     0.1598

  Lengths:   9.702222   9.702222  26.851111
  Angles:   90.000000  90.000000  90.000000

Effective grid spacing dv^(1/3) = 0.1611

     iter     time        total  log10-change:
                         energy  eigst   dens
iter:   1 18:47:13  -331.461854  -1.24
iter:   2 18:47:54  -331.458928  -1.95  -2.04
iter:   3 18:48:35  -331.458199c -2.39  -2.17
iter:   4 18:49:16  -331.456515c -2.70  -2.23
Writing to output.gpw (mode='')

iter:   5 18:49:59  -331.454172c -2.29  -2.33
iter:   6 18:50:40  -331.454383c -2.31  -2.64
iter:   7 18:51:21  -331.454216c -3.18  -2.62
iter:   8 18:52:03  -331.454444c -2.70  -2.90
iter:   9 18:52:43  -331.454255c -3.54  -2.86
Writing to output.gpw (mode='')

iter:  10 18:53:27  -331.454193c -3.89  -2.90
iter:  11 18:54:08  -331.454086c -3.66  -2.98
iter:  12 18:54:49  -331.454135c -4.46  -3.27
iter:  13 18:55:30  -331.454112c -4.34  -3.34
iter:  14 18:56:12  -331.454089c -4.43  -3.57
Writing to output.gpw (mode='')

iter:  15 18:56:58  -331.454086c -4.87  -3.72
iter:  16 18:57:39  -331.454091c -4.97  -3.92
iter:  17 18:58:20  -331.454091c -5.19  -3.96
iter:  18 18:59:01  -331.454092c -5.59  -4.03c
iter:  19 18:59:42  -331.454095c -5.69  -4.06c
Writing to output.gpw (mode='')

iter:  20 19:00:31  -331.454094c -6.00  -4.29c
iter:  21 19:01:12  -331.454095c -6.10  -4.42c
iter:  22 19:01:53  -331.454094c -6.23  -4.47c
iter:  23 19:02:34  -331.454094c -6.24  -4.49c
iter:  24 19:03:15  -331.454093c -6.34  -4.55c
Writing to output.gpw (mode='')

iter:  25 19:03:58  -331.454093c -6.48  -4.67c
iter:  26 19:04:40  -331.454094c -6.76  -4.72c
iter:  27 19:05:21  -331.454094c -6.80  -4.79c
iter:  28 19:06:02  -331.454094c -6.94  -4.86c
iter:  29 19:06:43  -331.454093c -7.15  -4.89c
Writing to output.gpw (mode='')

iter:  30 19:07:26  -331.454094c -7.21  -4.99c
iter:  31 19:08:08  -331.454094c -7.30  -5.05c
iter:  32 19:08:49  -331.454094c -7.22  -5.26c
iter:  33 19:09:30  -331.454094c -7.38  -5.32c
iter:  34 19:10:11  -331.454094c -7.53c -5.36c

Converged after 34 iterations.

Dipole moment: (13.859039, -4.767062, -0.370899) |e|*Ang

Energy contributions relative to reference atoms: (reference = -81178.542429)

Kinetic:       +100.329172
Potential:      -90.609182
External:        +0.000000
XC:            -341.382793
Entropy (-ST):   -0.186434
Local:           +0.301926
--------------------------
Free energy:   -331.547311
Extrapolated:  -331.454094

Dipole-layer corrected work functions: 3.409535, 4.122530 eV

Showing only first 2 kpts
 Kpt  Band  Eigenvalues  Occupancy
  0    25     -3.97775    1.97144
  0    26     -3.78115    1.15006
  0    27     -3.72065    0.57499
  0    28     -3.61011    0.08470

  1    25     -3.94342    1.94403
  1    26     -3.77230    1.06258
  1    27     -3.71130    0.50147
  1    28     -3.64108    0.15185


Fermi level: -3.76603

Gap: 0.036 eV
Transition (v -> c):
  (s=0, k=1, n=26, [0.12, -0.12, 0.00]) -> (s=0, k=4, n=27, [0.38, -0.38, 0.00])
Writing to output.gpw (mode='')


Forces in eV/Ang:
  0 Li    0.00233    0.00091   -0.28944
  1 Li    0.00453    0.00082   -0.28540
  2 Li   -0.00577    0.00065   -0.26808
  3 Li   -0.01081    0.00848   -0.28737
  4 Li   -0.01064    0.01134   -0.29259
  5 Li   -0.01295    0.00695   -0.29615
  6 Li   -0.01110   -0.00762   -0.28781
  7 Li   -0.01052   -0.01056   -0.29125
  8 Li   -0.01298   -0.00676   -0.29679
  9 Li   -0.02482    0.04394    0.32012
 10 Li   -0.00875   -0.02167    0.29831
 11 Li    0.03772    0.01818    0.30999
 12 Li   -0.02613   -0.04630    0.31617
 13 Li   -0.00924    0.01878    0.29863
 14 Li    0.03779   -0.01946    0.31028
 15 Li    0.04305   -0.00303    0.24849
 16 Li    0.01381   -0.00196    0.38510
 17 Li    0.04084   -0.00138    0.29985
 18 Li   -0.01573   -0.00187   -0.01751
 19 Li   -0.01714    0.00011    0.00760
 20 Li   -0.01283    0.02694   -0.09031
 21 Li    0.02338   -0.01940    0.00214
 22 Li    0.00009    0.00591   -0.01089
 23 Li   -0.00454   -0.00880    0.00648
 24 Li    0.01968    0.02229    0.00426
 25 Li   -0.00085   -0.00762   -0.01043
 26 Li   -0.00460    0.00402    0.00562
 27 Li   -0.03894    0.03307   -0.02397
 28 Li    0.01976   -0.01622    0.00917
 29 Li    0.03674    0.05199    0.01016
 30 Li   -0.01026    0.00441   -0.03767
 31 Li    0.02215    0.01626    0.00990
 32 Li   -0.01575    0.00321    0.00030
 33 Li    0.00109    0.00289   -0.01440
 34 Li    0.00081    0.00016    0.00342
 35 Li   -0.01845    0.00083    0.01195
 36 Br   -0.06602   -0.00098   -0.13958
 37 H     0.03294    0.00712    0.10408
 38 N    -0.08592    0.00635   -0.40410
 39 N     0.08282   -0.11746    0.38346

System changes: positions 

Initializing position-dependent things.

Density initialized from wave functions
       .-----------------------.  
      /|                       |  
     / |                       |  
    /  |                       |  
   /   |                       |  
  /    |                       |  
 *     |                       |  
 |     |                       |  
 |     |                       |  
 |     |                       |  
 |     |                       |  
 |     |                       |  
 |     |                       |  
 |     |                 Br    |  
 |     |       Li              |  
 |     |                H      |  
 |   Li|     Li      Li        |  
 |     |  Li      Li      Li   |  
 |     |   Li       Li N   Li  |  
 |     |Li      Li    N Li     |  
 |     |          Li     Li    |  
 |   LLi     LLi     LLi       |  
 |     |  Li      Li      Li   |  
 | Li  |   Li      Li          |  
 |     |Li      Li      Li     |  
 Li    | Li      Li            |  
 |    Li      Li      Li       |  
 |     |                       |  
 |     |                       |  
 |     |                       |  
 |     |                       |  
 |     |                       |  
 |     |                       |  
 |     .-----------------------.  
 |    /                       /   
 |   /                       /    
 |  /                       /     
 | /                       /      
 |/                       /       
 *-----------------------*        

Positions:
   0 Li     1.617037    1.617037   10.000000    ( 0.0000,  0.0000,  0.0000)
   1 Li     4.851111    1.617037   10.000000    ( 0.0000,  0.0000,  0.0000)
   2 Li     8.085185    1.617037   10.000000    ( 0.0000,  0.0000,  0.0000)
   3 Li     1.617037    4.851111   10.000000    ( 0.0000,  0.0000,  0.0000)
   4 Li     4.851111    4.851111   10.000000    ( 0.0000,  0.0000,  0.0000)
   5 Li     8.085185    4.851111   10.000000    ( 0.0000,  0.0000,  0.0000)
   6 Li     1.617037    8.085185   10.000000    ( 0.0000,  0.0000,  0.0000)
   7 Li     4.851111    8.085185   10.000000    ( 0.0000,  0.0000,  0.0000)
   8 Li     8.085185    8.085185   10.000000    ( 0.0000,  0.0000,  0.0000)
   9 Li     0.000000    0.000000   11.617037    ( 0.0000,  0.0000,  0.0000)
  10 Li     3.234074    0.000000   11.617037    ( 0.0000,  0.0000,  0.0000)
  11 Li     6.468148    0.000000   11.617037    ( 0.0000,  0.0000,  0.0000)
  12 Li     0.000000    3.234074   11.617037    ( 0.0000,  0.0000,  0.0000)
  13 Li     3.234074    3.234074   11.617037    ( 0.0000,  0.0000,  0.0000)
  14 Li     6.468148    3.234074   11.617037    ( 0.0000,  0.0000,  0.0000)
  15 Li     0.000000    6.468148   11.617037    ( 0.0000,  0.0000,  0.0000)
  16 Li     3.234074    6.468148   11.617037    ( 0.0000,  0.0000,  0.0000)
  17 Li     6.468148    6.468148   11.617037    ( 0.0000,  0.0000,  0.0000)
  18 Li     1.637351    1.615778   13.510352    ( 0.0000,  0.0000,  0.0000)
  19 Li     4.848912    1.615096   13.504766    ( 0.0000,  0.0000,  0.0000)
  20 Li     8.040082    1.609563   13.582579    ( 0.0000,  0.0000,  0.0000)
  21 Li     1.578066    4.815107   13.581729    ( 0.0000,  0.0000,  0.0000)
  22 Li     4.923979    4.816082   13.556705    ( 0.0000,  0.0000,  0.0000)
  23 Li     8.159495    4.850051   13.520151    ( 0.0000,  0.0000,  0.0000)
  24 Li     1.579006    8.115425   13.578172    ( 0.0000,  0.0000,  0.0000)
  25 Li     4.925018    8.119006   13.556600    ( 0.0000,  0.0000,  0.0000)
  26 Li     8.158978    8.081918   13.518463    ( 0.0000,  0.0000,  0.0000)
  27 Li    -0.013668    0.096755   15.721522    ( 0.0000,  0.0000,  0.0000)
  28 Li     3.281686   -0.009983   15.510608    ( 0.0000,  0.0000,  0.0000)
  29 Li     6.730739    0.079300   15.521206    ( 0.0000,  0.0000,  0.0000)
  30 Li    -0.019824    3.104407   15.742489    ( 0.0000,  0.0000,  0.0000)
  31 Li     3.284297    3.244993   15.510092    ( 0.0000,  0.0000,  0.0000)
  32 Li     6.734502    3.144238   15.515271    ( 0.0000,  0.0000,  0.0000)
  33 Li     0.011185    6.463816   15.560553    ( 0.0000,  0.0000,  0.0000)
  34 Li     3.235831    6.468273   15.489052    ( 0.0000,  0.0000,  0.0000)
  35 Li     6.483842    6.466815   15.483824    ( 0.0000,  0.0000,  0.0000)
  36 Br    -0.418169    1.634049   20.067073    ( 0.0000,  0.0000,  0.0000)
  37 H     -0.887709    1.616414   18.693530    ( 0.0000,  0.0000,  0.0000)
  38 N     -1.035432    1.603871   16.614005    ( 0.0000,  0.0000,  0.0000)
  39 N     -1.536013    1.630932   15.458144    ( 0.0000,  0.0000,  0.0000)

Unit cell:
           periodic     x           y           z      points  spacing
  1. axis:    yes    9.702222    0.000000    0.000000    60     0.1617
  2. axis:    yes    0.000000    9.702222    0.000000    60     0.1617
  3. axis:    no     0.000000    0.000000   26.851111   168     0.1598

  Lengths:   9.702222   9.702222  26.851111
  Angles:   90.000000  90.000000  90.000000

Effective grid spacing dv^(1/3) = 0.1611

     iter     time        total  log10-change:
                         energy  eigst   dens
iter:   1 19:11:07  -331.468191  -1.52
iter:   2 19:11:48  -331.461528  -2.26  -1.98
iter:   3 19:12:29  -331.461569c -2.63  -2.19
iter:   4 19:13:11  -331.458282c -2.90  -2.20
Writing to output.gpw (mode='')

iter:   5 19:13:54  -331.457619c -2.89  -2.49
iter:   6 19:14:35  -331.457343c -2.72  -2.70
iter:   7 19:15:16  -331.457472c -2.78  -3.01
iter:   8 19:15:57  -331.457463c -3.44  -3.00
iter:   9 19:16:38  -331.457406c -3.88  -3.15
Writing to output.gpw (mode='')

iter:  10 19:17:25  -331.457395c -4.26  -3.28
iter:  11 19:18:06  -331.457326c -4.22  -3.32
iter:  12 19:18:47  -331.457336c -4.28  -3.53
iter:  13 19:19:28  -331.457332c -4.86  -3.59
iter:  14 19:20:09  -331.457344c -5.10  -3.65
Writing to output.gpw (mode='')

iter:  15 19:20:52  -331.457349c -5.11  -3.79
iter:  16 19:21:33  -331.457351c -5.39  -3.93
iter:  17 19:22:14  -331.457356c -5.43  -4.00
iter:  18 19:22:56  -331.457355c -5.50  -4.09c
iter:  19 19:23:37  -331.457355c -5.68  -4.21c
Writing to output.gpw (mode='')

iter:  20 19:24:20  -331.457356c -5.96  -4.29c
iter:  21 19:25:01  -331.457354c -6.01  -4.43c
iter:  22 19:25:43  -331.457354c -6.17  -4.57c
iter:  23 19:26:24  -331.457354c -6.38  -4.63c
iter:  24 19:27:05  -331.457354c -6.33  -4.74c
Writing to output.gpw (mode='')

iter:  25 19:27:49  -331.457354c -6.75  -4.82c
iter:  26 19:28:30  -331.457354c -6.64  -4.87c
iter:  27 19:29:11  -331.457354c -6.93  -4.95c
iter:  28 19:29:52  -331.457354c -7.17  -5.23c
iter:  29 19:30:33  -331.457354c -7.22  -5.20c
Writing to output.gpw (mode='')

iter:  30 19:31:19  -331.457354c -7.05  -5.17c
iter:  31 19:32:00  -331.457354c -7.30  -5.12c
iter:  32 19:32:41  -331.457354c -7.29  -5.11c
iter:  33 19:33:22  -331.457354c -7.66c -5.10c

Converged after 33 iterations.

Dipole moment: (14.004693, -4.646991, -0.364946) |e|*Ang

Energy contributions relative to reference atoms: (reference = -81178.542429)

Kinetic:       +100.619318
Potential:      -90.850237
External:        +0.000000
XC:            -341.436041
Entropy (-ST):   -0.185904
Local:           +0.302558
--------------------------
Free energy:   -331.550307
Extrapolated:  -331.457354

Dipole-layer corrected work functions: 3.409474, 4.111025 eV

Showing only first 2 kpts
 Kpt  Band  Eigenvalues  Occupancy
  0    25     -3.97271    1.97185
  0    26     -3.77475    1.14400
  0    27     -3.71378    0.56606
  0    28     -3.60333    0.08311

  1    25     -3.93778    1.94419
  1    26     -3.76614    1.05880
  1    27     -3.70631    0.50745
  1    28     -3.63464    0.15002


Fermi level: -3.76025

Gap: 0.035 eV
Transition (v -> c):
  (s=0, k=1, n=26, [0.12, -0.12, 0.00]) -> (s=0, k=4, n=27, [0.38, -0.38, 0.00])
Writing to output.gpw (mode='')


Forces in eV/Ang:
  0 Li    0.00280    0.00076   -0.28827
  1 Li    0.00506    0.00079   -0.28458
  2 Li   -0.00539    0.00070   -0.26778
  3 Li   -0.01137    0.00860   -0.28720
  4 Li   -0.01061    0.01174   -0.29160
  5 Li   -0.01320    0.00676   -0.29615
  6 Li   -0.01171   -0.00765   -0.28771
  7 Li   -0.01057   -0.01102   -0.29024
  8 Li   -0.01306   -0.00648   -0.29699
  9 Li   -0.02744    0.04303    0.31646
 10 Li   -0.00933   -0.02410    0.29267
 11 Li    0.03610    0.01896    0.30709
 12 Li   -0.02839   -0.04548    0.31230
 13 Li   -0.00979    0.02102    0.29322
 14 Li    0.03564   -0.02011    0.30693
 15 Li    0.04184   -0.00319    0.25477
 16 Li    0.01151   -0.00176    0.38348
 17 Li    0.04848   -0.00160    0.29795
 18 Li   -0.01171   -0.00109   -0.00436
 19 Li   -0.00578    0.00061    0.01803
 20 Li   -0.01631    0.02704   -0.07911
 21 Li    0.02383   -0.00992    0.00184
 22 Li   -0.00361   -0.00004    0.00146
 23 Li   -0.00741    0.00252    0.00204
 24 Li    0.02220    0.01059    0.00288
 25 Li   -0.00450   -0.00170    0.00220
 26 Li   -0.00838   -0.00759    0.00029
 27 Li   -0.04157    0.04428   -0.01882
 28 Li    0.02293   -0.01412    0.00357
 29 Li    0.03251    0.05255    0.00147
 30 Li    0.02535    0.03682   -0.04806
 31 Li    0.02231    0.01291    0.00468
 32 Li   -0.01926   -0.00332   -0.01099
 33 Li    0.00113    0.00109   -0.01405
 34 Li   -0.00046    0.00154   -0.00332
 35 Li   -0.01221    0.00180    0.00576
 36 Br   -0.05415   -0.00084   -0.09063
 37 H     0.02930    0.00545    0.05183
 38 N    -0.08570   -0.03767   -0.27765
 39 N     0.03003   -0.11667    0.28004

System changes: positions 

Initializing position-dependent things.

Density initialized from wave functions
       .-----------------------.  
      /|                       |  
     / |                       |  
    /  |                       |  
   /   |                       |  
  /    |                       |  
 *     |                       |  
 |     |                       |  
 |     |                       |  
 |     |                       |  
 |     |                       |  
 |     |                       |  
 |     |                       |  
 |     |                 Br    |  
 |     |       Li              |  
 |     |                H      |  
 |   Li|     Li      Li        |  
 |     |  Li      Li      Li   |  
 |     |   Li       Li N   Li  |  
 |     |Li      Li    N Li     |  
 |     |          Li     Li    |  
 |   LLi     LLi     LLi       |  
 |     |  Li      Li      Li   |  
 | Li  |   Li      Li          |  
 |     |Li      Li      Li     |  
 Li    | Li      Li            |  
 |    Li      Li      Li       |  
 |     |                       |  
 |     |                       |  
 |     |                       |  
 |     |                       |  
 |     |                       |  
 |     |                       |  
 |     .-----------------------.  
 |    /                       /   
 |   /                       /    
 |  /                       /     
 | /                       /      
 |/                       /       
 *-----------------------*        

Positions:
   0 Li     1.617037    1.617037   10.000000    ( 0.0000,  0.0000,  0.0000)
   1 Li     4.851111    1.617037   10.000000    ( 0.0000,  0.0000,  0.0000)
   2 Li     8.085185    1.617037   10.000000    ( 0.0000,  0.0000,  0.0000)
   3 Li     1.617037    4.851111   10.000000    ( 0.0000,  0.0000,  0.0000)
   4 Li     4.851111    4.851111   10.000000    ( 0.0000,  0.0000,  0.0000)
   5 Li     8.085185    4.851111   10.000000    ( 0.0000,  0.0000,  0.0000)
   6 Li     1.617037    8.085185   10.000000    ( 0.0000,  0.0000,  0.0000)
   7 Li     4.851111    8.085185   10.000000    ( 0.0000,  0.0000,  0.0000)
   8 Li     8.085185    8.085185   10.000000    ( 0.0000,  0.0000,  0.0000)
   9 Li     0.000000    0.000000   11.617037    ( 0.0000,  0.0000,  0.0000)
  10 Li     3.234074    0.000000   11.617037    ( 0.0000,  0.0000,  0.0000)
  11 Li     6.468148    0.000000   11.617037    ( 0.0000,  0.0000,  0.0000)
  12 Li     0.000000    3.234074   11.617037    ( 0.0000,  0.0000,  0.0000)
  13 Li     3.234074    3.234074   11.617037    ( 0.0000,  0.0000,  0.0000)
  14 Li     6.468148    3.234074   11.617037    ( 0.0000,  0.0000,  0.0000)
  15 Li     0.000000    6.468148   11.617037    ( 0.0000,  0.0000,  0.0000)
  16 Li     3.234074    6.468148   11.617037    ( 0.0000,  0.0000,  0.0000)
  17 Li     6.468148    6.468148   11.617037    ( 0.0000,  0.0000,  0.0000)
  18 Li     1.635280    1.615639   13.506567    ( 0.0000,  0.0000,  0.0000)
  19 Li     4.842653    1.615096   13.503001    ( 0.0000,  0.0000,  0.0000)
  20 Li     8.033824    1.609921   13.580909    ( 0.0000,  0.0000,  0.0000)
  21 Li     1.580605    4.811305   13.581139    ( 0.0000,  0.0000,  0.0000)
  22 Li     4.925597    4.818651   13.553411    ( 0.0000,  0.0000,  0.0000)
  23 Li     8.160996    4.846272   13.521766    ( 0.0000,  0.0000,  0.0000)
  24 Li     1.581239    8.119541   13.577767    ( 0.0000,  0.0000,  0.0000)
  25 Li     4.926601    8.116487   13.553249    ( 0.0000,  0.0000,  0.0000)
  26 Li     8.160548    8.085310   13.520192    ( 0.0000,  0.0000,  0.0000)
  27 Li    -0.012277    0.094988   15.715263    ( 0.0000,  0.0000,  0.0000)
  28 Li     3.283197   -0.012007   15.512497    ( 0.0000,  0.0000,  0.0000)
  29 Li     6.729472    0.078546   15.519451    ( 0.0000,  0.0000,  0.0000)
  30 Li    -0.020528    3.106145   15.735222    ( 0.0000,  0.0000,  0.0000)
  31 Li     3.286626    3.247155   15.511927    ( 0.0000,  0.0000,  0.0000)
  32 Li     6.731965    3.147587   15.514078    ( 0.0000,  0.0000,  0.0000)
  33 Li     0.010119    6.464094   15.556022    ( 0.0000,  0.0000,  0.0000)
  34 Li     3.234504    6.468080   15.489693    ( 0.0000,  0.0000,  0.0000)
  35 Li     6.480061    6.466635   15.487755    ( 0.0000,  0.0000,  0.0000)
  36 Br    -0.417637    1.634499   20.070447    ( 0.0000,  0.0000,  0.0000)
  37 H     -0.891884    1.616781   18.701650    ( 0.0000,  0.0000,  0.0000)
  38 N     -1.026191    1.602782   16.610734    ( 0.0000,  0.0000,  0.0000)
  39 N     -1.535332    1.629916   15.463654    ( 0.0000,  0.0000,  0.0000)

Unit cell:
           periodic     x           y           z      points  spacing
  1. axis:    yes    9.702222    0.000000    0.000000    60     0.1617
  2. axis:    yes    0.000000    9.702222    0.000000    60     0.1617
  3. axis:    no     0.000000    0.000000   26.851111   168     0.1598

  Lengths:   9.702222   9.702222  26.851111
  Angles:   90.000000  90.000000  90.000000

Effective grid spacing dv^(1/3) = 0.1611

     iter     time        total  log10-change:
                         energy  eigst   dens
iter:   1 19:34:18  -331.463252  -1.86
iter:   2 19:34:59  -331.461646  -2.30  -2.25
iter:   3 19:35:40  -331.460654c -2.80  -2.34
iter:   4 19:36:21  -331.460064c -2.90  -2.48
Writing to output.gpw (mode='')

iter:   5 19:37:04  -331.459771c -3.01  -2.73
iter:   6 19:37:45  -331.459870c -3.06  -2.96
iter:   7 19:38:27  -331.459860c -3.68  -2.96
iter:   8 19:39:08  -331.459843c -3.94  -3.23
iter:   9 19:39:49  -331.459813c -4.33  -3.29
Writing to output.gpw (mode='')

iter:  10 19:40:32  -331.459730c -4.30  -3.38
iter:  11 19:41:13  -331.459735c -4.38  -3.44
iter:  12 19:41:55  -331.459747c -4.90  -3.56
iter:  13 19:42:36  -331.459768c -5.08  -3.62
iter:  14 19:43:17  -331.459756c -5.10  -3.83
Writing to output.gpw (mode='')

iter:  15 19:44:04  -331.459758c -5.39  -3.87
iter:  16 19:44:45  -331.459773c -5.32  -3.88
iter:  17 19:45:26  -331.459778c -5.47  -4.17c
iter:  18 19:46:07  -331.459768c -5.76  -4.19c
iter:  19 19:46:48  -331.459768c -5.95  -4.25c
Writing to output.gpw (mode='')

iter:  20 19:47:31  -331.459770c -5.99  -4.30c
iter:  21 19:48:12  -331.459774c -6.21  -4.47c
iter:  22 19:48:53  -331.459773c -6.55  -4.56c
iter:  23 19:49:34  -331.459772c -6.54  -4.65c
iter:  24 19:50:15  -331.459770c -6.53  -4.77c
Writing to output.gpw (mode='')

iter:  25 19:50:59  -331.459771c -6.75  -4.84c
iter:  26 19:51:40  -331.459771c -6.93  -4.95c
iter:  27 19:52:21  -331.459771c -6.89  -5.00c
iter:  28 19:53:02  -331.459770c -7.25  -5.17c
iter:  29 19:53:43  -331.459771c -7.44c -5.21c

Converged after 29 iterations.

Dipole moment: (14.055318, -4.602166, -0.358999) |e|*Ang

Energy contributions relative to reference atoms: (reference = -81178.542429)

Kinetic:       +101.008712
Potential:      -91.185284
External:        +0.000000
XC:            -341.493112
Entropy (-ST):   -0.185601
Local:           +0.302714
--------------------------
Free energy:   -331.552571
Extrapolated:  -331.459771

Dipole-layer corrected work functions: 3.409060, 4.099178 eV

Showing only first 2 kpts
 Kpt  Band  Eigenvalues  Occupancy
  0    25     -3.96719    1.97219
  0    26     -3.76784    1.13636
  0    27     -3.70717    0.56220
  0    28     -3.59552    0.08047

  1    25     -3.93049    1.94292
  1    26     -3.75952    1.05392
  1    27     -3.70097    0.51346
  1    28     -3.62761    0.14754


Fermi level: -3.75412

Gap: 0.034 eV
Transition (v -> c):
  (s=0, k=1, n=26, [0.12, -0.12, 0.00]) -> (s=0, k=4, n=27, [0.38, -0.38, 0.00])
Writing to output.gpw (mode='')


Forces in eV/Ang:
  0 Li    0.00339    0.00069   -0.28756
  1 Li    0.00523    0.00081   -0.28438
  2 Li   -0.00523    0.00075   -0.26796
  3 Li   -0.01182    0.00852   -0.28724
  4 Li   -0.01065    0.01201   -0.29115
  5 Li   -0.01351    0.00685   -0.29629
  6 Li   -0.01215   -0.00753   -0.28773
  7 Li   -0.01067   -0.01132   -0.28983
  8 Li   -0.01327   -0.00659   -0.29717
  9 Li   -0.02912    0.04341    0.31651
 10 Li   -0.00944   -0.02515    0.28943
 11 Li    0.03461    0.01913    0.30657
 12 Li   -0.02984   -0.04583    0.31241
 13 Li   -0.00986    0.02201    0.29010
 14 Li    0.03401   -0.02028    0.30620
 15 Li    0.04230   -0.00318    0.25846
 16 Li    0.01086   -0.00167    0.38236
 17 Li    0.05280   -0.00166    0.29669
 18 Li   -0.00853   -0.00070   -0.00013
 19 Li   -0.00075    0.00066    0.02102
 20 Li   -0.00918    0.02689   -0.04847
 21 Li    0.02301   -0.00499    0.00093
 22 Li   -0.00545   -0.00296    0.00634
 23 Li   -0.00943    0.00878   -0.00113
 24 Li    0.02204    0.00503    0.00164
 25 Li   -0.00619    0.00147    0.00751
 26 Li   -0.01085   -0.01315   -0.00315
 27 Li   -0.03284    0.03384   -0.01950
 28 Li    0.02318   -0.01160    0.00097
 29 Li    0.02405    0.04795   -0.00151
 30 Li    0.03465    0.04572   -0.04807
 31 Li    0.02120    0.01007    0.00218
 32 Li   -0.02187   -0.00718   -0.01530
 33 Li    0.00142    0.00047   -0.01280
 34 Li   -0.00062    0.00181   -0.00608
 35 Li   -0.00837    0.00214    0.00166
 36 Br   -0.03775    0.00029   -0.03497
 37 H     0.01925    0.00403   -0.00537
 38 N    -0.00442   -0.06604   -0.13673
 39 N    -0.04798   -0.11627    0.10928

System changes: positions 

Initializing position-dependent things.

Density initialized from wave functions
       .-----------------------.  
      /|                       |  
     / |                       |  
    /  |                       |  
   /   |                       |  
  /    |                       |  
 *     |                       |  
 |     |                       |  
 |     |                       |  
 |     |                       |  
 |     |                       |  
 |     |                       |  
 |     |                       |  
 |     |                 Br    |  
 |     |       Li              |  
 |     |                H      |  
 |   Li|     Li      Li        |  
 |     |  Li      Li      Li   |  
 |     |   Li       Li  N  Li  |  
 |     |Li      Li    N Li     |  
 |     |          Li     Li    |  
 |   LLi     LLi     LLi       |  
 |     |  Li      Li      Li   |  
 | Li  |   Li      Li          |  
 |     |Li      Li      Li     |  
 Li    | Li      Li            |  
 |    Li      Li      Li       |  
 |     |                       |  
 |     |                       |  
 |     |                       |  
 |     |                       |  
 |     |                       |  
 |     |                       |  
 |     .-----------------------.  
 |    /                       /   
 |   /                       /    
 |  /                       /     
 | /                       /      
 |/                       /       
 *-----------------------*        

Positions:
   0 Li     1.617037    1.617037   10.000000    ( 0.0000,  0.0000,  0.0000)
   1 Li     4.851111    1.617037   10.000000    ( 0.0000,  0.0000,  0.0000)
   2 Li     8.085185    1.617037   10.000000    ( 0.0000,  0.0000,  0.0000)
   3 Li     1.617037    4.851111   10.000000    ( 0.0000,  0.0000,  0.0000)
   4 Li     4.851111    4.851111   10.000000    ( 0.0000,  0.0000,  0.0000)
   5 Li     8.085185    4.851111   10.000000    ( 0.0000,  0.0000,  0.0000)
   6 Li     1.617037    8.085185   10.000000    ( 0.0000,  0.0000,  0.0000)
   7 Li     4.851111    8.085185   10.000000    ( 0.0000,  0.0000,  0.0000)
   8 Li     8.085185    8.085185   10.000000    ( 0.0000,  0.0000,  0.0000)
   9 Li     0.000000    0.000000   11.617037    ( 0.0000,  0.0000,  0.0000)
  10 Li     3.234074    0.000000   11.617037    ( 0.0000,  0.0000,  0.0000)
  11 Li     6.468148    0.000000   11.617037    ( 0.0000,  0.0000,  0.0000)
  12 Li     0.000000    3.234074   11.617037    ( 0.0000,  0.0000,  0.0000)
  13 Li     3.234074    3.234074   11.617037    ( 0.0000,  0.0000,  0.0000)
  14 Li     6.468148    3.234074   11.617037    ( 0.0000,  0.0000,  0.0000)
  15 Li     0.000000    6.468148   11.617037    ( 0.0000,  0.0000,  0.0000)
  16 Li     3.234074    6.468148   11.617037    ( 0.0000,  0.0000,  0.0000)
  17 Li     6.468148    6.468148   11.617037    ( 0.0000,  0.0000,  0.0000)
  18 Li     1.629951    1.615472   13.500103    ( 0.0000,  0.0000,  0.0000)
  19 Li     4.829594    1.615123   13.500221    ( 0.0000,  0.0000,  0.0000)
  20 Li     8.017181    1.609771   13.580423    ( 0.0000,  0.0000,  0.0000)
  21 Li     1.584135    4.807544   13.577728    ( 0.0000,  0.0000,  0.0000)
  22 Li     4.929111    4.822954   13.550056    ( 0.0000,  0.0000,  0.0000)
  23 Li     8.163317    4.840808   13.524478    ( 0.0000,  0.0000,  0.0000)
  24 Li     1.584569    8.123355   13.574404    ( 0.0000,  0.0000,  0.0000)
  25 Li     4.930070    8.112264   13.549746    ( 0.0000,  0.0000,  0.0000)
  26 Li     8.162899    8.089823   13.523079    ( 0.0000,  0.0000,  0.0000)
  27 Li    -0.012604    0.091804   15.703883    ( 0.0000,  0.0000,  0.0000)
  28 Li     3.280882   -0.014965   15.513549    ( 0.0000,  0.0000,  0.0000)
  29 Li     6.726423    0.077414   15.518161    ( 0.0000,  0.0000,  0.0000)
  30 Li    -0.018648    3.116020   15.720038    ( 0.0000,  0.0000,  0.0000)
  31 Li     3.285715    3.250226   15.512889    ( 0.0000,  0.0000,  0.0000)
  32 Li     6.726742    3.152924   15.513741    ( 0.0000,  0.0000,  0.0000)
  33 Li     0.006875    6.464275   15.547452    ( 0.0000,  0.0000,  0.0000)
  34 Li     3.229530    6.467905   15.489410    ( 0.0000,  0.0000,  0.0000)
  35 Li     6.474725    6.466341   15.496476    ( 0.0000,  0.0000,  0.0000)
  36 Br    -0.412854    1.635764   20.069918    ( 0.0000,  0.0000,  0.0000)
  37 H     -0.910287    1.617364   18.711422    ( 0.0000,  0.0000,  0.0000)
  38 N     -1.001025    1.597132   16.602761    ( 0.0000,  0.0000,  0.0000)
  39 N     -1.537394    1.626909   15.476423    ( 0.0000,  0.0000,  0.0000)

Unit cell:
           periodic     x           y           z      points  spacing
  1. axis:    yes    9.702222    0.000000    0.000000    60     0.1617
  2. axis:    yes    0.000000    9.702222    0.000000    60     0.1617
  3. axis:    no     0.000000    0.000000   26.851111   168     0.1598

  Lengths:   9.702222   9.702222  26.851111
  Angles:   90.000000  90.000000  90.000000

Effective grid spacing dv^(1/3) = 0.1611

     iter     time        total  log10-change:
                         energy  eigst   dens
iter:   1 19:54:39  -331.465952  -1.15
iter:   2 19:55:20  -331.464512  -1.66  -2.08
iter:   3 19:56:01  -331.463393c -2.09  -2.16
iter:   4 19:56:43  -331.462184c -2.25  -2.28
Writing to output.gpw (mode='')

iter:   5 19:57:28  -331.461561c -2.28  -2.49
iter:   6 19:58:09  -331.461852c -2.45  -2.64
iter:   7 19:58:51  -331.461671c -2.99  -2.67
iter:   8 19:59:32  -331.461662c -3.30  -2.94
iter:   9 20:00:13  -331.461634c -3.59  -3.01
Writing to output.gpw (mode='')

iter:  10 20:00:57  -331.461499c -3.55  -3.08
iter:  11 20:01:38  -331.461526c -3.68  -3.16
iter:  12 20:02:19  -331.461553c -4.09  -3.21
iter:  13 20:03:00  -331.461613c -4.18  -3.25
iter:  14 20:03:41  -331.461602c -4.54  -3.63
Writing to output.gpw (mode='')

iter:  15 20:04:24  -331.461601c -4.73  -3.66
iter:  16 20:05:05  -331.461610c -4.62  -3.67
iter:  17 20:05:46  -331.461607c -5.11  -3.93
iter:  18 20:06:27  -331.461610c -5.20  -4.03c
iter:  19 20:07:08  -331.461617c -5.12  -4.04c
Writing to output.gpw (mode='')

iter:  20 20:07:51  -331.461617c -5.33  -4.08c
iter:  21 20:08:32  -331.461611c -5.43  -4.10c
iter:  22 20:09:13  -331.461609c -5.59  -4.21c
iter:  23 20:09:55  -331.461610c -5.75  -4.32c
iter:  24 20:10:36  -331.461612c -5.86  -4.38c
Writing to output.gpw (mode='')

iter:  25 20:11:21  -331.461610c -6.05  -4.47c
iter:  26 20:12:02  -331.461610c -6.19  -4.52c
iter:  27 20:12:43  -331.461611c -6.22  -4.76c
iter:  28 20:13:25  -331.461611c -6.26  -4.89c
iter:  29 20:14:06  -331.461610c -6.46  -4.88c
Writing to output.gpw (mode='')

iter:  30 20:14:49  -331.461610c -6.35  -4.94c
iter:  31 20:15:30  -331.461610c -6.64  -5.05c
iter:  32 20:16:11  -331.461609c -6.84  -5.07c
iter:  33 20:16:53  -331.461609c -6.91  -5.10c
iter:  34 20:17:34  -331.461610c -7.18  -5.16c
Writing to output.gpw (mode='')

iter:  35 20:18:17  -331.461610c -6.96  -5.28c
iter:  36 20:18:58  -331.461610c -6.91  -5.43c
iter:  37 20:19:40  -331.461610c -7.26  -5.44c
iter:  38 20:20:21  -331.461610c -7.25  -5.43c
iter:  39 20:21:02  -331.461610c -7.70c -5.33c

Converged after 39 iterations.

Dipole moment: (14.178866, -4.532321, -0.351101) |e|*Ang

Energy contributions relative to reference atoms: (reference = -81178.542429)

Kinetic:       +101.584412
Potential:      -91.678725
External:        +0.000000
XC:            -341.577073
Entropy (-ST):   -0.184863
Local:           +0.302207
--------------------------
Free energy:   -331.554042
Extrapolated:  -331.461610

Dipole-layer corrected work functions: 3.408399, 4.083336 eV

Showing only first 2 kpts
 Kpt  Band  Eigenvalues  Occupancy
  0    25     -3.95955    1.97252
  0    26     -3.75791    1.11987
  0    27     -3.69784    0.55352
  0    28     -3.58317    0.07437

  1    25     -3.91897    1.93918
  1    26     -3.75102    1.05148
  1    27     -3.69377    0.52156
  1    28     -3.61698    0.14116


Fermi level: -3.74587

Gap: 0.033 eV
Transition (v -> c):
  (s=0, k=1, n=26, [0.12, -0.12, 0.00]) -> (s=0, k=4, n=27, [0.38, -0.38, 0.00])
Writing to output.gpw (mode='')


Forces in eV/Ang:
  0 Li    0.00492    0.00072   -0.28601
  1 Li    0.00570    0.00093   -0.28374
  2 Li   -0.00500    0.00084   -0.26832
  3 Li   -0.01288    0.00892   -0.28727
  4 Li   -0.01074    0.01255   -0.29068
  5 Li   -0.01402    0.00750   -0.29665
  6 Li   -0.01315   -0.00792   -0.28768
  7 Li   -0.01078   -0.01184   -0.28941
  8 Li   -0.01368   -0.00731   -0.29746
  9 Li   -0.03361    0.04415    0.31768
 10 Li   -0.01005   -0.02758    0.28489
 11 Li    0.03066    0.01883    0.30582
 12 Li   -0.03405   -0.04663    0.31383
 13 Li   -0.01046    0.02434    0.28572
 14 Li    0.03023   -0.02031    0.30537
 15 Li    0.04171   -0.00315    0.26214
 16 Li    0.01198   -0.00164    0.37989
 17 Li    0.05981   -0.00167    0.29435
 18 Li   -0.00312   -0.00022    0.00435
 19 Li    0.00790    0.00045    0.02571
 20 Li    0.00614    0.02827   -0.00395
 21 Li    0.02271    0.00158   -0.00013
 22 Li   -0.00916   -0.00738    0.01206
 23 Li   -0.01374    0.01826   -0.00610
 24 Li    0.02179   -0.00115    0.00072
 25 Li   -0.00957    0.00658    0.01444
 26 Li   -0.01578   -0.02051   -0.00857
 27 Li   -0.00526    0.00047   -0.03001
 28 Li    0.02575   -0.00815   -0.00228
 29 Li    0.00498    0.03589   -0.00658
 30 Li    0.02983    0.03324   -0.04123
 31 Li    0.02202    0.00662   -0.00098
 32 Li   -0.02806   -0.01207   -0.02287
 33 Li    0.00282    0.00008   -0.01071
 34 Li    0.00049    0.00153   -0.00954
 35 Li   -0.00317    0.00242   -0.00559
 36 Br   -0.02919   -0.00012    0.01049
 37 H     0.02025    0.00344   -0.05771
 38 N     0.11395    0.00040    0.17864
 39 N    -0.15092   -0.07466   -0.19228

System changes: positions 

Initializing position-dependent things.

Density initialized from wave functions
       .-----------------------.  
      /|                       |  
     / |                       |  
    /  |                       |  
   /   |                       |  
  /    |                       |  
 *     |                       |  
 |     |                       |  
 |     |                       |  
 |     |                       |  
 |     |                       |  
 |     |                       |  
 |     |                       |  
 |     |                 Br    |  
 |     |       Li              |  
 |     |                H      |  
 |   Li|     Li      Li        |  
 |     |  Li      Li      Li   |  
 |     |   Li       Li  N  Li  |  
 |     |Li      Li    N Li     |  
 |     |          Li     Li    |  
 |   LLi     LLi     LLi       |  
 |     |  Li      Li      Li   |  
 | Li  |   Li      Li          |  
 |     |Li      Li      Li     |  
 Li    | Li      Li            |  
 |    Li      Li      Li       |  
 |     |                       |  
 |     |                       |  
 |     |                       |  
 |     |                       |  
 |     |                       |  
 |     |                       |  
 |     .-----------------------.  
 |    /                       /   
 |   /                       /    
 |  /                       /     
 | /                       /      
 |/                       /       
 *-----------------------*        

Positions:
   0 Li     1.617037    1.617037   10.000000    ( 0.0000,  0.0000,  0.0000)
   1 Li     4.851111    1.617037   10.000000    ( 0.0000,  0.0000,  0.0000)
   2 Li     8.085185    1.617037   10.000000    ( 0.0000,  0.0000,  0.0000)
   3 Li     1.617037    4.851111   10.000000    ( 0.0000,  0.0000,  0.0000)
   4 Li     4.851111    4.851111   10.000000    ( 0.0000,  0.0000,  0.0000)
   5 Li     8.085185    4.851111   10.000000    ( 0.0000,  0.0000,  0.0000)
   6 Li     1.617037    8.085185   10.000000    ( 0.0000,  0.0000,  0.0000)
   7 Li     4.851111    8.085185   10.000000    ( 0.0000,  0.0000,  0.0000)
   8 Li     8.085185    8.085185   10.000000    ( 0.0000,  0.0000,  0.0000)
   9 Li     0.000000    0.000000   11.617037    ( 0.0000,  0.0000,  0.0000)
  10 Li     3.234074    0.000000   11.617037    ( 0.0000,  0.0000,  0.0000)
  11 Li     6.468148    0.000000   11.617037    ( 0.0000,  0.0000,  0.0000)
  12 Li     0.000000    3.234074   11.617037    ( 0.0000,  0.0000,  0.0000)
  13 Li     3.234074    3.234074   11.617037    ( 0.0000,  0.0000,  0.0000)
  14 Li     6.468148    3.234074   11.617037    ( 0.0000,  0.0000,  0.0000)
  15 Li     0.000000    6.468148   11.617037    ( 0.0000,  0.0000,  0.0000)
  16 Li     3.234074    6.468148   11.617037    ( 0.0000,  0.0000,  0.0000)
  17 Li     6.468148    6.468148   11.617037    ( 0.0000,  0.0000,  0.0000)
  18 Li     1.630697    1.615516   13.502383    ( 0.0000,  0.0000,  0.0000)
  19 Li     4.831654    1.615126   13.501449    ( 0.0000,  0.0000,  0.0000)
  20 Li     8.017421    1.610119   13.581059    ( 0.0000,  0.0000,  0.0000)
  21 Li     1.583735    4.809602   13.577705    ( 0.0000,  0.0000,  0.0000)
  22 Li     4.928557    4.821871   13.552152    ( 0.0000,  0.0000,  0.0000)
  23 Li     8.163049    4.843072   13.523516    ( 0.0000,  0.0000,  0.0000)
  24 Li     1.584287    8.121142   13.574299    ( 0.0000,  0.0000,  0.0000)
  25 Li     4.929523    8.113297   13.551898    ( 0.0000,  0.0000,  0.0000)
  26 Li     8.162569    8.087635   13.522021    ( 0.0000,  0.0000,  0.0000)
  27 Li    -0.012518    0.092342   15.705779    ( 0.0000,  0.0000,  0.0000)
  28 Li     3.280514   -0.014324   15.512747    ( 0.0000,  0.0000,  0.0000)
  29 Li     6.727038    0.078260   15.517903    ( 0.0000,  0.0000,  0.0000)
  30 Li    -0.016646    3.116526   15.722052    ( 0.0000,  0.0000,  0.0000)
  31 Li     3.284962    3.249500   15.512131    ( 0.0000,  0.0000,  0.0000)
  32 Li     6.727110    3.151604   15.512925    ( 0.0000,  0.0000,  0.0000)
  33 Li     0.007005    6.464145   15.548603    ( 0.0000,  0.0000,  0.0000)
  34 Li     3.229511    6.468021   15.488562    ( 0.0000,  0.0000,  0.0000)
  35 Li     6.476072    6.466455   15.495344    ( 0.0000,  0.0000,  0.0000)
  36 Br    -0.412861    1.635635   20.066118    ( 0.0000,  0.0000,  0.0000)
  37 H     -0.910108    1.617295   18.706426    ( 0.0000,  0.0000,  0.0000)
  38 N     -1.004341    1.597884   16.605372    ( 0.0000,  0.0000,  0.0000)
  39 N     -1.539216    1.625854   15.476633    ( 0.0000,  0.0000,  0.0000)

Unit cell:
           periodic     x           y           z      points  spacing
  1. axis:    yes    9.702222    0.000000    0.000000    60     0.1617
  2. axis:    yes    0.000000    9.702222    0.000000    60     0.1617
  3. axis:    no     0.000000    0.000000   26.851111   168     0.1598

  Lengths:   9.702222   9.702222  26.851111
  Angles:   90.000000  90.000000  90.000000

Effective grid spacing dv^(1/3) = 0.1611

     iter     time        total  log10-change:
                         energy  eigst   dens
iter:   1 20:21:59  -331.463830  -2.58
iter:   2 20:22:40  -331.462742  -3.34  -2.46
iter:   3 20:23:21  -331.462429c -3.34  -2.78
iter:   4 20:24:02  -331.462415c -4.13  -2.87
Writing to output.gpw (mode='')

iter:   5 20:24:45  -331.462298c -3.86  -3.02
iter:   6 20:25:26  -331.462254c -3.50  -3.29
iter:   7 20:26:07  -331.462215c -4.59  -3.29
iter:   8 20:26:48  -331.462210c -4.51  -3.62
iter:   9 20:27:29  -331.462214c -5.01  -3.64
Writing to output.gpw (mode='')

iter:  10 20:28:14  -331.462248c -5.13  -3.68
iter:  11 20:28:55  -331.462256c -5.06  -3.77
iter:  12 20:29:36  -331.462252c -5.82  -3.96
iter:  13 20:30:18  -331.462244c -6.06  -4.01c
iter:  14 20:30:59  -331.462249c -5.95  -4.13c
Writing to output.gpw (mode='')

iter:  15 20:31:41  -331.462244c -6.08  -4.25c
iter:  16 20:32:23  -331.462240c -6.19  -4.37c
iter:  17 20:33:04  -331.462239c -6.46  -4.42c
iter:  18 20:33:45  -331.462243c -6.58  -4.48c
iter:  19 20:34:26  -331.462242c -7.03  -4.83c
Writing to output.gpw (mode='')

iter:  20 20:35:09  -331.462242c -7.26  -4.85c
iter:  21 20:35:50  -331.462242c -7.14  -4.93c
iter:  22 20:36:31  -331.462242c -7.36  -5.25c
iter:  23 20:37:12  -331.462242c -7.60c -5.27c

Converged after 23 iterations.

Dipole moment: (14.130418, -4.553760, -0.354323) |e|*Ang

Energy contributions relative to reference atoms: (reference = -81178.542429)

Kinetic:       +101.430472
Potential:      -91.551415
External:        +0.000000
XC:            -341.551005
Entropy (-ST):   -0.184986
Local:           +0.302200
--------------------------
Free energy:   -331.554735
Extrapolated:  -331.462242

Dipole-layer corrected work functions: 3.408547, 4.089678 eV

Showing only first 2 kpts
 Kpt  Band  Eigenvalues  Occupancy
  0    25     -3.96259    1.97241
  0    26     -3.76138    1.12208
  0    27     -3.70136    0.55574
  0    28     -3.58673    0.07482

  1    25     -3.92189    1.93879
  1    26     -3.75471    1.05596
  1    27     -3.69686    0.52034
  1    28     -3.62028    0.14133


Fermi level: -3.74911

Gap: 0.033 eV
Transition (v -> c):
  (s=0, k=1, n=26, [0.12, -0.12, 0.00]) -> (s=0, k=4, n=27, [0.38, -0.38, 0.00])
Writing to output.gpw (mode='')


Forces in eV/Ang:
  0 Li    0.00483    0.00070   -0.28625
  1 Li    0.00570    0.00088   -0.28390
  2 Li   -0.00512    0.00078   -0.26835
  3 Li   -0.01276    0.00897   -0.28729
  4 Li   -0.01077    0.01245   -0.29099
  5 Li   -0.01397    0.00758   -0.29664
  6 Li   -0.01301   -0.00802   -0.28772
  7 Li   -0.01079   -0.01175   -0.28973
  8 Li   -0.01368   -0.00738   -0.29739
  9 Li   -0.03313    0.04424    0.31851
 10 Li   -0.01003   -0.02706    0.28647
 11 Li    0.03079    0.01841    0.30630
 12 Li   -0.03357   -0.04667    0.31479
 13 Li   -0.01037    0.02395    0.28723
 14 Li    0.03039   -0.01989    0.30604
 15 Li    0.04206   -0.00313    0.26011
 16 Li    0.01293   -0.00168    0.38028
 17 Li    0.05774   -0.00168    0.29488
 18 Li   -0.00416   -0.00022    0.00121
 19 Li    0.00539    0.00044    0.02313
 20 Li    0.00761    0.02612   -0.00576
 21 Li    0.02250   -0.00114    0.00002
 22 Li   -0.00819   -0.00574    0.00862
 23 Li   -0.01336    0.01496   -0.00455
 24 Li    0.02139    0.00185    0.00105
 25 Li   -0.00858    0.00515    0.01091
 26 Li   -0.01522   -0.01707   -0.00668
 27 Li   -0.01055    0.00721   -0.02823
 28 Li    0.02522   -0.00891   -0.00082
 29 Li    0.00367    0.03263   -0.00472
 30 Li    0.01874    0.02169   -0.03865
 31 Li    0.02216    0.00756    0.00037
 32 Li   -0.02676   -0.00996   -0.01936
 33 Li    0.00308    0.00028   -0.01093
 34 Li    0.00083    0.00124   -0.00761
 35 Li   -0.00464    0.00214   -0.00413
 36 Br   -0.03495   -0.00128   -0.00561
 37 H     0.02539    0.00372   -0.03882
 38 N     0.09580   -0.00924    0.10644
 39 N    -0.10757   -0.07246   -0.13609

System changes: positions 

Initializing position-dependent things.

Density initialized from wave functions
       .-----------------------.  
      /|                       |  
     / |                       |  
    /  |                       |  
   /   |                       |  
  /    |                       |  
 *     |                       |  
 |     |                       |  
 |     |                       |  
 |     |                       |  
 |     |                       |  
 |     |                       |  
 |     |                       |  
 |     |                 Br    |  
 |     |       Li              |  
 |     |                H      |  
 |   Li|     Li      Li        |  
 |     |  Li      Li      Li   |  
 |     |   Li       Li  N  Li  |  
 |     |Li      Li    N Li     |  
 |     |          Li     Li    |  
 |   LLi     LLi     LLi       |  
 |     |  Li      Li      Li   |  
 | Li  |   Li      Li          |  
 |     |Li      Li      Li     |  
 Li    | Li      Li            |  
 |    Li      Li      Li       |  
 |     |                       |  
 |     |                       |  
 |     |                       |  
 |     |                       |  
 |     |                       |  
 |     |                       |  
 |     .-----------------------.  
 |    /                       /   
 |   /                       /    
 |  /                       /     
 | /                       /      
 |/                       /       
 *-----------------------*        

Positions:
   0 Li     1.617037    1.617037   10.000000    ( 0.0000,  0.0000,  0.0000)
   1 Li     4.851111    1.617037   10.000000    ( 0.0000,  0.0000,  0.0000)
   2 Li     8.085185    1.617037   10.000000    ( 0.0000,  0.0000,  0.0000)
   3 Li     1.617037    4.851111   10.000000    ( 0.0000,  0.0000,  0.0000)
   4 Li     4.851111    4.851111   10.000000    ( 0.0000,  0.0000,  0.0000)
   5 Li     8.085185    4.851111   10.000000    ( 0.0000,  0.0000,  0.0000)
   6 Li     1.617037    8.085185   10.000000    ( 0.0000,  0.0000,  0.0000)
   7 Li     4.851111    8.085185   10.000000    ( 0.0000,  0.0000,  0.0000)
   8 Li     8.085185    8.085185   10.000000    ( 0.0000,  0.0000,  0.0000)
   9 Li     0.000000    0.000000   11.617037    ( 0.0000,  0.0000,  0.0000)
  10 Li     3.234074    0.000000   11.617037    ( 0.0000,  0.0000,  0.0000)
  11 Li     6.468148    0.000000   11.617037    ( 0.0000,  0.0000,  0.0000)
  12 Li     0.000000    3.234074   11.617037    ( 0.0000,  0.0000,  0.0000)
  13 Li     3.234074    3.234074   11.617037    ( 0.0000,  0.0000,  0.0000)
  14 Li     6.468148    3.234074   11.617037    ( 0.0000,  0.0000,  0.0000)
  15 Li     0.000000    6.468148   11.617037    ( 0.0000,  0.0000,  0.0000)
  16 Li     3.234074    6.468148   11.617037    ( 0.0000,  0.0000,  0.0000)
  17 Li     6.468148    6.468148   11.617037    ( 0.0000,  0.0000,  0.0000)
  18 Li     1.630774    1.615534   13.504602    ( 0.0000,  0.0000,  0.0000)
  19 Li     4.833547    1.615141   13.503786    ( 0.0000,  0.0000,  0.0000)
  20 Li     8.016415    1.611706   13.581840    ( 0.0000,  0.0000,  0.0000)
  21 Li     1.584031    4.812533   13.576907    ( 0.0000,  0.0000,  0.0000)
  22 Li     4.927735    4.820423   13.555315    ( 0.0000,  0.0000,  0.0000)
  23 Li     8.161978    4.846417   13.522165    ( 0.0000,  0.0000,  0.0000)
  24 Li     1.584660    8.118036   13.573437    ( 0.0000,  0.0000,  0.0000)
  25 Li     4.928689    8.114639   13.555207    ( 0.0000,  0.0000,  0.0000)
  26 Li     8.161350    8.084204   13.520462    ( 0.0000,  0.0000,  0.0000)
  27 Li    -0.013190    0.091120   15.705749    ( 0.0000,  0.0000,  0.0000)
  28 Li     3.279762   -0.013887   15.511143    ( 0.0000,  0.0000,  0.0000)
  29 Li     6.728933    0.081949   15.518239    ( 0.0000,  0.0000,  0.0000)
  30 Li    -0.013303    3.120873   15.721499    ( 0.0000,  0.0000,  0.0000)
  31 Li     3.283697    3.248911   15.510628    ( 0.0000,  0.0000,  0.0000)
  32 Li     6.726982    3.148818   15.511942    ( 0.0000,  0.0000,  0.0000)
  33 Li     0.006930    6.464002   15.549127    ( 0.0000,  0.0000,  0.0000)
  34 Li     3.228883    6.468213   15.486952    ( 0.0000,  0.0000,  0.0000)
  35 Li     6.477590    6.466668   15.494383    ( 0.0000,  0.0000,  0.0000)
  36 Br    -0.413587    1.635564   20.060769    ( 0.0000,  0.0000,  0.0000)
  37 H     -0.911530    1.617429   18.700492    ( 0.0000,  0.0000,  0.0000)
  38 N     -1.005449    1.598452   16.608076    ( 0.0000,  0.0000,  0.0000)
  39 N     -1.542569    1.620981   15.477920    ( 0.0000,  0.0000,  0.0000)

Unit cell:
           periodic     x           y           z      points  spacing
  1. axis:    yes    9.702222    0.000000    0.000000    60     0.1617
  2. axis:    yes    0.000000    9.702222    0.000000    60     0.1617
  3. axis:    no     0.000000    0.000000   26.851111   168     0.1598

  Lengths:   9.702222   9.702222  26.851111
  Angles:   90.000000  90.000000  90.000000

Effective grid spacing dv^(1/3) = 0.1611

     iter     time        total  log10-change:
                         energy  eigst   dens
iter:   1 20:38:09  -331.467111  -2.18
iter:   2 20:38:51  -331.464411  -2.83  -2.29
iter:   3 20:39:32  -331.464182c -3.20  -2.51
iter:   4 20:40:13  -331.463612c -3.33  -2.63
Writing to output.gpw (mode='')

iter:   5 20:40:56  -331.463360c -3.19  -2.84
iter:   6 20:41:37  -331.463313c -3.23  -3.08
iter:   7 20:42:18  -331.463227c -4.01  -3.12
iter:   8 20:42:59  -331.463227c -4.12  -3.45
iter:   9 20:43:40  -331.463276c -4.47  -3.45
Writing to output.gpw (mode='')

iter:  10 20:44:23  -331.463289c -4.67  -3.59
iter:  11 20:45:04  -331.463285c -4.94  -3.73
iter:  12 20:45:45  -331.463280c -5.40  -3.77
iter:  13 20:46:26  -331.463252c -5.03  -3.81
iter:  14 20:47:07  -331.463270c -5.50  -3.96
Writing to output.gpw (mode='')

iter:  15 20:47:50  -331.463273c -5.55  -4.06c
iter:  16 20:48:31  -331.463271c -6.01  -4.06c
iter:  17 20:49:12  -331.463259c -5.61  -4.09c
iter:  18 20:49:53  -331.463269c -5.85  -4.24c
iter:  19 20:50:34  -331.463267c -6.40  -4.43c
Writing to output.gpw (mode='')

iter:  20 20:51:17  -331.463265c -6.46  -4.53c
[...]
iter:   6 01:34:20  -331.480347c -3.02  -2.98
iter:   7 01:35:01  -331.480335c -3.74  -3.01
iter:   8 01:35:42  -331.480335c -4.00  -3.28
iter:   9 01:36:23  -331.480260c -4.26  -3.26
Writing to output.gpw (mode='')

iter:  10 01:37:06  -331.480247c -4.41  -3.41
iter:  11 01:37:47  -331.480252c -5.01  -3.66
iter:  12 01:38:29  -331.480281c -4.91  -3.71
iter:  13 01:39:10  -331.480266c -5.15  -3.92
iter:  14 01:39:51  -331.480264c -5.49  -3.97
Writing to output.gpw (mode='')

iter:  15 01:40:34  -331.480276c -5.38  -4.01c
iter:  16 01:41:15  -331.480273c -5.97  -4.25c
iter:  17 01:41:56  -331.480273c -6.02  -4.32c
iter:  18 01:42:37  -331.480273c -6.12  -4.31c
iter:  19 01:43:19  -331.480271c -6.00  -4.37c
Writing to output.gpw (mode='')

iter:  20 01:44:01  -331.480270c -6.39  -4.47c
iter:  21 01:44:43  -331.480270c -6.74  -4.61c
iter:  22 01:45:24  -331.480270c -6.59  -4.64c
iter:  23 01:46:05  -331.480271c -6.83  -4.78c
iter:  24 01:46:46  -331.480272c -6.72  -4.82c
Writing to output.gpw (mode='')

iter:  25 01:47:29  -331.480272c -7.05  -4.94c
iter:  26 01:48:10  -331.480272c -7.18  -5.02c
iter:  27 01:48:51  -331.480271c -7.11  -5.07c
iter:  28 01:49:32  -331.480271c -7.31  -5.10c
iter:  29 01:50:14  -331.480271c -7.48c -5.17c

Converged after 29 iterations.

Dipole moment: (14.022526, -4.390750, -0.395362) |e|*Ang

Energy contributions relative to reference atoms: (reference = -81178.542429)

Kinetic:       +102.261198
Potential:      -92.041852
External:        +0.000000
XC:            -341.908775
Entropy (-ST):   -0.185010
Local:           +0.301663
--------------------------
Free energy:   -331.572776
Extrapolated:  -331.480271

Dipole-layer corrected work functions: 3.409445, 4.169466 eV

Showing only first 2 kpts
 Kpt  Band  Eigenvalues  Occupancy
  0    25     -4.00582    1.97394
  0    26     -3.80103    1.11526
  0    27     -3.74219    0.55966
  0    28     -3.62746    0.07539

  1    25     -3.95966    1.93567
  1    26     -3.79668    1.07207
  1    27     -3.73620    0.51268
  1    28     -3.65119    0.11846


Fermi level: -3.78946

Gap: 0.027 eV
Transition (v -> c):
  (s=0, k=1, n=26, [0.12, -0.12, 0.00]) -> (s=0, k=4, n=27, [0.38, -0.38, 0.00])
Writing to output.gpw (mode='')


Forces in eV/Ang:
  0 Li    0.00614    0.00046   -0.28288
  1 Li    0.00923    0.00020   -0.28308
  2 Li   -0.00502    0.00024   -0.26958
  3 Li   -0.01016    0.00980   -0.28880
  4 Li   -0.01272    0.01184   -0.29169
  5 Li   -0.01643    0.00826   -0.29595
  6 Li   -0.01041   -0.00924   -0.28939
  7 Li   -0.01216   -0.01145   -0.29055
  8 Li   -0.01635   -0.00844   -0.29652
  9 Li   -0.03977    0.02525    0.33605
 10 Li    0.00463   -0.02157    0.27428
 11 Li    0.00268    0.01738    0.30259
 12 Li   -0.03751   -0.02429    0.33167
 13 Li    0.00480    0.01953    0.27255
 14 Li    0.00065   -0.01386    0.30046
 15 Li    0.05837   -0.00090    0.27773
 16 Li    0.03136    0.00000    0.36147
 17 Li    0.03398    0.00018    0.28007
 18 Li    0.04350   -0.00352    0.00723
 19 Li    0.00190   -0.00118   -0.03798
 20 Li   -0.01108   -0.02180    0.00235
 21 Li   -0.02213    0.01469   -0.01349
 22 Li    0.00657    0.00025   -0.00736
 23 Li   -0.00206   -0.00853   -0.01342
 24 Li   -0.02456   -0.01278   -0.01314
 25 Li    0.00355   -0.00750   -0.01651
 26 Li    0.00565    0.01135   -0.00758
 27 Li    0.00280   -0.00369   -0.00467
 28 Li   -0.01862    0.01990    0.01082
 29 Li    0.02966    0.00418   -0.02431
 30 Li    0.02390    0.02821   -0.00516
 31 Li   -0.01712   -0.01835    0.00912
 32 Li   -0.01457    0.04625   -0.00827
 33 Li    0.00633    0.00369   -0.00993
 34 Li    0.00462    0.00083    0.00601
 35 Li    0.00392   -0.00431   -0.00552
 36 Br   -0.04697   -0.00182   -0.03115
 37 H     0.03410    0.00144    0.00945
 38 N    -0.00281   -0.01696    0.03048
 39 N    -0.01190   -0.02998    0.02202

System changes: positions 

Initializing position-dependent things.

Density initialized from wave functions
       .-----------------------.  
      /|                       |  
     / |                       |  
    /  |                       |  
   /   |                       |  
  /    |                       |  
 *     |                       |  
 |     |                       |  
 |     |                       |  
 |     |                       |  
 |     |                       |  
 |     |                       |  
 |     |                       |  
 |     |                 Br    |  
 |     |       Li              |  
 |     |                H      |  
 |   Li|     Li      Li        |  
 |     |  Li      Li      Li   |  
 |     |   Li      Li   N  Li  |  
 |     |Li      Li    N Li     |  
 |     |          Li     Li    |  
 |   LLi     LLi     LLi       |  
 |     |  Li      Li      Li   |  
 | Li  |   Li      Li          |  
 |     |Li      Li      Li     |  
 Li    | Li      Li            |  
 |    Li      Li      Li       |  
 |     |                       |  
 |     |                       |  
 |     |                       |  
 |     |                       |  
 |     |                       |  
 |     |                       |  
 |     .-----------------------.  
 |    /                       /   
 |   /                       /    
 |  /                       /     
 | /                       /      
 |/                       /       
 *-----------------------*        

Positions:
   0 Li     1.617037    1.617037   10.000000    ( 0.0000,  0.0000,  0.0000)
   1 Li     4.851111    1.617037   10.000000    ( 0.0000,  0.0000,  0.0000)
   2 Li     8.085185    1.617037   10.000000    ( 0.0000,  0.0000,  0.0000)
   3 Li     1.617037    4.851111   10.000000    ( 0.0000,  0.0000,  0.0000)
   4 Li     4.851111    4.851111   10.000000    ( 0.0000,  0.0000,  0.0000)
   5 Li     8.085185    4.851111   10.000000    ( 0.0000,  0.0000,  0.0000)
   6 Li     1.617037    8.085185   10.000000    ( 0.0000,  0.0000,  0.0000)
   7 Li     4.851111    8.085185   10.000000    ( 0.0000,  0.0000,  0.0000)
   8 Li     8.085185    8.085185   10.000000    ( 0.0000,  0.0000,  0.0000)
   9 Li     0.000000    0.000000   11.617037    ( 0.0000,  0.0000,  0.0000)
  10 Li     3.234074    0.000000   11.617037    ( 0.0000,  0.0000,  0.0000)
  11 Li     6.468148    0.000000   11.617037    ( 0.0000,  0.0000,  0.0000)
  12 Li     0.000000    3.234074   11.617037    ( 0.0000,  0.0000,  0.0000)
  13 Li     3.234074    3.234074   11.617037    ( 0.0000,  0.0000,  0.0000)
  14 Li     6.468148    3.234074   11.617037    ( 0.0000,  0.0000,  0.0000)
  15 Li     0.000000    6.468148   11.617037    ( 0.0000,  0.0000,  0.0000)
  16 Li     3.234074    6.468148   11.617037    ( 0.0000,  0.0000,  0.0000)
  17 Li     6.468148    6.468148   11.617037    ( 0.0000,  0.0000,  0.0000)
  18 Li     1.625073    1.617497   13.481950    ( 0.0000,  0.0000,  0.0000)
  19 Li     4.804468    1.616346   13.530471    ( 0.0000,  0.0000,  0.0000)
  20 Li     7.991236    1.625435   13.543116    ( 0.0000,  0.0000,  0.0000)
  21 Li     1.632236    4.801332   13.565317    ( 0.0000,  0.0000,  0.0000)
  22 Li     4.919909    4.824708   13.556906    ( 0.0000,  0.0000,  0.0000)
  23 Li     8.137327    4.865634   13.515265    ( 0.0000,  0.0000,  0.0000)
  24 Li     1.632527    8.129814   13.564399    ( 0.0000,  0.0000,  0.0000)
  25 Li     4.920695    8.113919   13.562635    ( 0.0000,  0.0000,  0.0000)
  26 Li     8.132321    8.066912   13.512839    ( 0.0000,  0.0000,  0.0000)
  27 Li    -0.034233    0.091764   15.612345    ( 0.0000,  0.0000,  0.0000)
  28 Li     3.323092   -0.036333   15.524179    ( 0.0000,  0.0000,  0.0000)
  29 Li     6.680524    0.100286   15.506919    ( 0.0000,  0.0000,  0.0000)
  30 Li    -0.037211    3.127838   15.609164    ( 0.0000,  0.0000,  0.0000)
  31 Li     3.323183    3.268911   15.525231    ( 0.0000,  0.0000,  0.0000)
  32 Li     6.686295    3.111016   15.492004    ( 0.0000,  0.0000,  0.0000)
  33 Li     0.014629    6.462406   15.510190    ( 0.0000,  0.0000,  0.0000)
  34 Li     3.224469    6.468399   15.479605    ( 0.0000,  0.0000,  0.0000)
  35 Li     6.447828    6.468019   15.513425    ( 0.0000,  0.0000,  0.0000)
  36 Br    -0.498228    1.645248   19.923807    ( 0.0000,  0.0000,  0.0000)
  37 H     -0.911155    1.628109   18.526750    ( 0.0000,  0.0000,  0.0000)
  38 N     -0.955827    1.609777   16.540429    ( 0.0000,  0.0000,  0.0000)
  39 N     -1.563251    1.616179   15.444428    ( 0.0000,  0.0000,  0.0000)

Unit cell:
           periodic     x           y           z      points  spacing
  1. axis:    yes    9.702222    0.000000    0.000000    60     0.1617
  2. axis:    yes    0.000000    9.702222    0.000000    60     0.1617
  3. axis:    no     0.000000    0.000000   26.851111   168     0.1598

  Lengths:   9.702222   9.702222  26.851111
  Angles:   90.000000  90.000000  90.000000

Effective grid spacing dv^(1/3) = 0.1611

     iter     time        total  log10-change:
                         energy  eigst   dens
iter:   1 01:51:14  -331.481738  -2.64
iter:   2 01:51:55  -331.482300  -2.82  -2.47
iter:   3 01:52:36  -331.480904c -3.86  -2.44
iter:   4 01:53:17  -331.480877c -4.29  -2.98
Writing to output.gpw (mode='')

iter:   5 01:54:01  -331.480814c -3.77  -3.08
iter:   6 01:54:42  -331.480784c -3.87  -3.34
iter:   7 01:55:23  -331.480767c -4.59  -3.41
iter:   8 01:56:04  -331.480759c -4.70  -3.70
iter:   9 01:56:45  -331.480770c -4.91  -3.72
Writing to output.gpw (mode='')

iter:  10 01:57:28  -331.480777c -5.28  -3.84
iter:  11 01:58:10  -331.480778c -5.80  -4.10c
iter:  12 01:58:51  -331.480775c -6.01  -4.12c
iter:  13 01:59:32  -331.480770c -5.92  -4.22c
iter:  14 02:00:13  -331.480771c -6.40  -4.48c
Writing to output.gpw (mode='')

iter:  15 02:00:56  -331.480775c -6.25  -4.52c
iter:  16 02:01:37  -331.480775c -6.70  -4.63c
iter:  17 02:02:18  -331.480774c -6.80  -4.73c
iter:  18 02:03:00  -331.480775c -6.88  -4.77c
iter:  19 02:03:41  -331.480775c -6.89  -4.82c
Writing to output.gpw (mode='')

iter:  20 02:04:24  -331.480775c -7.32  -5.05c
iter:  21 02:05:05  -331.480775c -7.45c -5.08c

Converged after 21 iterations.

Dipole moment: (14.016610, -4.410680, -0.394353) |e|*Ang

Energy contributions relative to reference atoms: (reference = -81178.542429)

Kinetic:       +102.269896
Potential:      -92.059547
External:        +0.000000
XC:            -341.900142
Entropy (-ST):   -0.185007
Local:           +0.301522
--------------------------
Free energy:   -331.573279
Extrapolated:  -331.480775

Dipole-layer corrected work functions: 3.409261, 4.167342 eV

Showing only first 2 kpts
 Kpt  Band  Eigenvalues  Occupancy
  0    25     -4.00461    1.97391
  0    26     -3.79993    1.11573
  0    27     -3.74105    0.55978
  0    28     -3.62598    0.07490

  1    25     -3.95800    1.93503
  1    26     -3.79556    1.07248
  1    27     -3.73511    0.51313
  1    28     -3.65023    0.11888


Fermi level: -3.78830

Gap: 0.028 eV
Transition (v -> c):
  (s=0, k=1, n=26, [0.12, -0.12, 0.00]) -> (s=0, k=7, n=27, [0.38, 0.38, 0.00])
Writing to output.gpw (mode='')


Forces in eV/Ang:
  0 Li    0.00619    0.00045   -0.28295
  1 Li    0.00910    0.00023   -0.28305
  2 Li   -0.00510    0.00024   -0.26964
  3 Li   -0.01029    0.00977   -0.28877
  4 Li   -0.01267    0.01185   -0.29165
  5 Li   -0.01636    0.00829   -0.29602
  6 Li   -0.01051   -0.00924   -0.28935
  7 Li   -0.01213   -0.01148   -0.29054
  8 Li   -0.01628   -0.00846   -0.29656
  9 Li   -0.03947    0.02638    0.33610
 10 Li    0.00405   -0.02186    0.27470
 11 Li    0.00346    0.01719    0.30282
 12 Li   -0.03735   -0.02560    0.33200
 13 Li    0.00425    0.01985    0.27308
 14 Li    0.00166   -0.01405    0.30098
 15 Li    0.05798   -0.00096    0.27664
 16 Li    0.03097   -0.00009    0.36202
 17 Li    0.03471    0.00010    0.28055
 18 Li    0.04118   -0.00325    0.00572
 19 Li    0.00171   -0.00114   -0.03593
 20 Li   -0.00736   -0.02047    0.00597
 21 Li   -0.02029    0.01349   -0.01303
 22 Li    0.00572    0.00038   -0.00757
 23 Li   -0.00250   -0.00780   -0.01298
 24 Li   -0.02269   -0.01141   -0.01253
 25 Li    0.00305   -0.00686   -0.01589
 26 Li    0.00467    0.01067   -0.00752
 27 Li    0.00485   -0.00688   -0.00645
 28 Li   -0.01712    0.01870    0.01020
 29 Li    0.02504    0.00253   -0.02247
 30 Li    0.01722    0.02027   -0.00297
 31 Li   -0.01588   -0.01715    0.00862
 32 Li   -0.01274    0.04140   -0.00744
 33 Li    0.00614    0.00351   -0.00965
 34 Li    0.00463    0.00054    0.00578
 35 Li    0.00367   -0.00408   -0.00558
 36 Br   -0.04352   -0.00027   -0.02049
 37 H     0.03047    0.00177   -0.00229
 38 N     0.01274   -0.00675    0.02148
 39 N    -0.01968   -0.02270    0.00467

Timing:                                      incl.     excl.
-------------------------------------------------------------------
Density initialized from wave functions:    19.329    19.328   0.1% |
 Symmetrize density:                         0.001     0.001   0.0% |
Forces:                                     98.100    98.100   0.3% |
Hamiltonian:                               489.867     0.006   0.0% |
 Atomic:                                     2.114     0.027   0.0% |
  XC Correction:                             2.087     2.087   0.0% |
 Calculate atomic Hamiltonians:              1.880     1.880   0.0% |
 Communicate:                                3.495     3.495   0.0% |
 Hartree integrate/restrict:                 1.538     1.538   0.0% |
 Poisson:                                   51.993    24.473   0.1% |
  Communicate from 1D:                       3.293     3.293   0.0% |
  Communicate from 2D:                       5.089     5.089   0.0% |
  Communicate to 1D:                         1.184     1.184   0.0% |
  Communicate to 2D:                         4.962     4.962   0.0% |
  FFT 1D:                                    5.317     5.317   0.0% |
  FFT 2D:                                    7.676     7.676   0.0% |
 XC 3D grid:                               428.237   129.820   0.4% |
  VdW-DF integral:                         298.417     3.760   0.0% |
   Convolution:                             55.617    55.617   0.2% |
   FFT:                                     18.092    18.092   0.1% |
   gather:                                  73.497    73.497   0.2% |
   hmm1:                                    11.948    11.948   0.0% |
   hmm2:                                    18.666    18.666   0.1% |
   iFFT:                                    17.415    17.415   0.1% |
   potential:                               90.710     2.377   0.0% |
    collect:                                 7.402     7.402   0.0% |
    p1:                                     38.338    38.338   0.1% |
    p2:                                     27.092    27.092   0.1% |
    sum:                                    15.501    15.501   0.1% |
   splines:                                  8.713     8.713   0.0% |
 vbar:                                       0.604     0.604   0.0% |
LCAO initialization:                         6.712     0.317   0.0% |
 LCAO eigensolver:                           2.164     0.000   0.0% |
  Calculate projections:                     0.000     0.000   0.0% |
  DenseAtomicCorrection:                     0.000     0.000   0.0% |
  Distribute overlap matrix:                 2.020     2.020   0.0% |
  Orbital Layouts:                           0.042     0.042   0.0% |
  Potential matrix:                          0.101     0.101   0.0% |
  Sum over cells:                            0.002     0.002   0.0% |
 LCAO to grid:                               3.182     3.182   0.0% |
 Set positions (LCAO WFS):                   1.049     0.800   0.0% |
  Basic WFS set positions:                   0.003     0.003   0.0% |
  Basis functions set positions:             0.001     0.001   0.0% |
  P tci:                                     0.000     0.000   0.0% |
  ST tci:                                    0.155     0.155   0.0% |
  mktci:                                     0.089     0.089   0.0% |
Redistribute:                                0.019     0.019   0.0% |
SCF-cycle:                               29789.236   654.133   2.1% ||
 Davidson:                               13410.262  4822.945  15.7% |-----|
  Apply hamiltonian:                       808.579   808.579   2.6% ||
  Subspace diag:                          2222.751     0.153   0.0% |
   calc_h_matrix:                         1273.961   396.175   1.3% ||
    Apply hamiltonian:                     877.785   877.785   2.9% ||
   diagonalize:                             23.218    23.218   0.1% |
   rotate_psi:                             925.419   925.419   3.0% ||
  calc. matrices:                         4009.402  2604.164   8.5% |--|
   Apply hamiltonian:                     1405.238  1405.238   4.6% |-|
  diagonalize:                               6.630     6.630   0.0% |
  rotate_psi:                             1539.955  1539.955   5.0% |-|
 Density:                                  244.924     0.062   0.0% |
  Atomic density matrices:                   6.106     6.106   0.0% |
  Mix:                                     137.948   137.948   0.5% |
  Multipole moments:                         1.263     1.263   0.0% |
  Pseudo density:                           99.545    99.503   0.3% |
   Symmetrize density:                       0.042     0.042   0.0% |
 Hamiltonian:                            15450.798     0.193   0.0% |
  Atomic:                                   68.471     0.922   0.0% |
   XC Correction:                           67.549    67.549   0.2% |
  Calculate atomic Hamiltonians:            60.561    60.561   0.2% |
  Communicate:                             121.095   121.095   0.4% |
  Hartree integrate/restrict:               52.436    52.436   0.2% |
  Poisson:                                1661.982   784.881   2.6% ||
   Communicate from 1D:                    102.421   102.421   0.3% |
   Communicate from 2D:                    162.627   162.627   0.5% |
   Communicate to 1D:                       38.641    38.641   0.1% |
   Communicate to 2D:                      160.330   160.330   0.5% |
   FFT 1D:                                 169.235   169.235   0.6% |
   FFT 2D:                                 243.846   243.846   0.8% |
  XC 3D grid:                            13467.110  4171.157  13.6% |----|
   VdW-DF integral:                       9295.954   120.580   0.4% |
    Convolution:                          1801.542  1801.542   5.9% |-|
    FFT:                                   586.764   586.764   1.9% ||
    gather:                               2329.107  2329.107   7.6% |--|
    hmm1:                                  381.212   381.212   1.2% |
    hmm2:                                  607.185   607.185   2.0% ||
    iFFT:                                  566.127   566.127   1.8% ||
    potential:                            2903.425    74.996   0.2% |
     collect:                              230.368   230.368   0.8% |
     p1:                                  1237.891  1237.891   4.0% |-|
     p2:                                   891.445   891.445   2.9% ||
     sum:                                  468.724   468.724   1.5% ||
    splines:                                 0.012     0.012   0.0% |
  vbar:                                     18.949    18.949   0.1% |
 Orthonormalize:                            29.120     0.010   0.0% |
  calc_s_matrix:                             6.108     6.108   0.0% |
  inverse-cholesky:                          0.243     0.243   0.0% |
  projections:                               7.320     7.320   0.0% |
  rotate_psi_s:                             15.438    15.438   0.1% |
Set symmetry:                                0.004     0.004   0.0% |
Other:                                     246.226   246.226   0.8% |
-------------------------------------------------------------------
Total:                                             30649.493 100.0%

Memory usage: 1.60 GiB
Date: Fri Mar 10 02:05:15 2023
