
  ___ ___ ___ _ _ _  
 |   |   |_  | | | | 
 | | | | | . | | | | 
 |__ |  _|___|_____|  22.8.0
 |___|_|             

User:   vazumah@c10.hercules
Date:   Tue Feb  7 03:44:08 2023
Arch:   x86_64
Pid:    2722
CWD:    /home/vazumah/Python_projects/LiNRR/Li_adsorb_studies/proton_donors/ethanol_N2/CH3CH2OH_x/bridge/8.085_1.617/N2_z
Python: 3.10.8
gpaw:   /home/vazumah/.conda/envs/GPAW/lib/python3.10/site-packages/gpaw
_gpaw:  /home/vazumah/.conda/envs/GPAW/lib/python3.10/site-packages/
        _gpaw.cpython-310-x86_64-linux-gnu.so
ase:    /home/vazumah/.conda/envs/GPAW/lib/python3.10/site-packages/ase (version 3.22.1)
numpy:  /home/vazumah/.conda/envs/GPAW/lib/python3.10/site-packages/numpy (version 1.24.1)
scipy:  /home/vazumah/.conda/envs/GPAW/lib/python3.10/site-packages/scipy (version 1.10.0)
libxc:  5.2.3
units:  Angstrom and eV
cores: 24
OpenMP: True
OMP_NUM_THREADS: 1

Input parameters:
  h: 0.16
  kpts: {size: [4, 4, 1]}
  occupations: {name: fermi-dirac,
                width: 0.05}
  poissonsolver: {dipolelayer: xy}
  xc: BEEF-vdW

System changes: positions, numbers, cell, pbc, initial_charges, initial_magmoms 

Initialize ...

species:
  Li:
    name: Lithium
    id: 830b4218f175192f93f959cfc0aad614
    Z: 3.0
    valence: 1
    core: 2
    charge: 0.0
    file: /home/vazumah/.conda/envs/GPAW/share/gpaw/Li.PBE.gz
    compensation charges: {type: gauss,
                           rc: 0.33,
                           lmax: 2}
    cutoffs: {filter: 1.91,
              core: 2.55}
    valence states:
      #              energy  rcut
      - 2s(1.00)    -2.874   1.058
      - 2p(0.00)    -1.090   1.058
      -  s          24.337   1.058
  
    # Using partial waves for Li as LCAO basis

  O:
    name: Oxygen
    id: 32ecd46bf208036f09c70b0ec9a88b78
    Z: 8.0
    valence: 6
    core: 2
    charge: 0.0
    file: /home/vazumah/.conda/envs/GPAW/share/gpaw/O.PBE.gz
    compensation charges: {type: gauss,
                           rc: 0.21,
                           lmax: 2}
    cutoffs: {filter: 1.17,
              core: 0.83}
    valence states:
      #              energy  rcut
      - 2s(2.00)   -23.961   0.688
      - 2p(4.00)    -9.029   0.598
      -  s           3.251   0.688
      -  p          18.182   0.598
      -  d           0.000   0.619
  
    # Using partial waves for O as LCAO basis

  C:
    name: Carbon
    id: 4aa54d4b901d75f77cc0ea3eec22967b
    Z: 6.0
    valence: 4
    core: 2
    charge: 0.0
    file: /home/vazumah/.conda/envs/GPAW/share/gpaw/C.PBE.gz
    compensation charges: {type: gauss,
                           rc: 0.20,
                           lmax: 2}
    cutoffs: {filter: 1.14,
              core: 1.14}
    valence states:
      #              energy  rcut
      - 2s(2.00)   -13.751   0.635
      - 2p(2.00)    -5.284   0.635
      -  s          13.461   0.635
      -  p          21.927   0.635
      -  d           0.000   0.635
  
    # Using partial waves for C as LCAO basis

  H:
    name: Hydrogen
    id: d65de229564ff8ea4db303e23b6d1ecf
    Z: 1.0
    valence: 1
    core: 0
    charge: 0.0
    file: /home/vazumah/.conda/envs/GPAW/share/gpaw/H.PBE.gz
    compensation charges: {type: gauss,
                           rc: 0.15,
                           lmax: 2}
    cutoffs: {filter: 0.85,
              core: 0.53}
    valence states:
      #              energy  rcut
      - 1s(1.00)    -6.494   0.476
      -  s          20.717   0.476
      -  p           0.000   0.476
  
    # Using partial waves for H as LCAO basis

  N:
    name: Nitrogen
    id: f7500608b86eaa90eef8b1d9a670dc53
    Z: 7.0
    valence: 5
    core: 2
    charge: 0.0
    file: /home/vazumah/.conda/envs/GPAW/share/gpaw/N.PBE.gz
    compensation charges: {type: gauss,
                           rc: 0.18,
                           lmax: 2}
    cutoffs: {filter: 1.11,
              core: 0.96}
    valence states:
      #              energy  rcut
      - 2s(2.00)   -18.583   0.603
      - 2p(3.00)    -7.089   0.529
      -  s           8.629   0.603
      -  p          20.123   0.529
      -  d           0.000   0.577
  
    # Using partial waves for N as LCAO basis

Reference energy: -14434.854043  # eV

Spin-paired calculation

Convergence criteria:
 Maximum [total energy] change in last 3 cyles: 0.0005 eV / electron
 Maximum integral of absolute [dens]ity change: 0.0001 electrons / valence electron
 Maximum integral of absolute [eigenst]ate change: 4e-08 eV^2 / valence electron
 Maximum number of scf [iter]ations: 333
 (Square brackets indicate name in SCF output, whereas a 'c' in
 the SCF output indicates the quantity has converged.)

Symmetries present (total): 1

  ( 1  0  0)
  ( 0  1  0)
  ( 0  0  1)

16 k-points: 4 x 4 x 1 Monkhorst-Pack grid
8 k-points in the irreducible part of the Brillouin zone
       k-points in crystal coordinates                weights
   0:     0.12500000   -0.37500000    0.00000000          2/16
   1:     0.12500000   -0.12500000    0.00000000          2/16
   2:     0.12500000    0.12500000    0.00000000          2/16
   3:     0.12500000    0.37500000    0.00000000          2/16
   4:     0.37500000   -0.37500000    0.00000000          2/16
   5:     0.37500000   -0.12500000    0.00000000          2/16
   6:     0.37500000    0.12500000    0.00000000          2/16
   7:     0.37500000    0.37500000    0.00000000          2/16

Wave functions: Uniform real-space grid
  Kinetic energy operator: 6*3+1=19 point O(h^6) finite-difference Laplacian
  ScaLapack parameters: grid=1x1, blocksize=None
  Wavefunction extrapolation:
    Improved wavefunction reuse through dual PAW basis 

Occupation numbers: Fermi-Dirac:
  width: 0.0500  # eV
 

Eigensolver
   Davidson(niter=2) 

Densities:
  Coarse grid: 60*60*156 grid
  Fine grid: 120*120*312 grid
  Total Charge: 0.000000 

Density mixing:
  Method: separate
  Backend: pulay
  Linear mixing parameter: 0.05
  old densities: 5
  Damping of long wavelength oscillations: 50 

Hamiltonian:
  XC and Coulomb potentials evaluated on a 120*120*312 grid
  Using the BEEF-vdW Exchange-Correlation functional
  Interpolation: tri-quintic (5. degree polynomial)
  Poisson solver: FastPoissonSolver using
    Stencil: 6*3+1=19 point O(h^6) finite-difference Laplacian
    FFT axes: [0, 1]
    FST axes: [2]

Dipole correction along z-axis 

XC parameters: BEEF-vdW with 2 nearest neighbor stencil

Memory estimate:
  Process memory now: 219.22 MiB
  Calculator: 411.72 MiB
    Density: 118.00 MiB
      Arrays: 36.75 MiB
      Localized functions: 67.24 MiB
      Mixer: 14.01 MiB
    Hamiltonian: 29.35 MiB
      Arrays: 24.03 MiB
      XC: 0.00 MiB
      Poisson: 0.00 MiB
      vbar: 5.32 MiB
    Wavefunctions: 264.37 MiB
      Arrays psit_nG: 123.27 MiB
      Eigensolver: 137.57 MiB
      Projections: 0.06 MiB
      Projectors: 3.47 MiB

Total number of cores used: 24
Parallelization over k-points: 8
Domain decomposition: 1 x 1 x 3

Number of atoms: 47
Number of atomic orbitals: 170
Number of bands in calculation: 44
Number of valence electrons: 66
Bands to converge: occupied

... initialized

Initializing position-dependent things.

Density initialized from atomic densities
Creating initial wave functions:
  44 bands from LCAO basis set

       .-----------------------.  
      /|                       |  
     / |                       |  
    /  |                       |  
   /   |                       |  
  /    |                       |  
 *     |                       |  
 |     |                       |  
 |   H |              H        |  
 |  C  |              O H      |  
 |   HH|                C      |  
 |     |                H      |  
 |     |              N        |  
 |     |              N        |  
 |   Li|     Li      Li        |  
 |     |  Li      Li      Li   |  
 | Li  |   Li      Li          |  
 |     |Li      Li      Li     |  
 Li    | Li      Li            |  
 |   LLi     LLi     LLi       |  
 |     |  Li      Li      Li   |  
 | Li  |   Li      Li          |  
 |     |Li      Li      Li     |  
 Li    | Li      Li            |  
 |    Li      Li      Li       |  
 |     |                       |  
 |     |                       |  
 |     |                       |  
 |     |                       |  
 |     |                       |  
 |     |                       |  
 |     .-----------------------.  
 |    /                       /   
 |   /                       /    
 |  /                       /     
 | /                       /      
 |/                       /       
 *-----------------------*        

Positions:
   0 Li     1.617037    1.617037   10.000000    ( 0.0000,  0.0000,  0.0000)
   1 Li     4.851111    1.617037   10.000000    ( 0.0000,  0.0000,  0.0000)
   2 Li     8.085185    1.617037   10.000000    ( 0.0000,  0.0000,  0.0000)
   3 Li     1.617037    4.851111   10.000000    ( 0.0000,  0.0000,  0.0000)
   4 Li     4.851111    4.851111   10.000000    ( 0.0000,  0.0000,  0.0000)
   5 Li     8.085185    4.851111   10.000000    ( 0.0000,  0.0000,  0.0000)
   6 Li     1.617037    8.085185   10.000000    ( 0.0000,  0.0000,  0.0000)
   7 Li     4.851111    8.085185   10.000000    ( 0.0000,  0.0000,  0.0000)
   8 Li     8.085185    8.085185   10.000000    ( 0.0000,  0.0000,  0.0000)
   9 Li     0.000000    0.000000   11.617037    ( 0.0000,  0.0000,  0.0000)
  10 Li     3.234074    0.000000   11.617037    ( 0.0000,  0.0000,  0.0000)
  11 Li     6.468148    0.000000   11.617037    ( 0.0000,  0.0000,  0.0000)
  12 Li     0.000000    3.234074   11.617037    ( 0.0000,  0.0000,  0.0000)
  13 Li     3.234074    3.234074   11.617037    ( 0.0000,  0.0000,  0.0000)
  14 Li     6.468148    3.234074   11.617037    ( 0.0000,  0.0000,  0.0000)
  15 Li     0.000000    6.468148   11.617037    ( 0.0000,  0.0000,  0.0000)
  16 Li     3.234074    6.468148   11.617037    ( 0.0000,  0.0000,  0.0000)
  17 Li     6.468148    6.468148   11.617037    ( 0.0000,  0.0000,  0.0000)
  18 Li     1.617038    1.617038   13.469728    ( 0.0000,  0.0000,  0.0000)
  19 Li     4.851111    1.617038   13.469729    ( 0.0000,  0.0000,  0.0000)
  20 Li     8.085184    1.617038   13.469728    ( 0.0000,  0.0000,  0.0000)
  21 Li     1.617038    4.851111   13.469729    ( 0.0000,  0.0000,  0.0000)
  22 Li     4.851111    4.851111   13.469730    ( 0.0000,  0.0000,  0.0000)
  23 Li     8.085184    4.851111   13.469729    ( 0.0000,  0.0000,  0.0000)
  24 Li     1.617038    8.085184   13.469728    ( 0.0000,  0.0000,  0.0000)
  25 Li     4.851111    8.085184   13.469729    ( 0.0000,  0.0000,  0.0000)
  26 Li     8.085184    8.085184   13.469728    ( 0.0000,  0.0000,  0.0000)
  27 Li    -0.000000   -0.000000   15.445939    ( 0.0000,  0.0000,  0.0000)
  28 Li     3.234074    0.000000   15.445939    ( 0.0000,  0.0000,  0.0000)
  29 Li     6.468148    0.000000   15.445939    ( 0.0000,  0.0000,  0.0000)
  30 Li     0.000000    3.234074   15.445939    ( 0.0000,  0.0000,  0.0000)
  31 Li     3.234076    3.234076   15.445938    ( 0.0000,  0.0000,  0.0000)
  32 Li     6.468146    3.234076   15.445938    ( 0.0000,  0.0000,  0.0000)
  33 Li     0.000000    6.468148   15.445939    ( 0.0000,  0.0000,  0.0000)
  34 Li     3.234076    6.468146   15.445938    ( 0.0000,  0.0000,  0.0000)
  35 Li     6.468146    6.468146   15.445938    ( 0.0000,  0.0000,  0.0000)
  36 O      8.085185    1.617037   21.445939    ( 0.0000,  0.0000,  0.0000)
  37 C      9.267593    0.800279   21.450238    ( 0.0000,  0.0000,  0.0000)
  38 C     10.551807    1.619898   21.435704    ( 0.0000,  0.0000,  0.0000)
  39 H      9.258969    0.116744   22.310398    ( 0.0000,  0.0000,  0.0000)
  40 H      9.192204    0.190554   20.547442    ( 0.0000,  0.0000,  0.0000)
  41 H     11.428734    0.965951   21.420269    ( 0.0000,  0.0000,  0.0000)
  42 H     10.586519    2.268921   20.558886    ( 0.0000,  0.0000,  0.0000)
  43 H     10.621995    2.248385   22.328265    ( 0.0000,  0.0000,  0.0000)
  44 H      8.124352    2.200014   22.214164    ( 0.0000,  0.0000,  0.0000)
  45 N      8.085000    1.617000   18.445939    ( 0.0000,  0.0000,  0.0000)
  46 N      8.085000    1.617000   19.542561    ( 0.0000,  0.0000,  0.0000)

Unit cell:
           periodic     x           y           z      points  spacing
  1. axis:    yes    9.702222    0.000000    0.000000    60     0.1617
  2. axis:    yes    0.000000    9.702222    0.000000    60     0.1617
  3. axis:    no     0.000000    0.000000   24.851111   156     0.1593

  Lengths:   9.702222   9.702222  24.851111
  Angles:   90.000000  90.000000  90.000000

Effective grid spacing dv^(1/3) = 0.1609

     iter     time        total  log10-change:
                         energy  eigst   dens
iter:   1 03:47:31  -700.420471
iter:   2 03:50:08    45.794801  +2.60  +0.03
iter:   3 03:52:49   376.078851  +3.26  -0.07
iter:   4 03:55:23   173.533934  +3.47  -0.09
Writing to output.gpw (mode='')

iter:   5 03:58:01  -163.255050  +3.31  -0.09
iter:   6 04:00:31  -395.291059  +3.07  -0.33
iter:   7 04:03:07  -397.512056  +2.64  -0.31
iter:   8 04:05:44  -369.960295  +2.27  -0.31
iter:   9 04:08:13  -591.329496  +2.70  -0.39
Writing to output.gpw (mode='')

iter:  10 04:10:49  -445.732174  +1.89  -0.14
iter:  11 04:13:22  -455.633280  +2.07  -0.21
iter:  12 04:15:52  -359.277444  +2.61  -0.23
iter:  13 04:18:30  -363.179114  +1.81  -0.44
iter:  14 04:21:10  -321.965107  +1.05  -0.36
Writing to output.gpw (mode='')

iter:  15 04:23:43  -318.616143  +1.08  -0.60
iter:  16 04:26:18  -319.034322  +0.34  -0.65
iter:  17 04:28:57  -316.531609  +0.27  -0.66
iter:  18 04:31:30  -310.775139  +0.81  -0.70
iter:  19 04:34:04  -316.659737  +0.85  -0.78
Writing to output.gpw (mode='')

iter:  20 04:36:36  -311.297233  +0.54  -0.57
iter:  21 04:38:59  -309.829603  +0.51  -0.73
iter:  22 04:41:30  -308.838023  +0.35  -0.90
iter:  23 04:44:03  -309.322330  -0.29  -0.92
iter:  24 04:46:35  -308.652896  -0.05  -1.00
Writing to output.gpw (mode='')

iter:  25 04:49:08  -307.349943  +0.26  -1.02
iter:  26 04:51:41  -306.779904  +0.08  -1.12
iter:  27 04:54:18  -306.641053  -0.12  -1.32
iter:  28 04:56:51  -306.578366  +0.10  -1.33
iter:  29 04:59:22  -306.568395  -0.58  -1.57
Writing to output.gpw (mode='')

iter:  30 05:01:56  -306.544381  -0.58  -1.56
iter:  31 05:04:24  -306.521502  -0.80  -1.70
iter:  32 05:06:56  -306.525065c -1.08  -1.92
iter:  33 05:09:29  -306.525896c -1.31  -1.97
iter:  34 05:12:13  -306.529578c -1.36  -2.02
Writing to output.gpw (mode='')

iter:  35 05:14:40  -306.536987c -1.28  -2.05
iter:  36 05:17:11  -306.537798c -1.52  -2.23
iter:  37 05:19:41  -306.540191c -1.75  -2.46
iter:  38 05:22:16  -306.542115c -1.81  -2.47
iter:  39 05:24:48  -306.545214c -1.64  -2.50
Writing to output.gpw (mode='')

iter:  40 05:27:37  -306.547601c -1.94  -2.57
iter:  41 05:30:10  -306.548672c -2.27  -2.66
iter:  42 05:32:50  -306.550026c -2.07  -2.69
iter:  43 05:35:20  -306.551537c -2.21  -2.81
iter:  44 05:37:47  -306.552504c -2.32  -2.92
Writing to output.gpw (mode='')

iter:  45 05:40:20  -306.553441c -2.28  -2.98
iter:  46 05:43:00  -306.554348c -2.34  -3.01
iter:  47 05:45:45  -306.555130c -2.51  -3.07
iter:  48 05:48:13  -306.555791c -2.52  -3.12
iter:  49 05:50:46  -306.556398c -2.52  -3.27
Writing to output.gpw (mode='')

iter:  50 05:53:21  -306.556879c -2.68  -3.33
iter:  51 05:55:55  -306.557385c -2.64  -3.31
iter:  52 05:58:33  -306.557788c -2.81  -3.25
iter:  53 06:01:05  -306.558175c -2.79  -3.21
iter:  54 06:03:38  -306.558571c -2.78  -3.18
Writing to output.gpw (mode='')

iter:  55 06:06:14  -306.558881c -2.97  -3.15
iter:  56 06:08:49  -306.559160c -3.00  -3.16
iter:  57 06:11:22  -306.559511c -2.85  -3.22
iter:  58 06:13:49  -306.559743c -3.11  -3.25
iter:  59 06:16:14  -306.559959c -3.01  -3.43
Writing to output.gpw (mode='')

iter:  60 06:18:43  -306.560245c -2.87  -3.47
iter:  61 06:21:10  -306.560437c -3.12  -3.62
iter:  62 06:23:38  -306.560605c -3.19  -3.63
iter:  63 06:26:13  -306.560730c -3.31  -3.73
iter:  64 06:28:42  -306.560871c -3.18  -3.78
Writing to output.gpw (mode='')

iter:  65 06:31:11  -306.560969c -3.46  -3.95
iter:  66 06:33:52  -306.561057c -3.47  -3.96
iter:  67 06:36:26  -306.561136c -3.46  -4.00c
iter:  68 06:39:04  -306.561211c -3.43  -4.01c
iter:  69 06:41:32  -306.561273c -3.67  -4.11c
Writing to output.gpw (mode='')

iter:  70 06:44:08  -306.561324c -3.71  -4.34c
iter:  71 06:46:52  -306.561367c -3.75  -4.25c
iter:  72 06:49:28  -306.561421c -3.73  -4.14c
iter:  73 06:51:55  -306.561457c -3.82  -4.23c
iter:  74 06:54:25  -306.561487c -3.88  -4.26c
Writing to output.gpw (mode='')

iter:  75 06:56:58  -306.561514c -3.89  -4.21c
iter:  76 06:59:33  -306.561549c -3.68  -4.16c
iter:  77 07:02:12  -306.561570c -4.12  -4.10c
iter:  78 07:04:45  -306.561588c -4.17  -4.01c
iter:  79 07:07:22  -306.561603c -4.13  -4.07c
Writing to output.gpw (mode='')

iter:  80 07:10:05  -306.561616c -4.24  -4.06c
iter:  81 07:12:38  -306.561629c -4.33  -4.09c
iter:  82 07:15:20  -306.561641c -4.30  -4.00
iter:  83 07:18:03  -306.561650c -4.59  -4.11c
iter:  84 07:20:46  -306.561656c -4.66  -4.00
Writing to output.gpw (mode='')

iter:  85 07:23:29  -306.561666c -4.33  -4.06c
iter:  86 07:26:03  -306.561672c -4.75  -4.07c
iter:  87 07:28:43  -306.561676c -4.84  -4.05c
iter:  88 07:31:17  -306.561681c -4.64  -4.03c
iter:  89 07:33:50  -306.561685c -4.95  -4.05c
Writing to output.gpw (mode='')

iter:  90 07:36:30  -306.561688c -4.91  -4.02c
iter:  91 07:39:06  -306.561690c -4.80  -4.06c
iter:  92 07:41:43  -306.561693c -5.13  -4.21c
iter:  93 07:44:20  -306.561694c -5.17  -4.17c
iter:  94 07:47:04  -306.561695c -4.86  -4.24c
Writing to output.gpw (mode='')

iter:  95 07:49:39  -306.561697c -5.27  -4.32c
iter:  96 07:52:17  -306.561698c -5.18  -4.40c
iter:  97 07:54:54  -306.561700c -5.31  -4.44c
iter:  98 07:57:29  -306.561701c -5.49  -4.74c
iter:  99 08:00:03  -306.561702c -5.30  -4.86c
Writing to output.gpw (mode='')

iter: 100 08:02:43  -306.561702c -5.66  -4.88c
iter: 101 08:05:16  -306.561703c -5.73  -4.95c
iter: 102 08:07:52  -306.561703c -5.81  -5.00c
iter: 103 08:10:29  -306.561703c -5.65  -5.08c
iter: 104 08:13:12  -306.561704c -5.94  -5.19c
Writing to output.gpw (mode='')

iter: 105 08:15:57  -306.561704c -5.50  -5.22c
iter: 106 08:18:34  -306.561704c -6.02  -5.35c
iter: 107 08:20:59  -306.561705c -5.90  -5.39c
iter: 108 08:23:27  -306.561705c -6.03  -5.39c
iter: 109 08:26:00  -306.561705c -5.82  -5.38c
Writing to output.gpw (mode='')

iter: 110 08:28:33  -306.561705c -6.19  -5.37c
iter: 111 08:31:06  -306.561705c -6.40  -5.31c
iter: 112 08:33:39  -306.561705c -6.50  -5.34c
iter: 113 08:36:17  -306.561706c -6.41  -5.31c
iter: 114 08:38:48  -306.561706c -6.42  -5.34c
Writing to output.gpw (mode='')

iter: 115 08:41:33  -306.561706c -6.61  -5.41c
iter: 116 08:44:13  -306.561706c -6.64  -5.39c
iter: 117 08:46:46  -306.561706c -6.57  -5.35c
iter: 118 08:49:20  -306.561706c -6.46  -5.33c
iter: 119 08:51:55  -306.561706c -6.75  -5.39c
Writing to output.gpw (mode='')

iter: 120 08:54:34  -306.561706c -6.79  -5.25c
iter: 121 08:57:06  -306.561706c -6.96  -5.50c
iter: 122 08:59:43  -306.561706c -7.00  -5.42c
iter: 123 09:02:20  -306.561706c -6.86  -5.59c
iter: 124 09:05:01  -306.561706c -6.97  -5.45c
Writing to output.gpw (mode='')

iter: 125 09:07:29  -306.561706c -7.11  -5.59c
iter: 126 09:10:01  -306.561706c -7.13  -5.58c
iter: 127 09:12:32  -306.561706c -7.06  -5.57c
iter: 128 09:14:57  -306.561706c -6.92  -5.51c
iter: 129 09:17:31  -306.561706c -7.17  -5.61c
Writing to output.gpw (mode='')

iter: 130 09:20:01  -306.561706c -7.16  -5.62c
iter: 131 09:22:33  -306.561706c -7.40c -5.61c

Converged after 131 iterations.

Dipole moment: (6.627660, -9.803769, 0.359511) |e|*Ang

Energy contributions relative to reference atoms: (reference = -14434.854043)

Kinetic:       +162.660200
Potential:     -155.105949
External:        +0.000000
XC:            -314.769778
Entropy (-ST):   -0.153301
Local:           +0.730471
--------------------------
Free energy:   -306.638356
Extrapolated:  -306.561706

Dipole-layer corrected work functions: 3.387063, 2.695959 eV

Showing only first 2 kpts
 Kpt  Band  Eigenvalues  Occupancy
  0    31     -3.29407    1.98728
  0    32     -3.20749    1.93019
  0    33     -2.87924    0.07499
  0    34     -2.78780    0.01243

  1    31     -3.06482    1.22895
  1    32     -3.03953    0.98023
  1    33     -3.00343    0.63657
  1    34     -2.98963    0.52320


Fermi level: -3.04151

No gap
Writing to output.gpw (mode='')


Forces in eV/Ang:
  0 Li    0.00592    0.00005   -0.27320
  1 Li   -0.00602    0.00017   -0.27294
  2 Li    0.00011   -0.00013   -0.27255
  3 Li   -0.00271   -0.00310   -0.27316
  4 Li    0.00300   -0.00285   -0.27306
  5 Li   -0.00027    0.00608   -0.27296
  6 Li   -0.00298    0.00305   -0.27331
  7 Li    0.00313    0.00266   -0.27310
  8 Li   -0.00014   -0.00597   -0.27310
  9 Li    0.00149   -0.00135    0.25996
 10 Li   -0.00013    0.00257    0.25851
 11 Li   -0.00134   -0.00170    0.25986
 12 Li    0.00144    0.00118    0.26020
 13 Li    0.00006   -0.00239    0.25793
 14 Li   -0.00151    0.00164    0.25974
 15 Li   -0.00247    0.00017    0.25856
 16 Li   -0.00003   -0.00018    0.26873
 17 Li    0.00249    0.00008    0.25754
 18 Li   -0.00463    0.00016    0.04431
 19 Li    0.00509    0.00006    0.04284
 20 Li   -0.00044   -0.00000   -0.00604
 21 Li   -0.00151   -0.00141    0.03647
 22 Li    0.00164   -0.00146    0.03672
 23 Li   -0.00017   -0.00477    0.04324
 24 Li   -0.00124    0.00126    0.03636
 25 Li    0.00135    0.00142    0.03619
 26 Li   -0.00018    0.00479    0.04407
 27 Li    0.02332   -0.02202   -0.03586
 28 Li   -0.00246    0.00829   -0.01739
 29 Li   -0.02110   -0.02277   -0.03443
 30 Li    0.02327    0.02077   -0.03426
 31 Li   -0.00204   -0.00835   -0.01798
 32 Li   -0.02137    0.02172   -0.03379
 33 Li   -0.00736    0.00113   -0.01863
 34 Li   -0.00079    0.00006   -0.01947
 35 Li    0.00820    0.00063   -0.01979
 36 O     0.18155    0.33561    5.15895
 37 C     0.21038   -0.14895    0.65676
 38 C     0.01974    0.02645    0.02160
 39 H    -0.06076    0.04982   -0.09189
 40 H     0.12273   -0.10753    0.21403
 41 H    -0.04797    0.00824   -0.01965
 42 H     0.03889    0.00112   -0.00524
 43 H     0.00270   -0.01563   -0.03648
 44 H     0.05159   -0.14679    0.67841
 45 N    -0.15047    0.37805   -1.42193
 46 N    -0.35664   -0.40729   -5.18754

System changes: positions 

Initializing position-dependent things.

Density initialized from wave functions
       .-----------------------.  
      /|                       |  
     / |                       |  
    /  |                       |  
   /   |                       |  
  /    |                       |  
 *     |                       |  
 |     |                       |  
 |   H |              H        |  
 |  C  |              O H      |  
 |   HH|                C      |  
 |     |                H      |  
 |     Li             NLi      |  
 |     |              N        |  
 |     |     Li      Li      Li|  
 |     |  Li      Li      Li   |  
 | Li  |   Li      Li          |  
 |     |Li      Li      Li     |  
 |     | Li                    |  
 |   LLi     LLi     LLi       |  
 |     |  Li      Li      Li   |  
 | Li  |   Li      Li          |  
 |     |Li      Li      Li     |  
 Li    | Li      Li            |  
 |    Li      Li      Li       |  
 |     |                       |  
 |     |                       |  
 |     |                       |  
 |     |                       |  
 |     |                       |  
 |     |                       |  
 |     .-----------------------.  
 |    /                       /   
 |   /                       /    
 |  /                       /     
 | /                       /      
 |/                       /       
 *-----------------------*        

Positions:
   0 Li     1.617037    1.617037   10.000000    ( 0.0000,  0.0000,  0.0000)
   1 Li     4.851111    1.617037   10.000000    ( 0.0000,  0.0000,  0.0000)
   2 Li     8.085185    1.617037   10.000000    ( 0.0000,  0.0000,  0.0000)
   3 Li     1.617037    4.851111   10.000000    ( 0.0000,  0.0000,  0.0000)
   4 Li     4.851111    4.851111   10.000000    ( 0.0000,  0.0000,  0.0000)
   5 Li     8.085185    4.851111   10.000000    ( 0.0000,  0.0000,  0.0000)
   6 Li     1.617037    8.085185   10.000000    ( 0.0000,  0.0000,  0.0000)
   7 Li     4.851111    8.085185   10.000000    ( 0.0000,  0.0000,  0.0000)
   8 Li     8.085185    8.085185   10.000000    ( 0.0000,  0.0000,  0.0000)
   9 Li     0.000000    0.000000   11.617037    ( 0.0000,  0.0000,  0.0000)
  10 Li     3.234074    0.000000   11.617037    ( 0.0000,  0.0000,  0.0000)
  11 Li     6.468148    0.000000   11.617037    ( 0.0000,  0.0000,  0.0000)
  12 Li     0.000000    3.234074   11.617037    ( 0.0000,  0.0000,  0.0000)
  13 Li     3.234074    3.234074   11.617037    ( 0.0000,  0.0000,  0.0000)
  14 Li     6.468148    3.234074   11.617037    ( 0.0000,  0.0000,  0.0000)
  15 Li     0.000000    6.468148   11.617037    ( 0.0000,  0.0000,  0.0000)
  16 Li     3.234074    6.468148   11.617037    ( 0.0000,  0.0000,  0.0000)
  17 Li     6.468148    6.468148   11.617037    ( 0.0000,  0.0000,  0.0000)
  18 Li     1.617003    1.617039   13.470068    ( 0.0000,  0.0000,  0.0000)
  19 Li     4.851150    1.617039   13.470058    ( 0.0000,  0.0000,  0.0000)
  20 Li     8.085180    1.617038   13.469682    ( 0.0000,  0.0000,  0.0000)
  21 Li     1.617027    4.851100   13.470009    ( 0.0000,  0.0000,  0.0000)
  22 Li     4.851124    4.851100   13.470012    ( 0.0000,  0.0000,  0.0000)
  23 Li     8.085182    4.851074   13.470061    ( 0.0000,  0.0000,  0.0000)
  24 Li     1.617029    8.085194   13.470007    ( 0.0000,  0.0000,  0.0000)
  25 Li     4.851121    8.085194   13.470007    ( 0.0000,  0.0000,  0.0000)
  26 Li     8.085183    8.085221   13.470066    ( 0.0000,  0.0000,  0.0000)
  27 Li     0.000179   -0.000169   15.445664    ( 0.0000,  0.0000,  0.0000)
  28 Li     3.234055    0.000064   15.445805    ( 0.0000,  0.0000,  0.0000)
  29 Li     6.467986   -0.000175   15.445675    ( 0.0000,  0.0000,  0.0000)
  30 Li     0.000178    3.234233   15.445676    ( 0.0000,  0.0000,  0.0000)
  31 Li     3.234061    3.234012   15.445800    ( 0.0000,  0.0000,  0.0000)
  32 Li     6.467982    3.234243   15.445679    ( 0.0000,  0.0000,  0.0000)
  33 Li    -0.000056    6.468157   15.445796    ( 0.0000,  0.0000,  0.0000)
  34 Li     3.234070    6.468146   15.445789    ( 0.0000,  0.0000,  0.0000)
  35 Li     6.468208    6.468150   15.445786    ( 0.0000,  0.0000,  0.0000)
  36 O      8.086577    1.619611   21.485504    ( 0.0000,  0.0000,  0.0000)
  37 C      9.269206    0.799137   21.455274    ( 0.0000,  0.0000,  0.0000)
  38 C     10.551959    1.620101   21.435870    ( 0.0000,  0.0000,  0.0000)
  39 H      9.258503    0.117126   22.309693    ( 0.0000,  0.0000,  0.0000)
  40 H      9.193145    0.189729   20.549083    ( 0.0000,  0.0000,  0.0000)
  41 H     11.428366    0.966015   21.420119    ( 0.0000,  0.0000,  0.0000)
  42 H     10.586817    2.268929   20.558846    ( 0.0000,  0.0000,  0.0000)
  43 H     10.622016    2.248266   22.327986    ( 0.0000,  0.0000,  0.0000)
  44 H      8.124748    2.198888   22.219367    ( 0.0000,  0.0000,  0.0000)
  45 N      8.083846    1.619899   18.435034    ( 0.0000,  0.0000,  0.0000)
  46 N      8.082265    1.613876   19.502777    ( 0.0000,  0.0000,  0.0000)

Unit cell:
           periodic     x           y           z      points  spacing
  1. axis:    yes    9.702222    0.000000    0.000000    60     0.1617
  2. axis:    yes    0.000000    9.702222    0.000000    60     0.1617
  3. axis:    no     0.000000    0.000000   24.851111   156     0.1593

  Lengths:   9.702222   9.702222  24.851111
  Angles:   90.000000  90.000000  90.000000

Effective grid spacing dv^(1/3) = 0.1609

     iter     time        total  log10-change:
                         energy  eigst   dens
iter:   1 09:25:56  -307.546859  -0.73
iter:   2 09:28:33  -307.051951  -0.48  -1.23
iter:   3 09:31:07  -306.952461  -1.32  -1.47
iter:   4 09:33:39  -306.879450  -0.59  -1.77
Writing to output.gpw (mode='')

iter:   5 09:36:20  -306.876586  -1.39  -1.98
iter:   6 09:38:52  -306.864789c -1.26  -2.11
iter:   7 09:41:21  -306.866439c -1.28  -2.39
iter:   8 09:44:04  -306.869708c -1.50  -2.31
iter:   9 09:46:33  -306.864769c -1.90  -2.16
Writing to output.gpw (mode='')

iter:  10 09:49:09  -306.864150c -2.20  -2.46
iter:  11 09:51:48  -306.863487c -2.15  -2.62
iter:  12 09:54:17  -306.863541c -2.78  -2.70
iter:  13 09:56:51  -306.863465c -3.21  -2.73
iter:  14 09:59:23  -306.863630c -3.11  -2.79
Writing to output.gpw (mode='')

iter:  15 10:02:00  -306.863519c -3.24  -2.94
iter:  16 10:04:40  -306.863511c -3.57  -3.13
iter:  17 10:07:14  -306.863527c -3.61  -3.19
iter:  18 10:09:49  -306.863549c -3.77  -3.24
iter:  19 10:12:22  -306.863584c -3.92  -3.28
Writing to output.gpw (mode='')

iter:  20 10:15:04  -306.863578c -4.13  -3.45
iter:  21 10:17:34  -306.863580c -3.97  -3.46
iter:  22 10:20:12  -306.863586c -4.32  -3.47
iter:  23 10:22:43  -306.863579c -4.41  -3.71
iter:  24 10:25:13  -306.863580c -4.40  -3.87
Writing to output.gpw (mode='')

iter:  25 10:27:49  -306.863585c -4.74  -3.92
iter:  26 10:30:24  -306.863588c -4.79  -4.03c
iter:  27 10:32:53  -306.863588c -5.01  -4.15c
iter:  28 10:35:29  -306.863588c -5.05  -4.17c
iter:  29 10:38:00  -306.863592c -5.20  -4.21c
Writing to output.gpw (mode='')

iter:  30 10:40:34  -306.863593c -5.60  -4.29c
iter:  31 10:43:04  -306.863592c -5.42  -4.42c
iter:  32 10:45:36  -306.863592c -5.50  -4.55c
iter:  33 10:48:07  -306.863593c -5.94  -4.49c
iter:  34 10:50:40  -306.863594c -5.99  -4.70c
Writing to output.gpw (mode='')

iter:  35 10:53:12  -306.863594c -6.31  -4.75c
iter:  36 10:55:51  -306.863594c -6.27  -4.75c
iter:  37 10:58:24  -306.863594c -6.43  -4.94c
iter:  38 11:00:57  -306.863594c -6.46  -5.00c
iter:  39 11:03:32  -306.863594c -6.44  -5.13c
Writing to output.gpw (mode='')

iter:  40 11:06:05  -306.863594c -6.49  -5.17c
iter:  41 11:08:30  -306.863594c -6.54  -5.21c
iter:  42 11:11:05  -306.863594c -6.85  -5.31c
iter:  43 11:13:30  -306.863594c -6.85  -5.37c
iter:  44 11:16:01  -306.863594c -6.78  -5.52c
Writing to output.gpw (mode='')

iter:  45 11:18:36  -306.863595c -6.91  -5.62c
iter:  46 11:21:18  -306.863594c -6.95  -5.72c
iter:  47 11:23:49  -306.863595c -6.99  -5.86c
iter:  48 11:26:25  -306.863594c -7.02  -5.89c
iter:  49 11:29:14  -306.863594c -7.11  -5.96c
Writing to output.gpw (mode='')

iter:  50 11:31:54  -306.863594c -7.23  -5.94c
iter:  51 11:34:40  -306.863594c -7.41c -5.94c

Converged after 51 iterations.

Dipole moment: (6.666373, -9.810436, 0.342974) |e|*Ang

Energy contributions relative to reference atoms: (reference = -14434.854043)

Kinetic:       +167.080788
Potential:     -158.686280
External:        +0.000000
XC:            -315.916624
Entropy (-ST):   -0.153202
Local:           +0.735123
--------------------------
Free energy:   -306.940196
Extrapolated:  -306.863594

Dipole-layer corrected work functions: 3.386865, 2.727551 eV

Showing only first 2 kpts
 Kpt  Band  Eigenvalues  Occupancy
  0    31     -3.30976    1.98728
  0    32     -3.22341    1.93049
  0    33     -2.89452    0.07439
  0    34     -2.80344    0.01242

  1    31     -3.08034    1.22731
  1    32     -3.05511    0.97899
  1    33     -3.01903    0.63574
  1    34     -3.00556    0.52499


Fermi level: -3.05721

No gap
Writing to output.gpw (mode='')


Forces in eV/Ang:
  0 Li    0.00593    0.00003   -0.27317
  1 Li   -0.00603    0.00015   -0.27293
  2 Li    0.00010   -0.00012   -0.27250
  3 Li   -0.00268   -0.00305   -0.27317
  4 Li    0.00296   -0.00281   -0.27308
  5 Li   -0.00026    0.00606   -0.27295
  6 Li   -0.00293    0.00302   -0.27332
  7 Li    0.00309    0.00265   -0.27311
  8 Li   -0.00013   -0.00595   -0.27307
  9 Li    0.00155   -0.00140    0.26014
 10 Li   -0.00014    0.00261    0.25869
 11 Li   -0.00139   -0.00175    0.26003
 12 Li    0.00150    0.00122    0.26041
 13 Li    0.00006   -0.00243    0.25813
 14 Li   -0.00155    0.00167    0.25995
 15 Li   -0.00252    0.00019    0.25874
 16 Li   -0.00006   -0.00018    0.26907
 17 Li    0.00255    0.00010    0.25777
 18 Li   -0.00464    0.00017    0.04387
 19 Li    0.00508    0.00006    0.04244
 20 Li   -0.00045   -0.00001   -0.00564
 21 Li   -0.00141   -0.00135    0.03589
 22 Li    0.00154   -0.00138    0.03611
 23 Li   -0.00017   -0.00478    0.04283
 24 Li   -0.00114    0.00117    0.03580
 25 Li    0.00127    0.00132    0.03561
 26 Li   -0.00017    0.00480    0.04365
 27 Li    0.02419   -0.02294   -0.03922
 28 Li   -0.00245    0.00839   -0.01693
 29 Li   -0.02201   -0.02367   -0.03787
 30 Li    0.02415    0.02169   -0.03756
 31 Li   -0.00203   -0.00846   -0.01746
 32 Li   -0.02226    0.02261   -0.03709
 33 Li   -0.00750    0.00108   -0.01816
 34 Li   -0.00080    0.00008   -0.01894
 35 Li    0.00833    0.00060   -0.01927
 36 O     0.06669   -0.81852    2.64033
 37 C     0.07925    0.05220    0.61494
 38 C     0.02796   -0.00088    0.02958
 39 H     0.03296   -0.07846    0.03041
 40 H     0.03154    0.00014    0.28288
 41 H    -0.02870    0.00797   -0.02100
 42 H     0.02407   -0.00204   -0.00618
 43 H     0.01421   -0.00536   -0.02547
 44 H     0.23912    0.76661    1.77695
 45 N    -0.10935    0.30848   -5.77438
 46 N    -0.36381   -0.29203    0.50801

System changes: positions 

Initializing position-dependent things.

Density initialized from wave functions
       .-----------------------.  
      /|                       |  
     / |                       |  
    /  |                       |  
   /   |                       |  
  /    |                       |  
 *     |                       |  
 |     |                       |  
 |   H |              H        |  
 |  C  |              O H      |  
 |   HH|                C      |  
 |     |                H      |  
 |     Li             NLi      |  
 |     |              N        |  
 |     |     Li      Li      Li|  
 |     |  Li      Li      Li   |  
 | Li  |   Li      Li          |  
 |     |Li      Li      Li     |  
 |     | Li                    |  
 |   LLi     LLi     LLi       |  
 |     |  Li      Li      Li   |  
 | Li  |   Li      Li          |  
 |     |Li      Li      Li     |  
 Li    | Li      Li            |  
 |    Li      Li      Li       |  
 |     |                       |  
 |     |                       |  
 |     |                       |  
 |     |                       |  
 |     |                       |  
 |     |                       |  
 |     .-----------------------.  
 |    /                       /   
 |   /                       /    
 |  /                       /     
 | /                       /      
 |/                       /       
 *-----------------------*        

Positions:
   0 Li     1.617037    1.617037   10.000000    ( 0.0000,  0.0000,  0.0000)
   1 Li     4.851111    1.617037   10.000000    ( 0.0000,  0.0000,  0.0000)
   2 Li     8.085185    1.617037   10.000000    ( 0.0000,  0.0000,  0.0000)
   3 Li     1.617037    4.851111   10.000000    ( 0.0000,  0.0000,  0.0000)
   4 Li     4.851111    4.851111   10.000000    ( 0.0000,  0.0000,  0.0000)
   5 Li     8.085185    4.851111   10.000000    ( 0.0000,  0.0000,  0.0000)
   6 Li     1.617037    8.085185   10.000000    ( 0.0000,  0.0000,  0.0000)
   7 Li     4.851111    8.085185   10.000000    ( 0.0000,  0.0000,  0.0000)
   8 Li     8.085185    8.085185   10.000000    ( 0.0000,  0.0000,  0.0000)
   9 Li     0.000000    0.000000   11.617037    ( 0.0000,  0.0000,  0.0000)
  10 Li     3.234074    0.000000   11.617037    ( 0.0000,  0.0000,  0.0000)
  11 Li     6.468148    0.000000   11.617037    ( 0.0000,  0.0000,  0.0000)
  12 Li     0.000000    3.234074   11.617037    ( 0.0000,  0.0000,  0.0000)
  13 Li     3.234074    3.234074   11.617037    ( 0.0000,  0.0000,  0.0000)
  14 Li     6.468148    3.234074   11.617037    ( 0.0000,  0.0000,  0.0000)
  15 Li     0.000000    6.468148   11.617037    ( 0.0000,  0.0000,  0.0000)
  16 Li     3.234074    6.468148   11.617037    ( 0.0000,  0.0000,  0.0000)
  17 Li     6.468148    6.468148   11.617037    ( 0.0000,  0.0000,  0.0000)
  18 Li     1.616954    1.617041   13.470528    ( 0.0000,  0.0000,  0.0000)
  19 Li     4.851203    1.617039   13.470503    ( 0.0000,  0.0000,  0.0000)
  20 Li     8.085176    1.617038   13.469621    ( 0.0000,  0.0000,  0.0000)
  21 Li     1.617012    4.851086   13.470386    ( 0.0000,  0.0000,  0.0000)
  22 Li     4.851140    4.851085   13.470392    ( 0.0000,  0.0000,  0.0000)
  23 Li     8.085180    4.851025   13.470510    ( 0.0000,  0.0000,  0.0000)
  24 Li     1.617016    8.085206   13.470383    ( 0.0000,  0.0000,  0.0000)
  25 Li     4.851135    8.085209   13.470381    ( 0.0000,  0.0000,  0.0000)
  26 Li     8.085181    8.085271   13.470523    ( 0.0000,  0.0000,  0.0000)
  27 Li     0.000427   -0.000404   15.445271    ( 0.0000,  0.0000,  0.0000)
  28 Li     3.234029    0.000151   15.445627    ( 0.0000,  0.0000,  0.0000)
  29 Li     6.467761   -0.000417   15.445296    ( 0.0000,  0.0000,  0.0000)
  30 Li     0.000426    3.234455   15.445300    ( 0.0000,  0.0000,  0.0000)
  31 Li     3.234039    3.233925   15.445615    ( 0.0000,  0.0000,  0.0000)
  32 Li     6.467754    3.234475   15.445308    ( 0.0000,  0.0000,  0.0000)
  33 Li    -0.000134    6.468168   15.445604    ( 0.0000,  0.0000,  0.0000)
  34 Li     3.234062    6.468147   15.445588    ( 0.0000,  0.0000,  0.0000)
  35 Li     6.468295    6.468157   15.445583    ( 0.0000,  0.0000,  0.0000)
  36 O      8.087835    1.616718   21.525379    ( 0.0000,  0.0000,  0.0000)
  37 C      9.270675    0.798697   21.461896    ( 0.0000,  0.0000,  0.0000)
  38 C     10.552210    1.620226   21.436139    ( 0.0000,  0.0000,  0.0000)
  39 H      9.258389    0.116935   22.309412    ( 0.0000,  0.0000,  0.0000)
  40 H      9.193921    0.189204   20.551698    ( 0.0000,  0.0000,  0.0000)
  41 H     11.427972    0.966099   21.419906    ( 0.0000,  0.0000,  0.0000)
  42 H     10.587140    2.268923   20.558786    ( 0.0000,  0.0000,  0.0000)
  43 H     10.622108    2.248159   22.327666    ( 0.0000,  0.0000,  0.0000)
  44 H      8.126325    2.202417   22.232533    ( 0.0000,  0.0000,  0.0000)
  45 N      8.082504    1.623459   18.396081    ( 0.0000,  0.0000,  0.0000)
  46 N      8.078504    1.610265   19.480207    ( 0.0000,  0.0000,  0.0000)

Unit cell:
           periodic     x           y           z      points  spacing
  1. axis:    yes    9.702222    0.000000    0.000000    60     0.1617
  2. axis:    yes    0.000000    9.702222    0.000000    60     0.1617
  3. axis:    no     0.000000    0.000000   24.851111   156     0.1593

  Lengths:   9.702222   9.702222  24.851111
  Angles:   90.000000  90.000000  90.000000

Effective grid spacing dv^(1/3) = 0.1609

     iter     time        total  log10-change:
                         energy  eigst   dens
iter:   1 11:37:58  -307.196966  -0.84
iter:   2 11:40:31  -307.189039  -1.49  -1.96
iter:   3 11:43:04  -307.185991c -1.98  -2.11
iter:   4 11:45:57  -307.196088c -1.88  -2.25
Writing to output.gpw (mode='')

iter:   5 11:48:33  -307.166871c -1.14  -2.20
iter:   6 11:51:10  -307.178034c -1.48  -2.21
iter:   7 11:53:58  -307.161552c -2.24  -2.12
iter:   8 11:56:29  -307.157546c -1.98  -2.37
iter:   9 11:58:57  -307.170353c -1.83  -2.62
Writing to output.gpw (mode='')

iter:  10 12:01:35  -307.162676c -2.67  -2.34
iter:  11 12:04:15  -307.178832c -1.87  -2.52
iter:  12 12:06:50  -307.157647c -1.73  -2.29
iter:  13 12:09:25  -307.155056c -1.37  -2.50
iter:  14 12:11:55  -307.155775c -2.60  -2.84
Writing to output.gpw (mode='')

iter:  15 12:14:25  -307.156248c -3.11  -2.86
iter:  16 12:17:01  -307.155868c -2.61  -2.84
iter:  17 12:19:30  -307.156082c -2.67  -3.04
iter:  18 12:22:03  -307.155887c -3.70  -3.20
iter:  19 12:24:39  -307.155885c -3.84  -3.33
Writing to output.gpw (mode='')

iter:  20 12:27:13  -307.155895c -4.04  -3.46
iter:  21 12:29:46  -307.155887c -4.39  -3.46
iter:  22 12:32:22  -307.155874c -4.24  -3.45
iter:  23 12:35:00  -307.155858c -4.24  -3.56
iter:  24 12:37:34  -307.155908c -3.80  -3.64
Writing to output.gpw (mode='')

iter:  25 12:40:02  -307.155851c -3.81  -3.53
iter:  26 12:42:33  -307.155867c -4.26  -3.64
iter:  27 12:45:22  -307.155860c -4.95  -3.66
iter:  28 12:48:01  -307.155868c -4.62  -3.92
iter:  29 12:50:34  -307.155863c -4.94  -3.96
Writing to output.gpw (mode='')

iter:  30 12:53:01  -307.155864c -5.48  -4.09c
iter:  31 12:55:35  -307.155866c -5.00  -4.08c
iter:  32 12:58:12  -307.155861c -5.01  -4.05c
iter:  33 13:00:46  -307.155861c -5.19  -4.24c
iter:  34 13:03:24  -307.155861c -5.95  -4.36c
Writing to output.gpw (mode='')

iter:  35 13:06:06  -307.155860c -6.61  -4.74c
iter:  36 13:08:38  -307.155861c -6.82  -4.76c
iter:  37 13:11:16  -307.155861c -6.68  -4.80c
iter:  38 13:14:00  -307.155861c -7.09  -4.86c
iter:  39 13:16:34  -307.155861c -6.83  -4.91c
Writing to output.gpw (mode='')

iter:  40 13:19:12  -307.155861c -7.21  -5.01c
iter:  41 13:21:53  -307.155861c -7.03  -5.04c
iter:  42 13:24:31  -307.155861c -7.27  -5.14c
iter:  43 13:27:06  -307.155861c -6.99  -5.18c
iter:  44 13:29:40  -307.155861c -7.25  -5.19c
Writing to output.gpw (mode='')

iter:  45 13:32:20  -307.155861c -6.83  -5.31c
iter:  46 13:34:49  -307.155861c -7.42c -5.17c

Converged after 46 iterations.

Dipole moment: (6.693438, -9.799148, 0.331609) |e|*Ang

Energy contributions relative to reference atoms: (reference = -14434.854043)

Kinetic:       +163.498315
Potential:     -155.912406
External:        +0.000000
XC:            -315.402597
Entropy (-ST):   -0.153232
Local:           +0.737443
--------------------------
Free energy:   -307.232477
Extrapolated:  -307.155861

Dipole-layer corrected work functions: 3.387291, 2.749825 eV

Showing only first 2 kpts
 Kpt  Band  Eigenvalues  Occupancy
  0    31     -3.32101    1.98725
  0    32     -3.23456    1.93023
  0    33     -2.90599    0.07456
  0    34     -2.81476    0.01241

  1    31     -3.09217    1.23182
  1    32     -3.06593    0.97373
  1    33     -3.03137    0.64436
  1    34     -3.01645    0.52143


Fermi level: -3.06856

No gap
Writing to output.gpw (mode='')


Forces in eV/Ang:
  0 Li    0.00628    0.00003   -0.27325
  1 Li   -0.00638    0.00015   -0.27300
  2 Li    0.00010   -0.00015   -0.27265
  3 Li   -0.00281   -0.00320   -0.27323
  4 Li    0.00311   -0.00295   -0.27313
  5 Li   -0.00027    0.00644   -0.27302
  6 Li   -0.00308    0.00318   -0.27340
  7 Li    0.00325    0.00280   -0.27320
  8 Li   -0.00014   -0.00630   -0.27316
  9 Li    0.00171   -0.00155    0.26040
 10 Li   -0.00013    0.00276    0.25905
 11 Li   -0.00155   -0.00192    0.26026
 12 Li    0.00160    0.00132    0.26074
 13 Li    0.00006   -0.00249    0.25842
 14 Li   -0.00165    0.00179    0.26027
 15 Li   -0.00261    0.00024    0.25908
 16 Li   -0.00006   -0.00028    0.26957
 17 Li    0.00264    0.00016    0.25808
 18 Li   -0.00472    0.00019    0.04326
 19 Li    0.00517    0.00009    0.04188
 20 Li   -0.00047   -0.00009   -0.00794
 21 Li   -0.00139   -0.00130    0.03515
 22 Li    0.00152   -0.00135    0.03539
 23 Li   -0.00016   -0.00482    0.04221
 24 Li   -0.00103    0.00109    0.03499
 25 Li    0.00115    0.00124    0.03480
 26 Li   -0.00016    0.00493    0.04307
 27 Li    0.02504   -0.02386   -0.03924
 28 Li   -0.00243    0.00877   -0.01621
 29 Li   -0.02294   -0.02467   -0.03807
 30 Li    0.02499    0.02245   -0.03735
 31 Li   -0.00202   -0.00883   -0.01674
 32 Li   -0.02311    0.02337   -0.03688
 33 Li   -0.00787    0.00106   -0.01745
 34 Li   -0.00079    0.00007   -0.01851
 35 Li    0.00870    0.00058   -0.01855
 36 O    -0.09301   -1.59067    0.77034
 37 C     0.02324    0.16272    0.54645
 38 C     0.02546   -0.00565    0.04276
 39 H     0.13020   -0.21525    0.15862
 40 H    -0.05131    0.10669    0.35241
 41 H    -0.01194    0.00274   -0.02188
 42 H     0.00690   -0.01003   -0.00386
 43 H     0.03127    0.00905   -0.01140
 44 H     0.40254    1.42922    2.47785
 45 N    -0.11206    0.32455   -2.95474
 46 N    -0.33426   -0.17017   -1.43189

System changes: positions 

Initializing position-dependent things.

Density initialized from wave functions
       .-----------------------.  
      /|                       |  
     / |                       |  
    /  |                       |  
   /   |                       |  
  /    |                       |  
 *     |                       |  
 |     |                       |  
 |   H |              H        |  
 |  C  |              O H      |  
 |   HH|                C      |  
 |     |                H      |  
 |     Li             NLi      |  
 |     |              N        |  
 |     |     Li      Li      Li|  
 |     |  Li      Li      Li   |  
 | Li  |   Li      Li          |  
 |     |Li      Li      Li     |  
 |     | Li                    |  
 |   LLi     LLi     LLi       |  
 |     |  Li      Li      Li   |  
 | Li  |   Li      Li          |  
 |     |Li      Li      Li     |  
 Li    | Li      Li            |  
 |    Li      Li      Li       |  
 |     |                       |  
 |     |                       |  
 |     |                       |  
 |     |                       |  
 |     |                       |  
 |     |                       |  
 |     .-----------------------.  
 |    /                       /   
 |   /                       /    
 |  /                       /     
 | /                       /      
 |/                       /       
 *-----------------------*        

Positions:
   0 Li     1.617037    1.617037   10.000000    ( 0.0000,  0.0000,  0.0000)
   1 Li     4.851111    1.617037   10.000000    ( 0.0000,  0.0000,  0.0000)
   2 Li     8.085185    1.617037   10.000000    ( 0.0000,  0.0000,  0.0000)
   3 Li     1.617037    4.851111   10.000000    ( 0.0000,  0.0000,  0.0000)
   4 Li     4.851111    4.851111   10.000000    ( 0.0000,  0.0000,  0.0000)
   5 Li     8.085185    4.851111   10.000000    ( 0.0000,  0.0000,  0.0000)
   6 Li     1.617037    8.085185   10.000000    ( 0.0000,  0.0000,  0.0000)
   7 Li     4.851111    8.085185   10.000000    ( 0.0000,  0.0000,  0.0000)
   8 Li     8.085185    8.085185   10.000000    ( 0.0000,  0.0000,  0.0000)
   9 Li     0.000000    0.000000   11.617037    ( 0.0000,  0.0000,  0.0000)
  10 Li     3.234074    0.000000   11.617037    ( 0.0000,  0.0000,  0.0000)
  11 Li     6.468148    0.000000   11.617037    ( 0.0000,  0.0000,  0.0000)
  12 Li     0.000000    3.234074   11.617037    ( 0.0000,  0.0000,  0.0000)
  13 Li     3.234074    3.234074   11.617037    ( 0.0000,  0.0000,  0.0000)
  14 Li     6.468148    3.234074   11.617037    ( 0.0000,  0.0000,  0.0000)
  15 Li     0.000000    6.468148   11.617037    ( 0.0000,  0.0000,  0.0000)
  16 Li     3.234074    6.468148   11.617037    ( 0.0000,  0.0000,  0.0000)
  17 Li     6.468148    6.468148   11.617037    ( 0.0000,  0.0000,  0.0000)
  18 Li     1.616883    1.617044   13.471192    ( 0.0000,  0.0000,  0.0000)
  19 Li     4.851281    1.617041   13.471145    ( 0.0000,  0.0000,  0.0000)
  20 Li     8.085169    1.617037   13.469510    ( 0.0000,  0.0000,  0.0000)
  21 Li     1.616990    4.851066   13.470928    ( 0.0000,  0.0000,  0.0000)
  22 Li     4.851164    4.851064   13.470937    ( 0.0000,  0.0000,  0.0000)
  23 Li     8.085178    4.850951   13.471158    ( 0.0000,  0.0000,  0.0000)
  24 Li     1.617000    8.085224   13.470923    ( 0.0000,  0.0000,  0.0000)
  25 Li     4.851154    8.085228   13.470918    ( 0.0000,  0.0000,  0.0000)
  26 Li     8.085178    8.085345   13.471184    ( 0.0000,  0.0000,  0.0000)
  27 Li     0.000800   -0.000758   15.444689    ( 0.0000,  0.0000,  0.0000)
  28 Li     3.233992    0.000282   15.445374    ( 0.0000,  0.0000,  0.0000)
  29 Li     6.467421   -0.000784   15.444733    ( 0.0000,  0.0000,  0.0000)
  30 Li     0.000798    3.234789   15.444745    ( 0.0000,  0.0000,  0.0000)
  31 Li     3.234009    3.233793   15.445354    ( 0.0000,  0.0000,  0.0000)
  32 Li     6.467410    3.234823   15.444760    ( 0.0000,  0.0000,  0.0000)
  33 Li    -0.000251    6.468185   15.445333    ( 0.0000,  0.0000,  0.0000)
  34 Li     3.234050    6.468148   15.445302    ( 0.0000,  0.0000,  0.0000)
  35 Li     6.468425    6.468166   15.445294    ( 0.0000,  0.0000,  0.0000)
  36 O      8.087767    1.601750   21.558275    ( 0.0000,  0.0000,  0.0000)
  37 C      9.271917    0.799686   21.470763    ( 0.0000,  0.0000,  0.0000)
  38 C     10.552573    1.620289   21.436686    ( 0.0000,  0.0000,  0.0000)
  39 H      9.259442    0.114949   22.310607    ( 0.0000,  0.0000,  0.0000)
  40 H      9.193983    0.189787   20.556393    ( 0.0000,  0.0000,  0.0000)
  41 H     11.427616    0.966169   21.419584    ( 0.0000,  0.0000,  0.0000)
  42 H     10.587402    2.268826   20.558720    ( 0.0000,  0.0000,  0.0000)
  43 H     10.622443    2.248176   22.327370    ( 0.0000,  0.0000,  0.0000)
  44 H      8.130756    2.216592   22.261635    ( 0.0000,  0.0000,  0.0000)
  45 N      8.080623    1.628637   18.356462    ( 0.0000,  0.0000,  0.0000)
  46 N      8.073293    1.606518   19.442331    ( 0.0000,  0.0000,  0.0000)

Unit cell:
           periodic     x           y           z      points  spacing
  1. axis:    yes    9.702222    0.000000    0.000000    60     0.1617
  2. axis:    yes    0.000000    9.702222    0.000000    60     0.1617
  3. axis:    no     0.000000    0.000000   24.851111   156     0.1593

  Lengths:   9.702222   9.702222  24.851111
  Angles:   90.000000  90.000000  90.000000

Effective grid spacing dv^(1/3) = 0.1609

     iter     time        total  log10-change:
                         energy  eigst   dens
iter:   1 13:38:02  -307.486544  -0.81
iter:   2 13:40:41  -307.462914  -1.29  -1.79
iter:   3 13:43:10  -307.456682c -1.94  -1.99
iter:   4 13:45:43  -307.461212c -2.06  -2.24
Writing to output.gpw (mode='')

iter:   5 13:48:21  -307.456130c -0.95  -2.20
iter:   6 13:50:57  -307.466804c -1.33  -2.06
iter:   7 13:53:28  -307.452127c -2.12  -1.98
iter:   8 13:56:05  -307.448019c -1.64  -2.20
iter:   9 13:58:39  -307.450117c -2.62  -2.48
Writing to output.gpw (mode='')

iter:  10 14:01:10  -307.447446c -2.69  -2.51
iter:  11 14:03:49  -307.444350c -1.81  -2.38
iter:  12 14:06:23  -307.443014c -2.66  -2.43
iter:  13 14:08:53  -307.442822c -2.22  -2.74
iter:  14 14:11:23  -307.442507c -3.62  -2.70
Writing to output.gpw (mode='')

iter:  15 14:14:03  -307.442464c -3.22  -2.89
iter:  16 14:16:42  -307.442463c -3.30  -3.15
iter:  17 14:19:13  -307.442510c -3.38  -3.10
iter:  18 14:21:42  -307.442581c -3.16  -3.07
iter:  19 14:24:23  -307.442421c -3.62  -3.26
Writing to output.gpw (mode='')

iter:  20 14:26:56  -307.442467c -3.33  -3.28
iter:  21 14:29:25  -307.442419c -4.01  -3.42
iter:  22 14:32:10  -307.442425c -4.21  -3.83
iter:  23 14:34:40  -307.442421c -5.35  -3.85
iter:  24 14:37:19  -307.442420c -4.77  -3.92
Writing to output.gpw (mode='')

iter:  25 14:40:06  -307.442423c -4.64  -3.96
iter:  26 14:42:52  -307.442426c -5.31  -4.01c
iter:  27 14:45:27  -307.442424c -5.35  -4.08c
iter:  28 14:48:04  -307.442425c -5.04  -4.25c
iter:  29 14:50:41  -307.442424c -5.59  -4.33c
Writing to output.gpw (mode='')

iter:  30 14:53:16  -307.442424c -5.54  -4.46c
iter:  31 14:55:58  -307.442423c -5.52  -4.47c
iter:  32 14:58:36  -307.442424c -6.34  -4.55c
iter:  33 15:01:18  -307.442423c -6.04  -4.51c
iter:  34 15:04:02  -307.442424c -5.75  -4.66c
Writing to output.gpw (mode='')

iter:  35 15:06:47  -307.442424c -6.12  -4.68c
iter:  36 15:09:20  -307.442424c -6.88  -4.97c
iter:  37 15:11:57  -307.442424c -6.73  -5.12c
iter:  38 15:14:35  -307.442424c -7.11  -5.20c
iter:  39 15:17:11  -307.442424c -7.13  -5.31c
Writing to output.gpw (mode='')

iter:  40 15:19:56  -307.442424c -7.26  -5.37c
iter:  41 15:22:39  -307.442425c -7.09  -5.51c
iter:  42 15:25:24  -307.442424c -7.51c -5.24c

Converged after 42 iterations.

Dipole moment: (6.730772, -9.776386, 0.317533) |e|*Ang

Energy contributions relative to reference atoms: (reference = -14434.854043)

Kinetic:       +161.123026
Potential:     -154.220708
External:        +0.000000
XC:            -315.008465
Entropy (-ST):   -0.153214
Local:           +0.740330
--------------------------
Free energy:   -307.519031
Extrapolated:  -307.442424

Dipole-layer corrected work functions: 3.387654, 2.777247 eV

Showing only first 2 kpts
 Kpt  Band  Eigenvalues  Occupancy
  0    31     -3.33479    1.98722
  0    32     -3.24835    1.93008
  0    33     -2.91982    0.07446
  0    34     -2.82860    0.01240

  1    31     -3.10648    1.23577
  1    32     -3.07924    0.96789
  1    33     -3.04619    0.65253
  1    34     -3.02998    0.51864


Fermi level: -3.08245

No gap
Writing to output.gpw (mode='')


Forces in eV/Ang:
  0 Li    0.00665    0.00003   -0.27330
  1 Li   -0.00675    0.00014   -0.27305
  2 Li    0.00009   -0.00019   -0.27274
  3 Li   -0.00291   -0.00329   -0.27329
  4 Li    0.00321   -0.00303   -0.27319
  5 Li   -0.00027    0.00682   -0.27306
  6 Li   -0.00318    0.00329   -0.27350
  7 Li    0.00336    0.00291   -0.27331
  8 Li   -0.00015   -0.00667   -0.27323
  9 Li    0.00192   -0.00173    0.26077
 10 Li   -0.00013    0.00294    0.25949
 11 Li   -0.00176   -0.00212    0.26059
 12 Li    0.00171    0.00144    0.26123
 13 Li    0.00006   -0.00257    0.25880
 14 Li   -0.00176    0.00193    0.26073
 15 Li   -0.00273    0.00032    0.25947
 16 Li   -0.00007   -0.00041    0.27014
 17 Li    0.00277    0.00025    0.25849
 18 Li   -0.00477    0.00022    0.04227
 19 Li    0.00522    0.00013    0.04099
 20 Li   -0.00047   -0.00022   -0.01011
 21 Li   -0.00136   -0.00123    0.03410
 22 Li    0.00146   -0.00129    0.03433
 23 Li   -0.00015   -0.00481    0.04126
 24 Li   -0.00088    0.00096    0.03381
 25 Li    0.00098    0.00112    0.03365
 26 Li   -0.00014    0.00506    0.04212
 27 Li    0.02615   -0.02508   -0.04040
 28 Li   -0.00236    0.00917   -0.01529
 29 Li   -0.02417   -0.02593   -0.03948
 30 Li    0.02603    0.02345   -0.03827
 31 Li   -0.00198   -0.00919   -0.01579
 32 Li   -0.02420    0.02436   -0.03790
 33 Li   -0.00828    0.00096   -0.01651
 34 Li   -0.00076    0.00005   -0.01778
 35 Li    0.00907    0.00051   -0.01759
 36 O    -0.25516   -0.93631    0.81966
 37 C     0.05189    0.06618    0.40023
 38 C     0.01154    0.01819    0.05756
 39 H     0.24484   -0.33114    0.26525
 40 H    -0.09069    0.18585    0.41180
 41 H     0.00054   -0.00624   -0.02030
 42 H    -0.01079   -0.01884    0.00258
 43 H     0.05523    0.03208    0.00729
 44 H     0.41591    0.79651    1.55422
 45 N    -0.06151    0.24415   -2.59100
 46 N    -0.37385   -0.15305   -0.93257

System changes: positions 

Initializing position-dependent things.

Density initialized from wave functions
       .-----------------------.  
      /|                       |  
     / |                       |  
    /  |                       |  
   /   |                       |  
  /    |                       |  
 *     |                       |  
 |     |                       |  
 |   H |               H       |  
 |  C  |              O H      |  
 |   HH|                C      |  
 |     |                H      |  
 |     Li             NLi      |  
 |     |              N        |  
 |     |     Li      Li      Li|  
 |     |  Li      Li      Li   |  
 | Li  |   Li      Li          |  
 |     |Li      Li      Li     |  
 |     | Li                    |  
 |   LLi     LLi     LLi       |  
 |     |  Li      Li      Li   |  
 | Li  |   Li      Li          |  
 |     |Li      Li      Li     |  
 Li    | Li      Li            |  
 |    Li      Li      Li       |  
 |     |                       |  
 |     |                       |  
 |     |                       |  
 |     |                       |  
 |     |                       |  
 |     |                       |  
 |     .-----------------------.  
 |    /                       /   
 |   /                       /    
 |  /                       /     
 | /                       /      
 |/                       /       
 *-----------------------*        

Positions:
   0 Li     1.617037    1.617037   10.000000    ( 0.0000,  0.0000,  0.0000)
   1 Li     4.851111    1.617037   10.000000    ( 0.0000,  0.0000,  0.0000)
   2 Li     8.085185    1.617037   10.000000    ( 0.0000,  0.0000,  0.0000)
   3 Li     1.617037    4.851111   10.000000    ( 0.0000,  0.0000,  0.0000)
   4 Li     4.851111    4.851111   10.000000    ( 0.0000,  0.0000,  0.0000)
   5 Li     8.085185    4.851111   10.000000    ( 0.0000,  0.0000,  0.0000)
   6 Li     1.617037    8.085185   10.000000    ( 0.0000,  0.0000,  0.0000)
   7 Li     4.851111    8.085185   10.000000    ( 0.0000,  0.0000,  0.0000)
   8 Li     8.085185    8.085185   10.000000    ( 0.0000,  0.0000,  0.0000)
   9 Li     0.000000    0.000000   11.617037    ( 0.0000,  0.0000,  0.0000)
  10 Li     3.234074    0.000000   11.617037    ( 0.0000,  0.0000,  0.0000)
  11 Li     6.468148    0.000000   11.617037    ( 0.0000,  0.0000,  0.0000)
  12 Li     0.000000    3.234074   11.617037    ( 0.0000,  0.0000,  0.0000)
  13 Li     3.234074    3.234074   11.617037    ( 0.0000,  0.0000,  0.0000)
  14 Li     6.468148    3.234074   11.617037    ( 0.0000,  0.0000,  0.0000)
  15 Li     0.000000    6.468148   11.617037    ( 0.0000,  0.0000,  0.0000)
  16 Li     3.234074    6.468148   11.617037    ( 0.0000,  0.0000,  0.0000)
  17 Li     6.468148    6.468148   11.617037    ( 0.0000,  0.0000,  0.0000)
  18 Li     1.616796    1.617048   13.471971    ( 0.0000,  0.0000,  0.0000)
  19 Li     4.851376    1.617043   13.471901    ( 0.0000,  0.0000,  0.0000)
  20 Li     8.085160    1.617034   13.469337    ( 0.0000,  0.0000,  0.0000)
  21 Li     1.616965    4.851042   13.471560    ( 0.0000,  0.0000,  0.0000)
  22 Li     4.851191    4.851040   13.471573    ( 0.0000,  0.0000,  0.0000)
  23 Li     8.085175    4.850864   13.471919    ( 0.0000,  0.0000,  0.0000)
  24 Li     1.616982    8.085242   13.471549    ( 0.0000,  0.0000,  0.0000)
  25 Li     4.851173    8.085250   13.471542    ( 0.0000,  0.0000,  0.0000)
  26 Li     8.085176    8.085437   13.471961    ( 0.0000,  0.0000,  0.0000)
  27 Li     0.001268   -0.001206   15.443968    ( 0.0000,  0.0000,  0.0000)
  28 Li     3.233949    0.000447   15.445087    ( 0.0000,  0.0000,  0.0000)
  29 Li     6.466989   -0.001247   15.444031    ( 0.0000,  0.0000,  0.0000)
  30 Li     0.001265    3.235208   15.444062    ( 0.0000,  0.0000,  0.0000)
  31 Li     3.233972    3.233627   15.445058    ( 0.0000,  0.0000,  0.0000)
  32 Li     6.466977    3.235259   15.444084    ( 0.0000,  0.0000,  0.0000)
  33 Li    -0.000400    6.468203   15.445024    ( 0.0000,  0.0000,  0.0000)
  34 Li     3.234036    6.468149   15.444971    ( 0.0000,  0.0000,  0.0000)
  35 Li     6.468588    6.468176   15.444965    ( 0.0000,  0.0000,  0.0000)
  36 O      8.084601    1.590624   21.590670    ( 0.0000,  0.0000,  0.0000)
  37 C      9.273555    0.799891   21.478895    ( 0.0000,  0.0000,  0.0000)
  38 C     10.552795    1.620693   21.437617    ( 0.0000,  0.0000,  0.0000)
  39 H      9.262861    0.110246   22.314187    ( 0.0000,  0.0000,  0.0000)
  40 H      9.193120    0.192129   20.563217    ( 0.0000,  0.0000,  0.0000)
  41 H     11.427450    0.966099   21.419217    ( 0.0000,  0.0000,  0.0000)
  42 H     10.587377    2.268547   20.558745    ( 0.0000,  0.0000,  0.0000)
  43 H     10.623279    2.248605   22.327355    ( 0.0000,  0.0000,  0.0000)
  44 H      8.136932    2.226534   22.285270    ( 0.0000,  0.0000,  0.0000)
  45 N      8.079196    1.633558   18.316791    ( 0.0000,  0.0000,  0.0000)
  46 N      8.066489    1.602742   19.406350    ( 0.0000,  0.0000,  0.0000)

Unit cell:
           periodic     x           y           z      points  spacing
  1. axis:    yes    9.702222    0.000000    0.000000    60     0.1617
  2. axis:    yes    0.000000    9.702222    0.000000    60     0.1617
  3. axis:    no     0.000000    0.000000   24.851111   156     0.1593

  Lengths:   9.702222   9.702222  24.851111
  Angles:   90.000000  90.000000  90.000000

Effective grid spacing dv^(1/3) = 0.1609

     iter     time        total  log10-change:
                         energy  eigst   dens
iter:   1 15:28:49  -307.679920  -0.86
iter:   2 15:31:28  -307.665267  -1.40  -1.87
iter:   3 15:34:04  -307.661902c -2.01  -2.09
iter:   4 15:36:32  -307.668666c -1.88  -2.33
Writing to output.gpw (mode='')

iter:   5 15:39:01  -307.660008c -1.06  -2.24
iter:   6 15:41:37  -307.672204c -1.27  -2.21
iter:   7 15:44:13  -307.658479c -2.22  -2.08
iter:   8 15:46:47  -307.655073c -1.91  -2.40
iter:   9 15:49:17  -307.658812c -2.49  -2.54
Writing to output.gpw (mode='')

iter:  10 15:51:46  -307.658194c -2.45  -2.45
iter:  11 15:54:31  -307.665026c -1.51  -2.30
iter:  12 15:57:09  -307.651347c -1.86  -2.36
iter:  13 15:59:46  -307.651090c -1.70  -2.71
iter:  14 16:02:28  -307.651604c -2.89  -3.07
Writing to output.gpw (mode='')

iter:  15 16:05:03  -307.651930c -3.38  -3.04
iter:  16 16:07:46  -307.651758c -2.59  -3.07
iter:  17 16:10:29  -307.651830c -3.16  -3.58
iter:  18 16:12:59  -307.651851c -3.56  -3.59
iter:  19 16:15:30  -307.652034c -2.96  -3.55
Writing to output.gpw (mode='')

iter:  20 16:18:12  -307.651928c -3.98  -3.27
iter:  21 16:20:51  -307.651943c -4.15  -3.39
iter:  22 16:23:32  -307.652052c -3.61  -3.42
iter:  23 16:26:14  -307.651831c -3.30  -3.32
iter:  24 16:28:52  -307.651830c -4.32  -3.70
Writing to output.gpw (mode='')

iter:  25 16:31:31  -307.651842c -4.13  -3.78
iter:  26 16:34:01  -307.651829c -4.48  -3.81
iter:  27 16:36:32  -307.651835c -4.38  -3.94
iter:  28 16:38:59  -307.651829c -5.03  -3.92
iter:  29 16:41:32  -307.651844c -4.50  -4.02c
Writing to output.gpw (mode='')

iter:  30 16:44:13  -307.651834c -4.58  -3.89
iter:  31 16:46:51  -307.651834c -5.36  -4.32c
iter:  32 16:49:29  -307.651834c -5.56  -4.43c
iter:  33 16:52:05  -307.651834c -5.34  -4.67c
iter:  34 16:54:52  -307.651834c -5.82  -4.69c
Writing to output.gpw (mode='')

iter:  35 16:57:29  -307.651834c -6.51  -4.67c
iter:  36 17:00:11  -307.651834c -6.21  -4.83c
iter:  37 17:02:40  -307.651834c -6.99  -4.82c
iter:  38 17:05:10  -307.651835c -6.02  -4.87c
iter:  39 17:07:48  -307.651834c -5.81  -4.61c
Writing to output.gpw (mode='')

iter:  40 17:10:29  -307.651834c -5.53  -5.02c
iter:  41 17:12:54  -307.651834c -6.67  -4.64c
iter:  42 17:15:29  -307.651834c -5.95  -4.89c
iter:  43 17:18:01  -307.651834c -6.83  -4.98c
iter:  44 17:20:34  -307.651834c -6.81  -5.44c
Writing to output.gpw (mode='')

iter:  45 17:23:06  -307.651834c -7.79c -5.29c

Converged after 45 iterations.

Dipole moment: (6.772411, -9.734005, 0.302738) |e|*Ang

Energy contributions relative to reference atoms: (reference = -14434.854043)

Kinetic:       +158.897658
Potential:     -152.593100
External:        +0.000000
XC:            -314.621389
Entropy (-ST):   -0.153198
Local:           +0.741596
--------------------------
Free energy:   -307.728433
Extrapolated:  -307.651834

Dipole-layer corrected work functions: 3.388053, 2.806087 eV

Showing only first 2 kpts
 Kpt  Band  Eigenvalues  Occupancy
  0    31     -3.34926    1.98719
  0    32     -3.26283    1.92989
  0    33     -2.93439    0.07440
  0    34     -2.84315    0.01238

  1    31     -3.12157    1.24019
  1    32     -3.09324    0.96173
  1    33     -3.06186    0.66176
  1    34     -3.04416    0.51531


Fermi level: -3.09707

No gap

Forces in eV/Ang:
  0 Li    0.00705    0.00002   -0.27337
  1 Li   -0.00715    0.00012   -0.27312
  2 Li    0.00009   -0.00022   -0.27287
  3 Li   -0.00305   -0.00340   -0.27336
  4 Li    0.00335   -0.00314   -0.27327
  5 Li   -0.00027    0.00723   -0.27313
  6 Li   -0.00331    0.00344   -0.27361
  7 Li    0.00350    0.00306   -0.27344
  8 Li   -0.00016   -0.00706   -0.27331
  9 Li    0.00215   -0.00194    0.26126
 10 Li   -0.00011    0.00316    0.26008
 11 Li   -0.00201   -0.00236    0.26102
 12 Li    0.00184    0.00158    0.26185
 13 Li    0.00007   -0.00266    0.25931
 14 Li   -0.00190    0.00211    0.26132
 15 Li   -0.00286    0.00042    0.26001
 16 Li   -0.00012   -0.00057    0.27088
 17 Li    0.00293    0.00035    0.25905
 18 Li   -0.00477    0.00025    0.04103
 19 Li    0.00525    0.00017    0.03986
 20 Li   -0.00049   -0.00036   -0.01249
 21 Li   -0.00130   -0.00114    0.03288
 22 Li    0.00137   -0.00119    0.03308
 23 Li   -0.00012   -0.00476    0.04005
 24 Li   -0.00070    0.00081    0.03246
 25 Li    0.00076    0.00095    0.03229
 26 Li   -0.00012    0.00514    0.04092
 27 Li    0.02711   -0.02617   -0.04111
 28 Li   -0.00230    0.00954   -0.01436
 29 Li   -0.02529   -0.02709   -0.04046
 30 Li    0.02691    0.02428   -0.03865
 31 Li   -0.00195   -0.00953   -0.01483
 32 Li   -0.02519    0.02520   -0.03845
 33 Li   -0.00864    0.00086   -0.01557
 34 Li   -0.00073    0.00004   -0.01702
 35 Li    0.00942    0.00044   -0.01660
 36 O    -0.31122   -0.62956    0.57271
 37 C     0.01547    0.01658    0.40459
 38 C     0.00069    0.02823    0.06378
 39 H     0.32975   -0.35698    0.27907
 40 H    -0.13899    0.21164    0.39309
 41 H    -0.00063   -0.00499   -0.01728
 42 H    -0.02614   -0.02439    0.00832
 43 H     0.07521    0.05104    0.02376
 44 H     0.45253    0.49321    1.09734
 45 N    -0.05991    0.25528   -1.90386
 46 N    -0.34429   -0.06931   -0.91890

System changes: positions 

Initializing position-dependent things.

Density initialized from wave functions
       .-----------------------.  
      /|                       |  
     / |                       |  
    /  |                       |  
   /   |                       |  
  /    |                       |  
 *     |                       |  
 |     |                       |  
 |   H |               H       |  
 |  C  |              O H      |  
 |   HH|                C      |  
 |     |                H      |  
 |     Li             NLi      |  
 |     |              N        |  
 |     |     Li      Li      Li|  
 |     |  Li      Li      Li   |  
 | Li  |   Li      Li          |  
 |     |Li      Li      Li     |  
 |     | Li                    |  
 |   LLi     LLi     LLi       |  
 |     |  Li      Li      Li   |  
 | Li  |   Li      Li          |  
 |     |Li      Li      Li     |  
 Li    | Li      Li            |  
 |    Li      Li      Li       |  
 |     |                       |  
 |     |                       |  
 |     |                       |  
 |     |                       |  
 |     |                       |  
 |     |                       |  
 |     .-----------------------.  
 |    /                       /   
 |   /                       /    
 |  /                       /     
 | /                       /      
 |/                       /       
 *-----------------------*        

Positions:
   0 Li     1.617037    1.617037   10.000000    ( 0.0000,  0.0000,  0.0000)
   1 Li     4.851111    1.617037   10.000000    ( 0.0000,  0.0000,  0.0000)
   2 Li     8.085185    1.617037   10.000000    ( 0.0000,  0.0000,  0.0000)
   3 Li     1.617037    4.851111   10.000000    ( 0.0000,  0.0000,  0.0000)
   4 Li     4.851111    4.851111   10.000000    ( 0.0000,  0.0000,  0.0000)
   5 Li     8.085185    4.851111   10.000000    ( 0.0000,  0.0000,  0.0000)
   6 Li     1.617037    8.085185   10.000000    ( 0.0000,  0.0000,  0.0000)
   7 Li     4.851111    8.085185   10.000000    ( 0.0000,  0.0000,  0.0000)
   8 Li     8.085185    8.085185   10.000000    ( 0.0000,  0.0000,  0.0000)
   9 Li     0.000000    0.000000   11.617037    ( 0.0000,  0.0000,  0.0000)
  10 Li     3.234074    0.000000   11.617037    ( 0.0000,  0.0000,  0.0000)
  11 Li     6.468148    0.000000   11.617037    ( 0.0000,  0.0000,  0.0000)
  12 Li     0.000000    3.234074   11.617037    ( 0.0000,  0.0000,  0.0000)
  13 Li     3.234074    3.234074   11.617037    ( 0.0000,  0.0000,  0.0000)
  14 Li     6.468148    3.234074   11.617037    ( 0.0000,  0.0000,  0.0000)
  15 Li     0.000000    6.468148   11.617037    ( 0.0000,  0.0000,  0.0000)
  16 Li     3.234074    6.468148   11.617037    ( 0.0000,  0.0000,  0.0000)
  17 Li     6.468148    6.468148   11.617037    ( 0.0000,  0.0000,  0.0000)
  18 Li     1.616692    1.617053   13.472883    ( 0.0000,  0.0000,  0.0000)
  19 Li     4.851491    1.617046   13.472786    ( 0.0000,  0.0000,  0.0000)
  20 Li     8.085150    1.617027   13.469089    ( 0.0000,  0.0000,  0.0000)
  21 Li     1.616935    4.851016   13.472294    ( 0.0000,  0.0000,  0.0000)
  22 Li     4.851222    4.851013   13.472312    ( 0.0000,  0.0000,  0.0000)
  23 Li     8.085172    4.850759   13.472808    ( 0.0000,  0.0000,  0.0000)
  24 Li     1.616965    8.085262   13.472275    ( 0.0000,  0.0000,  0.0000)
  25 Li     4.851192    8.085272   13.472264    ( 0.0000,  0.0000,  0.0000)
  26 Li     8.085173    8.085548   13.472869    ( 0.0000,  0.0000,  0.0000)
  27 Li     0.001848   -0.001763   15.443088    ( 0.0000,  0.0000,  0.0000)
  28 Li     3.233898    0.000651   15.444761    ( 0.0000,  0.0000,  0.0000)
  29 Li     6.466452   -0.001823   15.443168    ( 0.0000,  0.0000,  0.0000)
  30 Li     0.001840    3.235726   15.443232    ( 0.0000,  0.0000,  0.0000)
  31 Li     3.233929    3.233423   15.444721    ( 0.0000,  0.0000,  0.0000)
  32 Li     6.466440    3.235797   15.443259    ( 0.0000,  0.0000,  0.0000)
  33 Li    -0.000584    6.468223   15.444671    ( 0.0000,  0.0000,  0.0000)
  34 Li     3.234020    6.468150   15.444589    ( 0.0000,  0.0000,  0.0000)
  35 Li     6.468789    6.468186   15.444589    ( 0.0000,  0.0000,  0.0000)
  36 O      8.079621    1.580888   21.621318    ( 0.0000,  0.0000,  0.0000)
  37 C      9.274702    0.799566   21.488630    ( 0.0000,  0.0000,  0.0000)
  38 C     10.552880    1.621316   21.438857    ( 0.0000,  0.0000,  0.0000)
  39 H      9.268589    0.103945   22.318922    ( 0.0000,  0.0000,  0.0000)
  40 H      9.191098    0.195561   20.571185    ( 0.0000,  0.0000,  0.0000)
  41 H     11.427261    0.966034   21.418829    ( 0.0000,  0.0000,  0.0000)
  42 H     10.587055    2.268109   20.558876    ( 0.0000,  0.0000,  0.0000)
  43 H     10.624648    2.249468   22.327644    ( 0.0000,  0.0000,  0.0000)
  44 H      8.145266    2.234571   22.307283    ( 0.0000,  0.0000,  0.0000)
  45 N      8.077563    1.639568   18.277279    ( 0.0000,  0.0000,  0.0000)
  46 N      8.058855    1.599865   19.369414    ( 0.0000,  0.0000,  0.0000)

Unit cell:
           periodic     x           y           z      points  spacing
  1. axis:    yes    9.702222    0.000000    0.000000    60     0.1617
  2. axis:    yes    0.000000    9.702222    0.000000    60     0.1617
  3. axis:    no     0.000000    0.000000   24.851111   156     0.1593

  Lengths:   9.702222   9.702222  24.851111
  Angles:   90.000000  90.000000  90.000000

Effective grid spacing dv^(1/3) = 0.1609

     iter     time        total  log10-change:
                         energy  eigst   dens
iter:   1 17:26:19  -307.843712  -0.86
iter:   2 17:28:54  -307.829311  -1.43  -1.88
iter:   3 17:31:26  -307.826328c -2.04  -2.12
iter:   4 17:34:06  -307.833022c -1.88  -2.35
Writing to output.gpw (mode='')

iter:   5 17:36:42  -307.824180c -1.13  -2.26
iter:   6 17:39:14  -307.833137c -1.40  -2.26
iter:   7 17:41:40  -307.823539c -2.29  -2.15
iter:   8 17:44:16  -307.820104c -1.96  -2.42
iter:   9 17:46:46  -307.822658c -2.63  -2.56
Writing to output.gpw (mode='')

iter:  10 17:49:21  -307.822526c -2.37  -2.56
iter:  11 17:51:54  -307.822856c -1.76  -2.32
iter:  12 17:54:24  -307.817318c -2.23  -2.52
iter:  13 17:56:58  -307.817176c -2.08  -2.83
iter:  14 17:59:42  -307.817337c -3.14  -3.13
Writing to output.gpw (mode='')

iter:  15 18:02:19  -307.817408c -3.58  -3.16
iter:  16 18:04:53  -307.817556c -2.75  -3.24
iter:  17 18:07:25  -307.817458c -3.68  -3.40
iter:  18 18:10:07  -307.817452c -3.47  -3.48
iter:  19 18:12:43  -307.817425c -3.70  -3.58
Writing to output.gpw (mode='')

iter:  20 18:15:16  -307.817451c -3.68  -3.64
iter:  21 18:17:51  -307.817430c -4.65  -3.61
iter:  22 18:20:25  -307.817423c -4.41  -3.77
iter:  23 18:22:54  -307.817430c -4.57  -3.99
iter:  24 18:25:31  -307.817428c -5.23  -3.82
Writing to output.gpw (mode='')

iter:  25 18:28:09  -307.817425c -4.66  -3.83
iter:  26 18:30:38  -307.817424c -5.29  -4.12c
iter:  27 18:33:13  -307.817423c -5.29  -4.24c
iter:  28 18:35:52  -307.817423c -5.55  -4.51c
iter:  29 18:38:31  -307.817423c -6.08  -4.56c
Writing to output.gpw (mode='')

iter:  30 18:41:03  -307.817423c -5.94  -4.60c
iter:  31 18:43:36  -307.817423c -6.00  -4.63c
iter:  32 18:46:09  -307.817423c -6.53  -4.71c
iter:  33 18:48:45  -307.817425c -5.93  -4.75c
iter:  34 18:51:21  -307.817424c -6.12  -4.77c
Writing to output.gpw (mode='')

iter:  35 18:53:52  -307.817424c -6.14  -4.86c
iter:  36 18:56:25  -307.817424c -6.92  -4.95c
iter:  37 18:59:02  -307.817424c -6.96  -5.17c
iter:  38 19:01:51  -307.817424c -7.17  -5.17c
iter:  39 19:04:36  -307.817424c -7.34  -5.22c
Writing to output.gpw (mode='')

iter:  40 19:07:15  -307.817424c -6.98  -5.30c
iter:  41 19:09:50  -307.817424c -7.28  -5.39c
iter:  42 19:12:25  -307.817424c -7.12  -5.43c
iter:  43 19:15:11  -307.817424c -7.44c -5.46c

Converged after 43 iterations.

Dipole moment: (6.804898, -9.674275, 0.288133) |e|*Ang

Energy contributions relative to reference atoms: (reference = -14434.854043)

Kinetic:       +157.023840
Potential:     -151.229876
External:        +0.000000
XC:            -314.278056
Entropy (-ST):   -0.153170
Local:           +0.743253
--------------------------
Free energy:   -307.894009
Extrapolated:  -307.817424

Dipole-layer corrected work functions: 3.388455, 2.834564 eV

Showing only first 2 kpts
 Kpt  Band  Eigenvalues  Occupancy
  0    31     -3.36356    1.98715
  0    32     -3.27713    1.92970
  0    33     -2.94875    0.07428
  0    34     -2.85754    0.01237

  1    31     -3.13648    1.24461
  1    32     -3.10704    0.95530
  1    33     -3.07741    0.67161
  1    34     -3.05814    0.51179


Fermi level: -3.11151

No gap
Writing to output.gpw (mode='')


Forces in eV/Ang:
  0 Li    0.00748    0.00001   -0.27345
  1 Li   -0.00757    0.00010   -0.27320
  2 Li    0.00008   -0.00027   -0.27304
  3 Li   -0.00316   -0.00350   -0.27345
  4 Li    0.00347   -0.00324   -0.27338
  5 Li   -0.00027    0.00767   -0.27321
  6 Li   -0.00342    0.00358   -0.27375
  7 Li    0.00362    0.00320   -0.27361
  8 Li   -0.00016   -0.00747   -0.27340
  9 Li    0.00245   -0.00219    0.26180
 10 Li   -0.00008    0.00341    0.26073
 11 Li   -0.00233   -0.00266    0.26149
 12 Li    0.00199    0.00176    0.26256
 13 Li    0.00010   -0.00274    0.25987
 14 Li   -0.00206    0.00232    0.26198
 15 Li   -0.00300    0.00054    0.26060
 16 Li   -0.00017   -0.00077    0.27168
 17 Li    0.00311    0.00047    0.25967
 18 Li   -0.00471    0.00030    0.03947
 19 Li    0.00521    0.00022    0.03841
 20 Li   -0.00052   -0.00054   -0.01495
 21 Li   -0.00121   -0.00103    0.03143
 22 Li    0.00125   -0.00106    0.03160
 23 Li   -0.00010   -0.00462    0.03852
 24 Li   -0.00046    0.00061    0.03086
 25 Li    0.00049    0.00072    0.03069
 26 Li   -0.00009    0.00519    0.03940
 27 Li    0.02797   -0.02719   -0.04157
 28 Li   -0.00224    0.00987   -0.01328
 29 Li   -0.02632   -0.02816   -0.04118
 30 Li    0.02763    0.02496   -0.03866
 31 Li   -0.00191   -0.00982   -0.01372
 32 Li   -0.02605    0.02590   -0.03868
 33 Li   -0.00896    0.00074   -0.01447
 34 Li   -0.00071    0.00003   -0.01611
 35 Li    0.00972    0.00034   -0.01546
 36 O    -0.28089   -0.35588    0.37733
 37 C    -0.03978   -0.00593    0.36495
 38 C    -0.01894    0.02956    0.08080
 39 H     0.38312   -0.35294    0.27838
 40 H    -0.18376    0.22089    0.36773
 41 H    -0.00831   -0.00062   -0.01269
 42 H    -0.04424   -0.03000    0.01354
 43 H     0.09514    0.06755    0.03498
 44 H     0.45314    0.26474    0.75773
 45 N    -0.02036    0.23510   -1.40954
 46 N    -0.30853   -0.06662   -0.90709

System changes: positions 

Initializing position-dependent things.

Density initialized from wave functions
       .-----------------------.  
      /|                       |  
     / |                       |  
    /  |                       |  
   /   |                       |  
  /    |                       |  
 *     |                       |  
 |     |                       |  
 |   H |               H       |  
 |  C  |              O H      |  
 |   HH|                C      |  
 |     |                H      |  
 |     Li             NLi      |  
 |     |              N        |  
 |     |     Li      Li      Li|  
 |     |  Li      Li      Li   |  
 | Li  |   Li      Li          |  
 |     |Li      Li      Li     |  
 |     | Li                    |  
 |   LLi     LLi     LLi       |  
 |     |  Li      Li      Li   |  
 | Li  |   Li      Li          |  
 |     |Li      Li      Li     |  
 Li    | Li      Li            |  
 |    Li      Li      Li       |  
 |     |                       |  
 |     |                       |  
 |     |                       |  
 |     |                       |  
 |     |                       |  
 |     |                       |  
 |     .-----------------------.  
 |    /                       /   
 |   /                       /    
 |  /                       /     
 | /                       /      
 |/                       /       
 *-----------------------*        

Positions:
   0 Li     1.617037    1.617037   10.000000    ( 0.0000,  0.0000,  0.0000)
   1 Li     4.851111    1.617037   10.000000    ( 0.0000,  0.0000,  0.0000)
   2 Li     8.085185    1.617037   10.000000    ( 0.0000,  0.0000,  0.0000)
   3 Li     1.617037    4.851111   10.000000    ( 0.0000,  0.0000,  0.0000)
   4 Li     4.851111    4.851111   10.000000    ( 0.0000,  0.0000,  0.0000)
   5 Li     8.085185    4.851111   10.000000    ( 0.0000,  0.0000,  0.0000)
   6 Li     1.617037    8.085185   10.000000    ( 0.0000,  0.0000,  0.0000)
   7 Li     4.851111    8.085185   10.000000    ( 0.0000,  0.0000,  0.0000)
   8 Li     8.085185    8.085185   10.000000    ( 0.0000,  0.0000,  0.0000)
   9 Li     0.000000    0.000000   11.617037    ( 0.0000,  0.0000,  0.0000)
  10 Li     3.234074    0.000000   11.617037    ( 0.0000,  0.0000,  0.0000)
  11 Li     6.468148    0.000000   11.617037    ( 0.0000,  0.0000,  0.0000)
  12 Li     0.000000    3.234074   11.617037    ( 0.0000,  0.0000,  0.0000)
  13 Li     3.234074    3.234074   11.617037    ( 0.0000,  0.0000,  0.0000)
  14 Li     6.468148    3.234074   11.617037    ( 0.0000,  0.0000,  0.0000)
  15 Li     0.000000    6.468148   11.617037    ( 0.0000,  0.0000,  0.0000)
  16 Li     3.234074    6.468148   11.617037    ( 0.0000,  0.0000,  0.0000)
  17 Li     6.468148    6.468148   11.617037    ( 0.0000,  0.0000,  0.0000)
  18 Li     1.616574    1.617060   13.473901    ( 0.0000,  0.0000,  0.0000)
  19 Li     4.851621    1.617051   13.473776    ( 0.0000,  0.0000,  0.0000)
  20 Li     8.085137    1.617017   13.468760    ( 0.0000,  0.0000,  0.0000)
  21 Li     1.616903    4.850989   13.473111    ( 0.0000,  0.0000,  0.0000)
  22 Li     4.851256    4.850984   13.473133    ( 0.0000,  0.0000,  0.0000)
  23 Li     8.085169    4.850642   13.473803    ( 0.0000,  0.0000,  0.0000)
  24 Li     1.616949    8.085280   13.473081    ( 0.0000,  0.0000,  0.0000)
  25 Li     4.851209    8.085294   13.473065    ( 0.0000,  0.0000,  0.0000)
  26 Li     8.085170    8.085677   13.473886    ( 0.0000,  0.0000,  0.0000)
  27 Li     0.002529   -0.002422   15.442066    ( 0.0000,  0.0000,  0.0000)
  28 Li     3.233840    0.000891   15.444406    ( 0.0000,  0.0000,  0.0000)
  29 Li     6.465815   -0.002505   15.442162    ( 0.0000,  0.0000,  0.0000)
  30 Li     0.002514    3.236334   15.442276    ( 0.0000,  0.0000,  0.0000)
  31 Li     3.233880    3.233183   15.444355    ( 0.0000,  0.0000,  0.0000)
  32 Li     6.465808    3.236429   15.442306    ( 0.0000,  0.0000,  0.0000)
  33 Li    -0.000801    6.468244   15.444286    ( 0.0000,  0.0000,  0.0000)
  34 Li     3.234001    6.468151   15.444166    ( 0.0000,  0.0000,  0.0000)
[...]
iter:  19 07:40:02  -308.648188c -6.77  -4.88c
Writing to output.gpw (mode='')

iter:  20 07:42:38  -308.648188c -7.01  -4.95c
iter:  21 07:45:03  -308.648188c -6.99  -5.06c
iter:  22 07:47:38  -308.648188c -7.16  -5.15c
iter:  23 07:50:24  -308.648188c -7.52c -5.23c

Converged after 23 iterations.

Dipole moment: (9.620481, -8.182128, 0.242710) |e|*Ang

Energy contributions relative to reference atoms: (reference = -14434.854043)

Kinetic:       +149.966028
Potential:     -146.159822
External:        +0.000000
XC:            -313.137865
Entropy (-ST):   -0.152275
Local:           +0.759609
--------------------------
Free energy:   -308.724326
Extrapolated:  -308.648188

Dipole-layer corrected work functions: 3.397072, 2.930499 eV

Showing only first 2 kpts
 Kpt  Band  Eigenvalues  Occupancy
  0    31     -3.41302    1.98641
  0    32     -3.33561    1.93766
  0    33     -2.99456    0.06557
  0    34     -2.90995    0.01240

  1    31     -3.17438    1.10552
  1    32     -3.15251    0.88777
  1    33     -3.13282    0.69989
  1    34     -3.12544    0.63429


Fermi level: -3.16379

No gap
Writing to output.gpw (mode='')


Forces in eV/Ang:
  0 Li    0.00842    0.00031   -0.26990
  1 Li   -0.00636    0.00172   -0.27992
  2 Li    0.00137   -0.00044   -0.27136
  3 Li   -0.00022   -0.00094   -0.26914
  4 Li    0.00317    0.00017   -0.28188
  5 Li    0.00038    0.00817   -0.27005
  6 Li    0.00044    0.00336   -0.28365
  7 Li    0.00322    0.00269   -0.27069
  8 Li    0.00191   -0.00606   -0.27958
  9 Li    0.00946   -0.00464    0.28416
 10 Li   -0.02817    0.01363    0.27534
 11 Li   -0.00312    0.00086    0.28950
 12 Li   -0.00141    0.00026    0.24617
 13 Li   -0.02391    0.00138    0.26805
 14 Li   -0.00727    0.00569    0.29141
 15 Li    0.00044   -0.01510    0.27000
 16 Li   -0.03136   -0.03143    0.26893
 17 Li    0.01013   -0.02096    0.27715
 18 Li   -0.00384    0.00308   -0.00224
 19 Li   -0.00142   -0.00177   -0.00474
 20 Li    0.00241    0.00282   -0.01556
 21 Li   -0.00441   -0.00695   -0.00154
 22 Li   -0.00247   -0.00054   -0.00513
 23 Li    0.00416   -0.00829   -0.00195
 24 Li   -0.00292   -0.00109   -0.00336
 25 Li    0.00125    0.00148   -0.00374
 26 Li   -0.00042   -0.00639   -0.00381
 27 Li   -0.01070    0.00491    0.01146
 28 Li    0.00064   -0.00649   -0.00212
 29 Li    0.01096    0.00823    0.01149
 30 Li   -0.00253   -0.00729    0.01579
 31 Li    0.00222    0.00649    0.00160
 32 Li    0.00551   -0.00740    0.01123
 33 Li    0.00654    0.00003    0.00271
 34 Li    0.00155    0.00201    0.01740
 35 Li   -0.00768    0.00323   -0.00010
 36 O     0.00524    0.00476   -0.03040
 37 C     0.01111   -0.00775   -0.01978
 38 C    -0.00693    0.00917    0.00013
 39 H     0.01213    0.00130   -0.01117
 40 H    -0.00398   -0.00783   -0.02448
 41 H    -0.00448    0.01014   -0.01975
 42 H    -0.00103   -0.02470    0.00151
 43 H     0.00923    0.00581    0.00871
 44 H    -0.01316    0.01836    0.01381
 45 N    -0.08433   -0.01788    0.06024
 46 N     0.08360    0.05948   -0.08516

System changes: positions 

Initializing position-dependent things.

Density initialized from wave functions
       .-----------------------.  
      /|                       |  
     / |                       |  
    /  |                       |  
   /   |                       |  
  /    |                       |  
 *     |                       |  
 |     |               H       |  
 |   H |                       |  
 |  C  |              O  H     |  
 |  H H|                 C     |  
 |     |                H      |  
 |     Li              Li      |  
 |     |             N N       |  
 |     |     Li      Li      Li|  
 |     |  Li      Li      Li   |  
 |     |   Li      Li      Li  |  
 |     |Li      Li      Li     |  
 |     | Li                    |  
 |   LLi     LLi     LLi       |  
 |     |  Li      Li      Li   |  
 | Li  |   Li      Li          |  
 |     |Li      Li      Li     |  
 Li    | Li      Li            |  
 |    Li      Li      Li       |  
 |     |                       |  
 |     |                       |  
 |     |                       |  
 |     |                       |  
 |     |                       |  
 |     |                       |  
 |     .-----------------------.  
 |    /                       /   
 |   /                       /    
 |  /                       /     
 | /                       /      
 |/                       /       
 *-----------------------*        

Positions:
   0 Li     1.617037    1.617037   10.000000    ( 0.0000,  0.0000,  0.0000)
   1 Li     4.851111    1.617037   10.000000    ( 0.0000,  0.0000,  0.0000)
   2 Li     8.085185    1.617037   10.000000    ( 0.0000,  0.0000,  0.0000)
   3 Li     1.617037    4.851111   10.000000    ( 0.0000,  0.0000,  0.0000)
   4 Li     4.851111    4.851111   10.000000    ( 0.0000,  0.0000,  0.0000)
   5 Li     8.085185    4.851111   10.000000    ( 0.0000,  0.0000,  0.0000)
   6 Li     1.617037    8.085185   10.000000    ( 0.0000,  0.0000,  0.0000)
   7 Li     4.851111    8.085185   10.000000    ( 0.0000,  0.0000,  0.0000)
   8 Li     8.085185    8.085185   10.000000    ( 0.0000,  0.0000,  0.0000)
   9 Li     0.000000    0.000000   11.617037    ( 0.0000,  0.0000,  0.0000)
  10 Li     3.234074    0.000000   11.617037    ( 0.0000,  0.0000,  0.0000)
  11 Li     6.468148    0.000000   11.617037    ( 0.0000,  0.0000,  0.0000)
  12 Li     0.000000    3.234074   11.617037    ( 0.0000,  0.0000,  0.0000)
  13 Li     3.234074    3.234074   11.617037    ( 0.0000,  0.0000,  0.0000)
  14 Li     6.468148    3.234074   11.617037    ( 0.0000,  0.0000,  0.0000)
  15 Li     0.000000    6.468148   11.617037    ( 0.0000,  0.0000,  0.0000)
  16 Li     3.234074    6.468148   11.617037    ( 0.0000,  0.0000,  0.0000)
  17 Li     6.468148    6.468148   11.617037    ( 0.0000,  0.0000,  0.0000)
  18 Li     1.578257    1.635903   13.517331    ( 0.0000,  0.0000,  0.0000)
  19 Li     4.816933    1.615639   13.466085    ( 0.0000,  0.0000,  0.0000)
  20 Li     8.089621    1.622810   13.485027    ( 0.0000,  0.0000,  0.0000)
  21 Li     1.574608    4.815329   13.527946    ( 0.0000,  0.0000,  0.0000)
  22 Li     4.815689    4.863431   13.467035    ( 0.0000,  0.0000,  0.0000)
  23 Li     8.098007    4.821866   13.510006    ( 0.0000,  0.0000,  0.0000)
  24 Li     1.632654    8.058853   13.467962    ( 0.0000,  0.0000,  0.0000)
  25 Li     4.836977    8.071501   13.470180    ( 0.0000,  0.0000,  0.0000)
  26 Li     8.087738    8.064781   13.465815    ( 0.0000,  0.0000,  0.0000)
  27 Li     0.029619   -0.094696   15.364598    ( 0.0000,  0.0000,  0.0000)
  28 Li     3.226095    0.010701   15.429434    ( 0.0000,  0.0000,  0.0000)
  29 Li     6.439824   -0.032212   15.348789    ( 0.0000,  0.0000,  0.0000)
  30 Li    -0.111409    3.159391   15.653579    ( 0.0000,  0.0000,  0.0000)
  31 Li     3.177323    3.223488   15.448680    ( 0.0000,  0.0000,  0.0000)
  32 Li     6.350063    3.258362   15.345889    ( 0.0000,  0.0000,  0.0000)
  33 Li    -0.010277    6.437098   15.439454    ( 0.0000,  0.0000,  0.0000)
  34 Li     3.231930    6.465406   15.424227    ( 0.0000,  0.0000,  0.0000)
  35 Li     6.480226    6.455602   15.418376    ( 0.0000,  0.0000,  0.0000)
  36 O      8.140631    1.566285   21.901628    ( 0.0000,  0.0000,  0.0000)
  37 C      9.313100    0.775211   21.651899    ( 0.0000,  0.0000,  0.0000)
  38 C     10.554537    1.612847   21.369428    ( 0.0000,  0.0000,  0.0000)
  39 H      9.496465    0.095637   22.492864    ( 0.0000,  0.0000,  0.0000)
  40 H      9.057691    0.161711   20.786696    ( 0.0000,  0.0000,  0.0000)
  41 H     11.415158    0.964522   21.182042    ( 0.0000,  0.0000,  0.0000)
  42 H     10.406736    2.255751   20.498970    ( 0.0000,  0.0000,  0.0000)
  43 H     10.797599    2.246999   22.226161    ( 0.0000,  0.0000,  0.0000)
  44 H      8.311427    2.102817   22.684216    ( 0.0000,  0.0000,  0.0000)
  45 N      8.492395    2.287550   17.970946    ( 0.0000,  0.0000,  0.0000)
  46 N      7.799740    1.755087   18.646825    ( 0.0000,  0.0000,  0.0000)

Unit cell:
           periodic     x           y           z      points  spacing
  1. axis:    yes    9.702222    0.000000    0.000000    60     0.1617
  2. axis:    yes    0.000000    9.702222    0.000000    60     0.1617
  3. axis:    no     0.000000    0.000000   24.851111   156     0.1593

  Lengths:   9.702222   9.702222  24.851111
  Angles:   90.000000  90.000000  90.000000

Effective grid spacing dv^(1/3) = 0.1609

     iter     time        total  log10-change:
                         energy  eigst   dens
iter:   1 07:53:41  -308.652590  -2.39
iter:   2 07:56:14  -308.649483  -3.02  -2.27
iter:   3 07:58:56  -308.648786c -3.88  -2.67
iter:   4 08:01:37  -308.648558c -3.47  -2.98
Writing to output.gpw (mode='')

iter:   5 08:04:15  -308.648566c -4.28  -3.18
iter:   6 08:06:51  -308.648546c -4.10  -3.39
iter:   7 08:09:30  -308.648546c -4.24  -3.56
iter:   8 08:12:08  -308.648535c -4.63  -3.60
iter:   9 08:14:49  -308.648538c -5.25  -3.83
Writing to output.gpw (mode='')

iter:  10 08:17:27  -308.648538c -5.61  -3.98
iter:  11 08:20:00  -308.648538c -5.45  -4.03c
iter:  12 08:22:35  -308.648538c -5.69  -4.42c
iter:  13 08:25:08  -308.648538c -6.10  -4.48c
iter:  14 08:27:56  -308.648537c -6.33  -4.48c
Writing to output.gpw (mode='')

iter:  15 08:30:36  -308.648538c -6.23  -4.61c
iter:  16 08:33:05  -308.648538c -6.57  -4.80c
iter:  17 08:35:37  -308.648538c -6.54  -4.80c
iter:  18 08:38:10  -308.648538c -6.70  -4.78c
iter:  19 08:40:48  -308.648538c -6.82  -4.83c
Writing to output.gpw (mode='')

iter:  20 08:43:21  -308.648538c -7.05  -4.87c
iter:  21 08:45:59  -308.648538c -7.30  -5.03c
iter:  22 08:48:33  -308.648538c -7.21  -5.14c
iter:  23 08:51:14  -308.648538c -7.50c -5.23c

Converged after 23 iterations.

Dipole moment: (9.669343, -8.207004, 0.243708) |e|*Ang

Energy contributions relative to reference atoms: (reference = -14434.854043)

Kinetic:       +150.031957
Potential:     -146.217889
External:        +0.000000
XC:            -313.146113
Entropy (-ST):   -0.152263
Local:           +0.759639
--------------------------
Free energy:   -308.724669
Extrapolated:  -308.648538

Dipole-layer corrected work functions: 3.397089, 2.928600 eV

Showing only first 2 kpts
 Kpt  Band  Eigenvalues  Occupancy
  0    31     -3.41246    1.98651
  0    32     -3.33480    1.93781
  0    33     -2.99375    0.06573
  0    34     -2.90931    0.01248

  1    31     -3.17352    1.10636
  1    32     -3.15173    0.88930
  1    33     -3.13169    0.69819
  1    34     -3.12408    0.63070


Fermi level: -3.16284

No gap
Writing to output.gpw (mode='')


Forces in eV/Ang:
  0 Li    0.00829    0.00038   -0.26972
  1 Li   -0.00620    0.00173   -0.27973
  2 Li    0.00141   -0.00037   -0.27119
  3 Li   -0.00013   -0.00093   -0.26903
  4 Li    0.00308    0.00015   -0.28185
  5 Li    0.00042    0.00809   -0.26987
  6 Li    0.00038    0.00330   -0.28364
  7 Li    0.00324    0.00264   -0.27055
  8 Li    0.00194   -0.00589   -0.27940
  9 Li    0.00960   -0.00517    0.28293
 10 Li   -0.02859    0.01360    0.27465
 11 Li   -0.00309    0.00050    0.28806
 12 Li   -0.00108    0.00031    0.24397
 13 Li   -0.02407    0.00116    0.26692
 14 Li   -0.00788    0.00585    0.28990
 15 Li    0.00059   -0.01569    0.26906
 16 Li   -0.03145   -0.03124    0.26866
 17 Li    0.00995   -0.02143    0.27628
 18 Li   -0.00334    0.00226    0.00000
 19 Li   -0.00072   -0.00124   -0.00224
 20 Li    0.00214    0.00224   -0.01134
 21 Li   -0.00367   -0.00551    0.00031
 22 Li   -0.00148   -0.00080   -0.00235
 23 Li    0.00328   -0.00680    0.00034
 24 Li   -0.00266   -0.00077   -0.00113
 25 Li    0.00107    0.00130   -0.00167
 26 Li   -0.00023   -0.00499   -0.00146
 27 Li   -0.00820    0.00359    0.00869
 28 Li    0.00038   -0.00533   -0.00212
 29 Li    0.00845    0.00631    0.00842
 30 Li   -0.00220   -0.00635    0.01429
 31 Li    0.00187    0.00539    0.00086
 32 Li    0.00408   -0.00538    0.00831
 33 Li    0.00550   -0.00002    0.00209
 34 Li    0.00118    0.00168    0.01463
 35 Li   -0.00650    0.00268   -0.00054
 36 O     0.01557    0.01604   -0.01931
 37 C    -0.00376   -0.00987   -0.01695
 38 C    -0.01188   -0.00029    0.00602
 39 H     0.01342    0.00474   -0.01094
 40 H     0.00340   -0.01477   -0.02946
 41 H    -0.01374    0.01069   -0.01662
 42 H     0.00619   -0.01432    0.01152
 43 H     0.00932    0.01047   -0.00871
 44 H    -0.01027    0.00926    0.00442
 45 N    -0.01001    0.03020   -0.00150
 46 N     0.01536    0.01724   -0.02696

Timing:                                      incl.     excl.
-------------------------------------------------------------------
Density initialized from wave functions:   203.054   203.051   0.0% |
 Symmetrize density:                         0.003     0.003   0.0% |
Forces:                                    705.554   705.554   0.2% |
Hamiltonian:                              8730.221     0.015   0.0% |
 Atomic:                                    13.053     0.143   0.0% |
  XC Correction:                            12.910    12.910   0.0% |
 Calculate atomic Hamiltonians:             44.030    44.030   0.0% |
 Communicate:                               46.553    46.553   0.0% |
 Hartree integrate/restrict:                14.454    14.454   0.0% |
 Initialize Hamiltonian:                     0.001     0.001   0.0% |
 Poisson:                                  326.792   147.226   0.0% |
  Communicate from 1D:                      22.779    22.779   0.0% |
  Communicate from 2D:                      42.093    42.093   0.0% |
  Communicate to 1D:                         9.512     9.512   0.0% |
  Communicate to 2D:                        39.478    39.478   0.0% |
  FFT 1D:                                   33.649    33.649   0.0% |
  FFT 2D:                                   32.056    32.056   0.0% |
 XC 3D grid:                              8281.765   793.166   0.2% |
  VdW-DF integral:                        7488.599    17.043   0.0% |
   Convolution:                            483.852   483.852   0.1% |
   FFT:                                     77.414    77.414   0.0% |
   gather:                                6027.742  6027.742   1.3% ||
   hmm1:                                    82.006    82.006   0.0% |
   hmm2:                                   109.573   109.573   0.0% |
   iFFT:                                    83.168    83.168   0.0% |
   potential:                              594.111     6.983   0.0% |
    collect:                                58.937    58.937   0.0% |
    p1:                                    235.692   235.692   0.1% |
    p2:                                    152.873   152.873   0.0% |
    sum:                                   139.625   139.625   0.0% |
   splines:                                 13.689    13.689   0.0% |
 vbar:                                       3.559     3.559   0.0% |
LCAO initialization:                        13.136     0.889   0.0% |
 LCAO eigensolver:                           3.630     0.011   0.0% |
  Calculate projections:                     0.000     0.000   0.0% |
  DenseAtomicCorrection:                     0.000     0.000   0.0% |
  Distribute overlap matrix:                 3.461     3.461   0.0% |
  Orbital Layouts:                           0.067     0.067   0.0% |
  Potential matrix:                          0.087     0.087   0.0% |
  Sum over cells:                            0.004     0.004   0.0% |
 LCAO to grid:                               6.785     6.785   0.0% |
 Set positions (LCAO WFS):                   1.831     1.377   0.0% |
  Basic WFS set positions:                   0.004     0.004   0.0% |
  Basis functions set positions:             0.001     0.001   0.0% |
  P tci:                                     0.001     0.001   0.0% |
  ST tci:                                    0.326     0.326   0.0% |
  mktci:                                     0.123     0.123   0.0% |
Redistribute:                                0.116     0.116   0.0% |
SCF-cycle:                               438509.097  5762.904   1.3% ||
 Davidson:                               134126.937 53994.840  12.0% |----|
  Apply hamiltonian:                      8301.807  8301.807   1.8% ||
  Subspace diag:                         18705.099     0.879   0.0% |
   calc_h_matrix:                        11434.419  3345.320   0.7% |
    Apply hamiltonian:                    8089.099  8089.099   1.8% ||
   diagonalize:                            718.061   718.061   0.2% |
   rotate_psi:                            6551.739  6551.739   1.5% ||
  calc. matrices:                        40113.036 25078.534   5.6% |-|
   Apply hamiltonian:                    15034.502 15034.502   3.3% ||
  diagonalize:                              60.453    60.453   0.0% |
  rotate_psi:                            12951.703 12951.703   2.9% ||
 Density:                                 2842.855     0.173   0.0% |
  Atomic density matrices:                 801.372   801.372   0.2% |
  Mix:                                     823.518   823.518   0.2% |
  Multipole moments:                        11.040    11.040   0.0% |
  Pseudo density:                         1206.751  1206.640   0.3% |
   Symmetrize density:                       0.111     0.111   0.0% |
 Hamiltonian:                            295480.448     0.819   0.0% |
  Atomic:                                  449.795     5.818   0.0% |
   XC Correction:                          443.976   443.976   0.1% |
  Calculate atomic Hamiltonians:          1436.983  1436.983   0.3% |
  Communicate:                            1467.277  1467.277   0.3% |
  Hartree integrate/restrict:              499.937   499.937   0.1% |
  Poisson:                               11078.992  5013.499   1.1% |
   Communicate from 1D:                    816.467   816.467   0.2% |
   Communicate from 2D:                   1378.495  1378.495   0.3% |
   Communicate to 1D:                      336.084   336.084   0.1% |
   Communicate to 2D:                     1289.868  1289.868   0.3% |
   FFT 1D:                                1131.608  1131.608   0.3% |
   FFT 2D:                                1112.970  1112.970   0.2% |
  XC 3D grid:                            280422.049 26879.251   6.0% |-|
   VdW-DF integral:                      253542.798   582.400   0.1% |
    Convolution:                         16338.068 16338.068   3.6% ||
    FFT:                                  2681.435  2681.435   0.6% |
    gather:                              204568.949 204568.949  45.4% |-----------------|
    hmm1:                                 2736.089  2736.089   0.6% |
    hmm2:                                 3661.472  3661.472   0.8% |
    iFFT:                                 2854.106  2854.106   0.6% |
    potential:                           20120.229   226.550   0.1% |
     collect:                             1874.672  1874.672   0.4% |
     p1:                                  7946.629  7946.629   1.8% ||
     p2:                                  5151.549  5151.549   1.1% |
     sum:                                 4920.829  4920.829   1.1% |
    splines:                                 0.051     0.051   0.0% |
  vbar:                                    124.596   124.596   0.0% |
 Orthonormalize:                           295.953     0.021   0.0% |
  calc_s_matrix:                            48.264    48.264   0.0% |
  inverse-cholesky:                          9.620     9.620   0.0% |
  projections:                             138.327   138.327   0.0% |
  rotate_psi_s:                             99.721    99.721   0.0% |
Set symmetry:                                0.005     0.005   0.0% |
Other:                                    2275.147  2275.147   0.5% |
-------------------------------------------------------------------
Total:                                             450436.331 100.0%

Memory usage: 1.57 GiB
Date: Sun Feb 12 08:51:24 2023
