
  ___ ___ ___ _ _ _  
 |   |   |_  | | | | 
 | | | | | . | | | | 
 |__ |  _|___|_____|  22.8.0
 |___|_|             

User:   vazumah@c10.hercules
Date:   Sat Feb 25 22:52:08 2023
Arch:   x86_64
Pid:    21184
CWD:    /home/vazumah/Python_projects/LiNRR/Li_adsorb_studies/proton_donors/N2_with_proton_donor/Li_BCC_100/adsorbates/CH3CH2OH_z/bridge/8.085_1.617/N2_z
Python: 3.10.8
gpaw:   /home/vazumah/.conda/envs/GPAW/lib/python3.10/site-packages/gpaw
_gpaw:  /home/vazumah/.conda/envs/GPAW/lib/python3.10/site-packages/
        _gpaw.cpython-310-x86_64-linux-gnu.so
ase:    /home/vazumah/.conda/envs/GPAW/lib/python3.10/site-packages/ase (version 3.22.1)
numpy:  /home/vazumah/.conda/envs/GPAW/lib/python3.10/site-packages/numpy (version 1.24.1)
scipy:  /home/vazumah/.conda/envs/GPAW/lib/python3.10/site-packages/scipy (version 1.10.0)
libxc:  5.2.3
units:  Angstrom and eV
cores: 24
OpenMP: True
OMP_NUM_THREADS: 1

Input parameters:
  h: 0.16

System changes: positions, numbers, cell, pbc, initial_charges, initial_magmoms 

Initialize ...

species:
  Li:
    name: Lithium
    id: b73562207f97a71b6967473b66fe8b65
    Z: 3.0
    valence: 1
    core: 2
    charge: 0.0
    file: /home/vazumah/.conda/envs/GPAW/share/gpaw/Li.LDA.gz
    compensation charges: {type: gauss,
                           rc: 0.33,
                           lmax: 2}
    cutoffs: {filter: 1.91,
              core: 2.55}
    valence states:
      #              energy  rcut
      - 2s(1.00)    -2.874   1.058
      - 2p(0.00)    -1.126   1.058
      -  s          24.338   1.058
  
    # Using partial waves for Li as LCAO basis

  O:
    name: Oxygen
    id: 9b9d51c344dea68c822856295a461509
    Z: 8.0
    valence: 6
    core: 2
    charge: 0.0
    file: /home/vazumah/.conda/envs/GPAW/share/gpaw/O.LDA.gz
    compensation charges: {type: gauss,
                           rc: 0.21,
                           lmax: 2}
    cutoffs: {filter: 1.17,
              core: 0.83}
    valence states:
      #              energy  rcut
      - 2s(2.00)   -23.752   0.688
      - 2p(4.00)    -9.195   0.598
      -  s           3.459   0.688
      -  p          18.016   0.598
      -  d           0.000   0.619
  
    # Using partial waves for O as LCAO basis

  C:
    name: Carbon
    id: d60576a1f549371a163e72552ca58787
    Z: 6.0
    valence: 4
    core: 2
    charge: 0.0
    file: /home/vazumah/.conda/envs/GPAW/share/gpaw/C.LDA.gz
    compensation charges: {type: gauss,
                           rc: 0.20,
                           lmax: 2}
    cutoffs: {filter: 1.14,
              core: 1.14}
    valence states:
      #              energy  rcut
      - 2s(2.00)   -13.639   0.635
      - 2p(2.00)    -5.414   0.635
      -  s          13.573   0.635
      -  p          21.797   0.635
      -  d           0.000   0.635
  
    # Using partial waves for C as LCAO basis

  H:
    name: Hydrogen
    id: 4766778ce56282eaa64abeb28b7c1de3
    Z: 1.0
    valence: 1
    core: 0
    charge: 0.0
    file: /home/vazumah/.conda/envs/GPAW/share/gpaw/H.LDA.gz
    compensation charges: {type: gauss,
                           rc: 0.15,
                           lmax: 2}
    cutoffs: {filter: 0.85,
              core: 0.53}
    valence states:
      #              energy  rcut
      - 1s(1.00)    -6.353   0.476
      -  s          20.858   0.476
      -  p           0.000   0.476
  
    # Using partial waves for H as LCAO basis

  N:
    name: Nitrogen
    id: c467cdfa1b75f62c8f7a0469921b1cfb
    Z: 7.0
    valence: 5
    core: 2
    charge: 0.0
    file: /home/vazumah/.conda/envs/GPAW/share/gpaw/N.LDA.gz
    compensation charges: {type: gauss,
                           rc: 0.18,
                           lmax: 2}
    cutoffs: {filter: 1.11,
              core: 0.96}
    valence states:
      #              energy  rcut
      - 2s(2.00)   -18.420   0.603
      - 2p(3.00)    -7.237   0.529
      -  s           8.791   0.603
      -  p          19.974   0.529
      -  d           0.000   0.577
  
    # Using partial waves for N as LCAO basis

Reference energy: -14265.952424  # eV

Spin-paired calculation

Convergence criteria:
 Maximum [total energy] change in last 3 cyles: 0.0005 eV / electron
 Maximum integral of absolute [dens]ity change: 0.0001 electrons / valence electron
 Maximum integral of absolute [eigenst]ate change: 4e-08 eV^2 / valence electron
 Maximum number of scf [iter]ations: 333
 (Square brackets indicate name in SCF output, whereas a 'c' in
 the SCF output indicates the quantity has converged.)

Symmetries present (total): 1

  ( 1  0  0)
  ( 0  1  0)
  ( 0  0  1)

1 k-point (Gamma)
1 k-point in the irreducible part of the Brillouin zone
       k-points in crystal coordinates                weights
   0:     0.00000000    0.00000000    0.00000000          1/1

Wave functions: Uniform real-space grid
  Kinetic energy operator: 6*3+1=19 point O(h^6) finite-difference Laplacian
  ScaLapack parameters: grid=1x1, blocksize=None
  Wavefunction extrapolation:
    Improved wavefunction reuse through dual PAW basis 

Occupation numbers: Fermi-Dirac:
  width: 0.1000  # eV
 

Eigensolver
   Davidson(niter=2) 

Densities:
  Coarse grid: 60*60*156 grid
  Fine grid: 120*120*312 grid
  Total Charge: 0.000000 

Density mixing:
  Method: separate
  Backend: pulay
  Linear mixing parameter: 0.05
  old densities: 5
  Damping of long wavelength oscillations: 50 

Hamiltonian:
  XC and Coulomb potentials evaluated on a 120*120*312 grid
  Using the LDA Exchange-Correlation functional
  Interpolation: tri-quintic (5. degree polynomial)
  Poisson solver: FastPoissonSolver using
    Stencil: 6*3+1=19 point O(h^6) finite-difference Laplacian
    FFT axes: [0, 1]
    FST axes: [2]
 

Memory estimate:
  Process memory now: 235.61 MiB
  Calculator: 34.86 MiB
    Density: 14.67 MiB
      Arrays: 4.55 MiB
      Localized functions: 8.41 MiB
      Mixer: 1.72 MiB
    Hamiltonian: 3.64 MiB
      Arrays: 2.97 MiB
      XC: 0.00 MiB
      Poisson: 0.00 MiB
      vbar: 0.66 MiB
    Wavefunctions: 16.55 MiB
      Arrays psit_nG: 7.55 MiB
      Eigensolver: 8.56 MiB
      Projections: 0.00 MiB
      Projectors: 0.43 MiB

Total number of cores used: 24
Domain decomposition: 2 x 2 x 6

Number of atoms: 47
Number of atomic orbitals: 170
Number of bands in calculation: 44
Number of valence electrons: 66
Bands to converge: occupied

... initialized

Initializing position-dependent things.

Density initialized from atomic densities
Creating initial wave functions:
  44 bands from LCAO basis set

       .-----------------------.  
      /|                       |  
     / |                       |  
    /  |                       |  
   /   |                       |  
  /    |                     H |  
 *     |                 H     |  
 |     |                       |  
 |     |             H         |  
 |     |            H C  H     |  
 |     |                       |  
 |     |              C        |  
 |     Li      Li    H O       |  
 |     |                       |  
 |   Li|     Li      Li        |  
 |     |  Li      Li      Li   |  
 |     |   Li      LiN    Li   |  
 |     |Li      LiLi   NLi     |  
 |     |                       |  
 |   LLi     LLi     LLi       |  
 |     |  Li      Li      Li   |  
 | Li  |   Li      Li          |  
 |     |Li      Li      Li     |  
 Li    | Li      Li            |  
 |    Li      Li      Li       |  
 |     |                       |  
 |     |                       |  
 |     |                       |  
 |     |                       |  
 |     |                       |  
 |     |                       |  
 |     .-----------------------.  
 |    /                       /   
 |   /                       /    
 |  /                       /     
 | /                       /      
 |/                       /       
 *-----------------------*        

Positions:
   0 Li     1.617037    1.617037   10.000000    ( 0.0000,  0.0000,  0.0000)
   1 Li     4.851111    1.617037   10.000000    ( 0.0000,  0.0000,  0.0000)
   2 Li     8.085185    1.617037   10.000000    ( 0.0000,  0.0000,  0.0000)
   3 Li     1.617037    4.851111   10.000000    ( 0.0000,  0.0000,  0.0000)
   4 Li     4.851111    4.851111   10.000000    ( 0.0000,  0.0000,  0.0000)
   5 Li     8.085185    4.851111   10.000000    ( 0.0000,  0.0000,  0.0000)
   6 Li     1.617037    8.085185   10.000000    ( 0.0000,  0.0000,  0.0000)
   7 Li     4.851111    8.085185   10.000000    ( 0.0000,  0.0000,  0.0000)
   8 Li     8.085185    8.085185   10.000000    ( 0.0000,  0.0000,  0.0000)
   9 Li     0.000000    0.000000   11.617037    ( 0.0000,  0.0000,  0.0000)
  10 Li     3.234074    0.000000   11.617037    ( 0.0000,  0.0000,  0.0000)
  11 Li     6.468148    0.000000   11.617037    ( 0.0000,  0.0000,  0.0000)
  12 Li     0.000000    3.234074   11.617037    ( 0.0000,  0.0000,  0.0000)
  13 Li     3.234074    3.234074   11.617037    ( 0.0000,  0.0000,  0.0000)
  14 Li     6.468148    3.234074   11.617037    ( 0.0000,  0.0000,  0.0000)
  15 Li     0.000000    6.468148   11.617037    ( 0.0000,  0.0000,  0.0000)
  16 Li     3.234074    6.468148   11.617037    ( 0.0000,  0.0000,  0.0000)
  17 Li     6.468148    6.468148   11.617037    ( 0.0000,  0.0000,  0.0000)
  18 Li     1.596868    1.576436   13.495006    ( 0.0000,  0.0000,  0.0000)
  19 Li     4.855589    1.671186   13.501169    ( 0.0000,  0.0000,  0.0000)
  20 Li     8.078552    1.622111   13.541613    ( 0.0000,  0.0000,  0.0000)
  21 Li     1.564720    4.786416   13.495108    ( 0.0000,  0.0000,  0.0000)
  22 Li     4.807581    4.893575   13.500221    ( 0.0000,  0.0000,  0.0000)
  23 Li     8.039536    4.851282   13.501718    ( 0.0000,  0.0000,  0.0000)
  24 Li     1.663295    8.033753   13.477357    ( 0.0000,  0.0000,  0.0000)
  25 Li     4.902965    8.136161   13.485114    ( 0.0000,  0.0000,  0.0000)
  26 Li     8.130489    8.112267   13.500550    ( 0.0000,  0.0000,  0.0000)
  27 Li     0.115660   -0.134615   15.468680    ( 0.0000,  0.0000,  0.0000)
  28 Li     3.355163   -0.049640   15.402409    ( 0.0000,  0.0000,  0.0000)
  29 Li     6.702563    0.219824   15.536280    ( 0.0000,  0.0000,  0.0000)
  30 Li    -0.261690    2.945731   15.602072    ( 0.0000,  0.0000,  0.0000)
  31 Li     3.071855    3.274459   15.458029    ( 0.0000,  0.0000,  0.0000)
  32 Li     6.336901    3.351643   15.485708    ( 0.0000,  0.0000,  0.0000)
  33 Li     0.053745    6.336049   15.406003    ( 0.0000,  0.0000,  0.0000)
  34 Li     3.243940    6.465300   15.468751    ( 0.0000,  0.0000,  0.0000)
  35 Li     6.423098    6.624665   15.450699    ( 0.0000,  0.0000,  0.0000)
  36 O      8.553580    1.315166   19.157653    ( 0.0000,  0.0000,  0.0000)
  37 C      8.253790    0.600377   20.366994    ( 0.0000,  0.0000,  0.0000)
  38 C      8.117250    1.512262   21.577643    ( 0.0000,  0.0000,  0.0000)
  39 H      7.348780   -0.008899   20.237138    ( 0.0000,  0.0000,  0.0000)
  40 H      9.093331   -0.084993   20.506870    ( 0.0000,  0.0000,  0.0000)
  41 H      7.908708    0.922185   22.472448    ( 0.0000,  0.0000,  0.0000)
  42 H      9.038535    2.076708   21.732404    ( 0.0000,  0.0000,  0.0000)
  43 H      7.296333    2.222835   21.449697    ( 0.0000,  0.0000,  0.0000)
  44 H      7.796626    1.875518   18.942590    ( 0.0000,  0.0000,  0.0000)
  45 N      8.504318    1.144280   15.533057    ( 0.0000,  0.0000,  0.0000)
  46 N      7.618164    2.037130   15.557112    ( 0.0000,  0.0000,  0.0000)

Unit cell:
           periodic     x           y           z      points  spacing
  1. axis:    yes    9.702222    0.000000    0.000000    60     0.1617
  2. axis:    yes    0.000000    9.702222    0.000000    60     0.1617
  3. axis:    no     0.000000    0.000000   24.851111   156     0.1593

  Lengths:   9.702222   9.702222  24.851111
  Angles:   90.000000  90.000000  90.000000

Effective grid spacing dv^(1/3) = 0.1609

     iter     time        total  log10-change:
                         energy  eigst   dens
iter:   1 22:52:44  -215.154838
iter:   2 22:53:09   -79.924460  +1.66  -0.18
iter:   3 22:53:33   -65.800775  +3.04  -0.37
iter:   4 22:53:59   -86.177787  +2.32  -0.51
iter:   5 22:54:26  -101.521861  +2.13  -0.69
iter:   6 22:54:53  -112.451875  +2.04  -0.76
iter:   7 22:55:20  -129.082117  +2.12  -0.91
iter:   8 22:55:45  -139.291357  +1.83  -0.84
iter:   9 22:56:10  -144.131352  +1.57  -0.87
iter:  10 22:56:38  -143.969840  +0.95  -0.86
iter:  11 22:57:06  -145.132829  +0.56  -0.82
iter:  12 22:57:33  -144.635378  +0.22  -0.83
iter:  13 22:57:57  -144.536255  +0.65  -0.82
iter:  14 22:58:23  -143.973412  +0.31  -0.74
iter:  15 22:58:48  -142.022802  +1.08  -0.74
iter:  16 22:59:13  -141.377162  +0.58  -0.87
iter:  17 22:59:40  -156.691970  +0.75  -0.88
iter:  18 23:00:05  -151.280014  -0.34  -0.74
iter:  19 23:00:31  -144.115353  -0.04  -0.75
iter:  20 23:00:58  -144.132027  -0.40  -0.92
iter:  21 23:01:25  -140.178082  +0.21  -0.92
iter:  22 23:01:53  -142.206632  +0.07  -1.03
iter:  23 23:02:18  -139.140126  -0.02  -0.90
iter:  24 23:02:46  -138.351513  +0.66  -1.10
iter:  25 23:03:15  -138.231220  -0.37  -1.20
iter:  26 23:03:41  -138.166682  +0.26  -1.24
iter:  27 23:04:06  -137.912734  -0.40  -1.40
iter:  28 23:04:32  -137.845912  -1.10  -1.58
iter:  29 23:04:57  -137.813339  -0.96  -1.67
iter:  30 23:05:22  -137.830178c -1.07  -1.83
iter:  31 23:05:51  -137.840985c -1.33  -1.87
iter:  32 23:06:17  -137.827099c -1.97  -1.79
iter:  33 23:06:43  -137.801180  -1.21  -1.84
iter:  34 23:07:11  -137.799889c -2.05  -2.17
iter:  35 23:07:37  -137.795812c -2.07  -2.24
iter:  36 23:08:05  -137.796353c -2.57  -2.51
iter:  37 23:08:33  -137.796400c -3.08  -2.55
iter:  38 23:08:58  -137.797201c -2.38  -2.59
iter:  39 23:09:24  -137.796654c -3.42  -2.60
iter:  40 23:09:52  -137.796128c -2.89  -2.70
iter:  41 23:10:19  -137.796619c -3.31  -3.05
iter:  42 23:10:45  -137.796407c -3.34  -2.99
iter:  43 23:11:10  -137.796363c -3.63  -3.18
iter:  44 23:11:33  -137.796389c -4.14  -3.23
iter:  45 23:11:58  -137.796276c -3.56  -3.26
iter:  46 23:12:23  -137.796380c -3.90  -3.29
iter:  47 23:12:46  -137.796352c -4.46  -3.45
iter:  48 23:13:09  -137.796324c -4.27  -3.49
iter:  49 23:13:34  -137.796370c -4.52  -3.63
iter:  50 23:13:59  -137.796359c -5.12  -3.79
iter:  51 23:14:26  -137.796350c -5.00  -3.87
iter:  52 23:14:51  -137.796371c -5.03  -4.02c
iter:  53 23:15:17  -137.796366c -5.47  -4.04c
iter:  54 23:15:45  -137.796359c -5.54  -4.08c
iter:  55 23:16:13  -137.796364c -5.48  -4.13c
iter:  56 23:16:42  -137.796355c -5.27  -4.21c
iter:  57 23:17:08  -137.796355c -5.61  -4.56c
iter:  58 23:17:35  -137.796354c -5.71  -4.66c
iter:  59 23:18:00  -137.796355c -5.64  -4.76c
iter:  60 23:18:28  -137.796354c -5.87  -4.90c
iter:  61 23:18:57  -137.796352c -6.06  -4.96c
iter:  62 23:19:25  -137.796351c -5.98  -5.02c
iter:  63 23:19:53  -137.796351c -6.24  -5.20c
iter:  64 23:20:22  -137.796352c -6.27  -5.25c
iter:  65 23:20:48  -137.796351c -6.18  -5.37c
iter:  66 23:21:14  -137.796350c -6.26  -5.41c
iter:  67 23:21:41  -137.796350c -6.64  -5.58c
iter:  68 23:22:05  -137.796350c -6.58  -5.62c
iter:  69 23:22:33  -137.796350c -6.76  -5.60c
iter:  70 23:22:58  -137.796350c -6.63  -5.57c
iter:  71 23:23:24  -137.796350c -7.04  -5.54c
iter:  72 23:23:50  -137.796351c -6.79  -5.50c
iter:  73 23:24:18  -137.796351c -6.97  -5.49c
iter:  74 23:24:44  -137.796351c -7.39  -5.46c
iter:  75 23:25:10  -137.796350c -7.26  -5.45c
iter:  76 23:25:34  -137.796351c -7.23  -5.43c
iter:  77 23:25:59  -137.796351c -7.60c -5.41c

Converged after 77 iterations.

Dipole moment: (-0.057027, -5.419534, 0.338657) |e|*Ang

Energy contributions relative to reference atoms: (reference = -14265.952424)

Kinetic:       +141.008238
Potential:     -134.889804
External:        +0.000000
XC:            -144.378580
Entropy (-ST):   -0.614303
Local:           +0.770947
--------------------------
Free energy:   -138.103502
Extrapolated:  -137.796351

 Band  Eigenvalues  Occupancy
    0    -25.13556    2.00000
    1    -23.96479    2.00000
    2    -18.37697    2.00000
    3    -15.26954    2.00000
    4    -13.12002    2.00000
    5    -12.37167    2.00000
    6    -11.10106    2.00000
    7    -10.47116    2.00000
    8     -9.58033    2.00000
    9     -9.36517    2.00000
   10     -9.25072    2.00000
   11     -9.03931    2.00000
   12     -8.88908    2.00000
   13     -7.70610    2.00000
   14     -6.32406    2.00000
   15     -6.12620    2.00000
   16     -5.16622    2.00000
   17     -5.08874    2.00000
   18     -5.02243    2.00000
   19     -5.01732    2.00000
   20     -4.81691    2.00000
   21     -4.26113    2.00000
   22     -4.06969    1.99998
   23     -4.03292    1.99998
   24     -3.95190    1.99995
   25     -3.90029    1.99991
   26     -3.85147    1.99985
   27     -3.81901    1.99979
   28     -3.79101    1.99973
   29     -3.42910    1.98992
   30     -3.28559    1.95834
   31     -3.07542    1.70355
   32     -2.88371    0.91594
   33     -2.81901    0.61341
   34     -2.77824    0.45474
   35     -2.69894    0.23502
   36     -2.58289    0.08010
   37     -2.46097    0.02436
   38     -2.42548    0.01714
   39     -2.34989    0.00809
   40     -1.95406    0.00016
   41     -1.82428    0.00004
   42     -1.59755    0.00000
   43     -1.52951    0.00000

Fermi level: -2.90056

Gap: 0.192 eV
Transition (v -> c):
  (s=0, k=0, n=31, [0.00, 0.00, 0.00]) -> (s=0, k=0, n=32, [0.00, 0.00, 0.00])
Timing:                               incl.     excl.
------------------------------------------------------------
Hamiltonian:                          1.028     0.000   0.0% |
 Atomic:                              0.020     0.001   0.0% |
  XC Correction:                      0.019     0.019   0.0% |
 Calculate atomic Hamiltonians:       0.104     0.104   0.0% |
 Communicate:                         0.094     0.094   0.0% |
 Hartree integrate/restrict:          0.050     0.050   0.0% |
 Initialize Hamiltonian:              0.000     0.000   0.0% |
 Poisson:                             0.544     0.030   0.0% |
  Communicate from 1D:                0.150     0.150   0.0% |
  Communicate from 2D:                0.111     0.111   0.0% |
  Communicate to 1D:                  0.041     0.041   0.0% |
  Communicate to 2D:                  0.106     0.106   0.0% |
  FFT 1D:                             0.081     0.081   0.0% |
  FFT 2D:                             0.024     0.024   0.0% |
 XC 3D grid:                          0.214     0.214   0.0% |
 vbar:                                0.002     0.002   0.0% |
HirshfeldPartitioning initialize:     4.161     4.161   0.0% |
LCAO initialization:                  2.385     1.120   0.0% |
 LCAO eigensolver:                    0.668     0.001   0.0% |
  Calculate projections:              0.000     0.000   0.0% |
  DenseAtomicCorrection:              0.000     0.000   0.0% |
  Distribute overlap matrix:          0.546     0.546   0.0% |
  Orbital Layouts:                    0.121     0.121   0.0% |
  Potential matrix:                   0.000     0.000   0.0% |
 LCAO to grid:                        0.003     0.003   0.0% |
 Set positions (LCAO WFS):            0.595     0.336   0.0% |
  Basic WFS set positions:            0.004     0.004   0.0% |
  Basis functions set positions:      0.001     0.001   0.0% |
  P tci:                              0.001     0.001   0.0% |
  ST tci:                             0.049     0.049   0.0% |
  mktci:                              0.205     0.205   0.0% |
SCF-cycle:                         2022.316     4.654   0.0% |
 Davidson:                         1897.882  1585.898   0.5% |
  Apply hamiltonian:                 51.127    51.127   0.0% |
  Subspace diag:                     69.799     0.013   0.0% |
   calc_h_matrix:                    53.804     3.283   0.0% |
    Apply hamiltonian:               50.521    50.521   0.0% |
   diagonalize:                       9.220     9.220   0.0% |
   rotate_psi:                        6.763     6.763   0.0% |
  calc. matrices:                   173.610    49.063   0.0% |
   Apply hamiltonian:               124.547   124.547   0.0% |
  diagonalize:                        0.543     0.543   0.0% |
  rotate_psi:                        16.905    16.905   0.0% |
 Density:                            29.343     0.003   0.0% |
  Atomic density matrices:            2.413     2.413   0.0% |
  Mix:                               24.103    24.103   0.0% |
  Multipole moments:                  1.104     1.104   0.0% |
  Pseudo density:                     1.720     1.719   0.0% |
   Symmetrize density:                0.002     0.002   0.0% |
 Hamiltonian:                        88.530     0.011   0.0% |
  Atomic:                             2.906     0.748   0.0% |
   XC Correction:                     2.158     2.158   0.0% |
  Calculate atomic Hamiltonians:     11.033    11.033   0.0% |
  Communicate:                        6.412     6.412   0.0% |
  Hartree integrate/restrict:         6.556     6.556   0.0% |
  Poisson:                           45.911     2.829   0.0% |
   Communicate from 1D:               9.034     9.034   0.0% |
   Communicate from 2D:              10.207    10.207   0.0% |
   Communicate to 1D:                 5.169     5.169   0.0% |
   Communicate to 2D:                12.002    12.002   0.0% |
   FFT 1D:                            3.776     3.776   0.0% |
   FFT 2D:                            2.893     2.893   0.0% |
  XC 3D grid:                        15.501    15.501   0.0% |
  vbar:                               0.199     0.199   0.0% |
 Orthonormalize:                      1.907     0.000   0.0% |
  calc_s_matrix:                      0.015     0.015   0.0% |
  inverse-cholesky:                   1.835     1.835   0.0% |
  projections:                        0.000     0.000   0.0% |
  rotate_psi_s:                       0.057     0.057   0.0% |
Set symmetry:                         0.002     0.002   0.0% |
Other:                            331349.643 331349.643  99.4% |---------------------------------------|
------------------------------------------------------------
Total:                                      333379.534 100.0%

Memory usage: 4.54 GiB
Date: Wed Mar  1 19:28:28 2023
