
  ___ ___ ___ _ _ _  
 |   |   |_  | | | | 
 | | | | | . | | | | 
 |__ |  _|___|_____|  22.8.0
 |___|_|             

User:   vazumah@c13.hercules
Date:   Fri Feb 24 17:23:55 2023
Arch:   x86_64
Pid:    10424
CWD:    /home/vazumah/Python_projects/LiNRR/Li_adsorb_studies/proton_donors/N2_with_proton_donor/Li_BCC_100/adsorbates/CH3CH2OH_z/bridge/8.085_1.617/N2_z
Python: 3.10.8
gpaw:   /home/vazumah/.conda/envs/GPAW/lib/python3.10/site-packages/gpaw
_gpaw:  /home/vazumah/.conda/envs/GPAW/lib/python3.10/site-packages/
        _gpaw.cpython-310-x86_64-linux-gnu.so
ase:    /home/vazumah/.conda/envs/GPAW/lib/python3.10/site-packages/ase (version 3.22.1)
numpy:  /home/vazumah/.conda/envs/GPAW/lib/python3.10/site-packages/numpy (version 1.24.1)
scipy:  /home/vazumah/.conda/envs/GPAW/lib/python3.10/site-packages/scipy (version 1.10.0)
libxc:  5.2.3
units:  Angstrom and eV
cores: 24
OpenMP: True
OMP_NUM_THREADS: 1

Input parameters:
  h: 0.16

System changes: positions, numbers, cell, pbc, initial_charges, initial_magmoms 

Initialize ...

species:
  Li:
    name: Lithium
    id: b73562207f97a71b6967473b66fe8b65
    Z: 3.0
    valence: 1
    core: 2
    charge: 0.0
    file: /home/vazumah/.conda/envs/GPAW/share/gpaw/Li.LDA.gz
    compensation charges: {type: gauss,
                           rc: 0.33,
                           lmax: 2}
    cutoffs: {filter: 1.91,
              core: 2.55}
    valence states:
      #              energy  rcut
      - 2s(1.00)    -2.874   1.058
      - 2p(0.00)    -1.126   1.058
      -  s          24.338   1.058
  
    # Using partial waves for Li as LCAO basis

  O:
    name: Oxygen
    id: 9b9d51c344dea68c822856295a461509
    Z: 8.0
    valence: 6
    core: 2
    charge: 0.0
    file: /home/vazumah/.conda/envs/GPAW/share/gpaw/O.LDA.gz
    compensation charges: {type: gauss,
                           rc: 0.21,
                           lmax: 2}
    cutoffs: {filter: 1.17,
              core: 0.83}
    valence states:
      #              energy  rcut
      - 2s(2.00)   -23.752   0.688
      - 2p(4.00)    -9.195   0.598
      -  s           3.459   0.688
      -  p          18.016   0.598
      -  d           0.000   0.619
  
    # Using partial waves for O as LCAO basis

  C:
    name: Carbon
    id: d60576a1f549371a163e72552ca58787
    Z: 6.0
    valence: 4
    core: 2
    charge: 0.0
    file: /home/vazumah/.conda/envs/GPAW/share/gpaw/C.LDA.gz
    compensation charges: {type: gauss,
                           rc: 0.20,
                           lmax: 2}
    cutoffs: {filter: 1.14,
              core: 1.14}
    valence states:
      #              energy  rcut
      - 2s(2.00)   -13.639   0.635
      - 2p(2.00)    -5.414   0.635
      -  s          13.573   0.635
      -  p          21.797   0.635
      -  d           0.000   0.635
  
    # Using partial waves for C as LCAO basis

  H:
    name: Hydrogen
    id: 4766778ce56282eaa64abeb28b7c1de3
    Z: 1.0
    valence: 1
    core: 0
    charge: 0.0
    file: /home/vazumah/.conda/envs/GPAW/share/gpaw/H.LDA.gz
    compensation charges: {type: gauss,
                           rc: 0.15,
                           lmax: 2}
    cutoffs: {filter: 0.85,
              core: 0.53}
    valence states:
      #              energy  rcut
      - 1s(1.00)    -6.353   0.476
      -  s          20.858   0.476
      -  p           0.000   0.476
  
    # Using partial waves for H as LCAO basis

  N:
    name: Nitrogen
    id: c467cdfa1b75f62c8f7a0469921b1cfb
    Z: 7.0
    valence: 5
    core: 2
    charge: 0.0
    file: /home/vazumah/.conda/envs/GPAW/share/gpaw/N.LDA.gz
    compensation charges: {type: gauss,
                           rc: 0.18,
                           lmax: 2}
    cutoffs: {filter: 1.11,
              core: 0.96}
    valence states:
      #              energy  rcut
      - 2s(2.00)   -18.420   0.603
      - 2p(3.00)    -7.237   0.529
      -  s           8.791   0.603
      -  p          19.974   0.529
      -  d           0.000   0.577
  
    # Using partial waves for N as LCAO basis

Reference energy: -14265.952424  # eV

Spin-paired calculation

Convergence criteria:
 Maximum [total energy] change in last 3 cyles: 0.0005 eV / electron
 Maximum integral of absolute [dens]ity change: 0.0001 electrons / valence electron
 Maximum integral of absolute [eigenst]ate change: 4e-08 eV^2 / valence electron
 Maximum number of scf [iter]ations: 333
 (Square brackets indicate name in SCF output, whereas a 'c' in
 the SCF output indicates the quantity has converged.)

Symmetries present (total): 1

  ( 1  0  0)
  ( 0  1  0)
  ( 0  0  1)

1 k-point (Gamma)
1 k-point in the irreducible part of the Brillouin zone
       k-points in crystal coordinates                weights
   0:     0.00000000    0.00000000    0.00000000          1/1

Wave functions: Uniform real-space grid
  Kinetic energy operator: 6*3+1=19 point O(h^6) finite-difference Laplacian
  ScaLapack parameters: grid=1x1, blocksize=None
  Wavefunction extrapolation:
    Improved wavefunction reuse through dual PAW basis 

Occupation numbers: Fermi-Dirac:
  width: 0.1000  # eV
 

Eigensolver
   Davidson(niter=2) 

Densities:
  Coarse grid: 60*60*156 grid
  Fine grid: 120*120*312 grid
  Total Charge: 0.000000 

Density mixing:
  Method: separate
  Backend: pulay
  Linear mixing parameter: 0.05
  old densities: 5
  Damping of long wavelength oscillations: 50 

Hamiltonian:
  XC and Coulomb potentials evaluated on a 120*120*312 grid
  Using the LDA Exchange-Correlation functional
  Interpolation: tri-quintic (5. degree polynomial)
  Poisson solver: FastPoissonSolver using
    Stencil: 6*3+1=19 point O(h^6) finite-difference Laplacian
    FFT axes: [0, 1]
    FST axes: [2]
 

Memory estimate:
  Process memory now: 235.62 MiB
  Calculator: 34.86 MiB
    Density: 14.67 MiB
      Arrays: 4.55 MiB
      Localized functions: 8.41 MiB
      Mixer: 1.72 MiB
    Hamiltonian: 3.64 MiB
      Arrays: 2.97 MiB
      XC: 0.00 MiB
      Poisson: 0.00 MiB
      vbar: 0.66 MiB
    Wavefunctions: 16.55 MiB
      Arrays psit_nG: 7.55 MiB
      Eigensolver: 8.56 MiB
      Projections: 0.00 MiB
      Projectors: 0.43 MiB

Total number of cores used: 24
Domain decomposition: 2 x 2 x 6

Number of atoms: 47
Number of atomic orbitals: 170
Number of bands in calculation: 44
Number of valence electrons: 66
Bands to converge: occupied

... initialized

Initializing position-dependent things.

Density initialized from atomic densities
Creating initial wave functions:
  44 bands from LCAO basis set

       .-----------------------.  
      /|                       |  
     / |                       |  
    /  |                       |  
   /   |                       |  
  /    |                     H |  
 *     |                 H     |  
 |     |                       |  
 |     |             H         |  
 |     |            H C  H     |  
 |     |                       |  
 |     |              C        |  
 |     Li      Li    H O       |  
 |     |                       |  
 |   Li|     Li      Li        |  
 |     |  Li      Li      Li   |  
 |     |   Li      LiN    Li   |  
 |     |Li      LiLi   NLi     |  
 |     |                       |  
 |   LLi     LLi     LLi       |  
 |     |  Li      Li      Li   |  
 | Li  |   Li      Li          |  
 |     |Li      Li      Li     |  
 Li    | Li      Li            |  
 |    Li      Li      Li       |  
 |     |                       |  
 |     |                       |  
 |     |                       |  
 |     |                       |  
 |     |                       |  
 |     |                       |  
 |     .-----------------------.  
 |    /                       /   
 |   /                       /    
 |  /                       /     
 | /                       /      
 |/                       /       
 *-----------------------*        

Positions:
   0 Li     1.617037    1.617037   10.000000    ( 0.0000,  0.0000,  0.0000)
   1 Li     4.851111    1.617037   10.000000    ( 0.0000,  0.0000,  0.0000)
   2 Li     8.085185    1.617037   10.000000    ( 0.0000,  0.0000,  0.0000)
   3 Li     1.617037    4.851111   10.000000    ( 0.0000,  0.0000,  0.0000)
   4 Li     4.851111    4.851111   10.000000    ( 0.0000,  0.0000,  0.0000)
   5 Li     8.085185    4.851111   10.000000    ( 0.0000,  0.0000,  0.0000)
   6 Li     1.617037    8.085185   10.000000    ( 0.0000,  0.0000,  0.0000)
   7 Li     4.851111    8.085185   10.000000    ( 0.0000,  0.0000,  0.0000)
   8 Li     8.085185    8.085185   10.000000    ( 0.0000,  0.0000,  0.0000)
   9 Li     0.000000    0.000000   11.617037    ( 0.0000,  0.0000,  0.0000)
  10 Li     3.234074    0.000000   11.617037    ( 0.0000,  0.0000,  0.0000)
  11 Li     6.468148    0.000000   11.617037    ( 0.0000,  0.0000,  0.0000)
  12 Li     0.000000    3.234074   11.617037    ( 0.0000,  0.0000,  0.0000)
  13 Li     3.234074    3.234074   11.617037    ( 0.0000,  0.0000,  0.0000)
  14 Li     6.468148    3.234074   11.617037    ( 0.0000,  0.0000,  0.0000)
  15 Li     0.000000    6.468148   11.617037    ( 0.0000,  0.0000,  0.0000)
  16 Li     3.234074    6.468148   11.617037    ( 0.0000,  0.0000,  0.0000)
  17 Li     6.468148    6.468148   11.617037    ( 0.0000,  0.0000,  0.0000)
  18 Li     1.596868    1.576436   13.495006    ( 0.0000,  0.0000,  0.0000)
  19 Li     4.855589    1.671186   13.501169    ( 0.0000,  0.0000,  0.0000)
  20 Li     8.078552    1.622111   13.541613    ( 0.0000,  0.0000,  0.0000)
  21 Li     1.564720    4.786416   13.495108    ( 0.0000,  0.0000,  0.0000)
  22 Li     4.807581    4.893575   13.500221    ( 0.0000,  0.0000,  0.0000)
  23 Li     8.039536    4.851282   13.501718    ( 0.0000,  0.0000,  0.0000)
  24 Li     1.663295    8.033753   13.477357    ( 0.0000,  0.0000,  0.0000)
  25 Li     4.902965    8.136161   13.485114    ( 0.0000,  0.0000,  0.0000)
  26 Li     8.130489    8.112267   13.500550    ( 0.0000,  0.0000,  0.0000)
  27 Li     0.115660   -0.134615   15.468680    ( 0.0000,  0.0000,  0.0000)
  28 Li     3.355163   -0.049640   15.402409    ( 0.0000,  0.0000,  0.0000)
  29 Li     6.702563    0.219824   15.536280    ( 0.0000,  0.0000,  0.0000)
  30 Li    -0.261690    2.945731   15.602072    ( 0.0000,  0.0000,  0.0000)
  31 Li     3.071855    3.274459   15.458029    ( 0.0000,  0.0000,  0.0000)
  32 Li     6.336901    3.351643   15.485708    ( 0.0000,  0.0000,  0.0000)
  33 Li     0.053745    6.336049   15.406003    ( 0.0000,  0.0000,  0.0000)
  34 Li     3.243940    6.465300   15.468751    ( 0.0000,  0.0000,  0.0000)
  35 Li     6.423098    6.624665   15.450699    ( 0.0000,  0.0000,  0.0000)
  36 O      8.553580    1.315166   19.157653    ( 0.0000,  0.0000,  0.0000)
  37 C      8.253790    0.600377   20.366994    ( 0.0000,  0.0000,  0.0000)
  38 C      8.117250    1.512262   21.577643    ( 0.0000,  0.0000,  0.0000)
  39 H      7.348780   -0.008899   20.237138    ( 0.0000,  0.0000,  0.0000)
  40 H      9.093331   -0.084993   20.506870    ( 0.0000,  0.0000,  0.0000)
  41 H      7.908708    0.922185   22.472448    ( 0.0000,  0.0000,  0.0000)
  42 H      9.038535    2.076708   21.732404    ( 0.0000,  0.0000,  0.0000)
  43 H      7.296333    2.222835   21.449697    ( 0.0000,  0.0000,  0.0000)
  44 H      7.796626    1.875518   18.942590    ( 0.0000,  0.0000,  0.0000)
  45 N      8.504318    1.144280   15.533057    ( 0.0000,  0.0000,  0.0000)
  46 N      7.618164    2.037130   15.557112    ( 0.0000,  0.0000,  0.0000)

Unit cell:
           periodic     x           y           z      points  spacing
  1. axis:    yes    9.702222    0.000000    0.000000    60     0.1617
  2. axis:    yes    0.000000    9.702222    0.000000    60     0.1617
  3. axis:    no     0.000000    0.000000   24.851111   156     0.1593

  Lengths:   9.702222   9.702222  24.851111
  Angles:   90.000000  90.000000  90.000000

Effective grid spacing dv^(1/3) = 0.1609

     iter     time        total  log10-change:
                         energy  eigst   dens
iter:   1 17:24:32  -215.154838
iter:   2 17:24:57   -79.924460  +1.66  -0.18
iter:   3 17:25:22   -65.800775  +3.04  -0.37
iter:   4 17:25:46   -86.177787  +2.32  -0.51
iter:   5 17:26:13  -101.521861  +2.13  -0.69
