
  ___ ___ ___ _ _ _  
 |   |   |_  | | | | 
 | | | | | . | | | | 
 |__ |  _|___|_____|  22.8.0
 |___|_|             

User:   vazumah@f009
Date:   Tue Feb 28 01:20:14 2023
Arch:   x86_64
Pid:    44468
CWD:    /home/vazumah/Research_Projects/LiMEAS/LiNRR_proton_donors/N2_with_proton_donor/Li_BCC_100/adsorbates/CH3CH2OH_z_recalcs/ontop/9.702_9.702/N2_y
Python: 3.10.6
gpaw:   /home/vazumah/anaconda3/envs/NAME/lib/python3.10/site-packages/gpaw
_gpaw:  /home/vazumah/anaconda3/envs/NAME/lib/python3.10/site-packages/
        _gpaw.cpython-310-x86_64-linux-gnu.so
ase:    /home/vazumah/anaconda3/envs/NAME/lib/python3.10/site-packages/ase (version 3.22.1)
numpy:  /home/vazumah/anaconda3/envs/NAME/lib/python3.10/site-packages/numpy (version 1.23.3)
scipy:  /home/vazumah/anaconda3/envs/NAME/lib/python3.10/site-packages/scipy (version 1.9.1)
libxc:  5.2.3
units:  Angstrom and eV
cores: 32
OpenMP: True
OMP_NUM_THREADS: 1

Input parameters:
  h: 0.16
  kpts: {size: [4, 4, 1]}
  occupations: {name: fermi-dirac,
                width: 0.05}
  poissonsolver: {dipolelayer: xy}
  xc: BEEF-vdW

System changes: positions, numbers, cell, pbc, initial_charges, initial_magmoms 

Initialize ...

species:
  Li:
    name: Lithium
    id: 830b4218f175192f93f959cfc0aad614
    Z: 3.0
    valence: 1
    core: 2
    charge: 0.0
    file: /home/vazumah/anaconda3/envs/NAME/share/gpaw/Li.PBE.gz
    compensation charges: {type: gauss,
                           rc: 0.33,
                           lmax: 2}
    cutoffs: {filter: 1.91,
              core: 2.55}
    valence states:
      #              energy  rcut
      - 2s(1.00)    -2.874   1.058
      - 2p(0.00)    -1.090   1.058
      -  s          24.337   1.058
  
    # Using partial waves for Li as LCAO basis

  O:
    name: Oxygen
    id: 32ecd46bf208036f09c70b0ec9a88b78
    Z: 8.0
    valence: 6
    core: 2
    charge: 0.0
    file: /home/vazumah/anaconda3/envs/NAME/share/gpaw/O.PBE.gz
    compensation charges: {type: gauss,
                           rc: 0.21,
                           lmax: 2}
    cutoffs: {filter: 1.17,
              core: 0.83}
    valence states:
      #              energy  rcut
      - 2s(2.00)   -23.961   0.688
      - 2p(4.00)    -9.029   0.598
      -  s           3.251   0.688
      -  p          18.182   0.598
      -  d           0.000   0.619
  
    # Using partial waves for O as LCAO basis

  C:
    name: Carbon
    id: 4aa54d4b901d75f77cc0ea3eec22967b
    Z: 6.0
    valence: 4
    core: 2
    charge: 0.0
    file: /home/vazumah/anaconda3/envs/NAME/share/gpaw/C.PBE.gz
    compensation charges: {type: gauss,
                           rc: 0.20,
                           lmax: 2}
    cutoffs: {filter: 1.14,
              core: 1.14}
    valence states:
      #              energy  rcut
      - 2s(2.00)   -13.751   0.635
      - 2p(2.00)    -5.284   0.635
      -  s          13.461   0.635
      -  p          21.927   0.635
      -  d           0.000   0.635
  
    # Using partial waves for C as LCAO basis

  H:
    name: Hydrogen
    id: d65de229564ff8ea4db303e23b6d1ecf
    Z: 1.0
    valence: 1
    core: 0
    charge: 0.0
    file: /home/vazumah/anaconda3/envs/NAME/share/gpaw/H.PBE.gz
    compensation charges: {type: gauss,
                           rc: 0.15,
                           lmax: 2}
    cutoffs: {filter: 0.85,
              core: 0.53}
    valence states:
      #              energy  rcut
      - 1s(1.00)    -6.494   0.476
      -  s          20.717   0.476
      -  p           0.000   0.476
  
    # Using partial waves for H as LCAO basis

  N:
    name: Nitrogen
    id: f7500608b86eaa90eef8b1d9a670dc53
    Z: 7.0
    valence: 5
    core: 2
    charge: 0.0
    file: /home/vazumah/anaconda3/envs/NAME/share/gpaw/N.PBE.gz
    compensation charges: {type: gauss,
                           rc: 0.18,
                           lmax: 2}
    cutoffs: {filter: 1.11,
              core: 0.96}
    valence states:
      #              energy  rcut
      - 2s(2.00)   -18.583   0.603
      - 2p(3.00)    -7.089   0.529
      -  s           8.629   0.603
      -  p          20.123   0.529
      -  d           0.000   0.577
  
    # Using partial waves for N as LCAO basis

Reference energy: -14434.854043  # eV

Spin-paired calculation

Convergence criteria:
 Maximum [total energy] change in last 3 cyles: 0.0005 eV / electron
 Maximum integral of absolute [dens]ity change: 0.0001 electrons / valence electron
 Maximum integral of absolute [eigenst]ate change: 4e-08 eV^2 / valence electron
 Maximum number of scf [iter]ations: 333
 (Square brackets indicate name in SCF output, whereas a 'c' in
 the SCF output indicates the quantity has converged.)

Symmetries present (total): 1

  ( 1  0  0)
  ( 0  1  0)
  ( 0  0  1)

16 k-points: 4 x 4 x 1 Monkhorst-Pack grid
8 k-points in the irreducible part of the Brillouin zone
       k-points in crystal coordinates                weights
   0:     0.12500000   -0.37500000    0.00000000          2/16
   1:     0.12500000   -0.12500000    0.00000000          2/16
   2:     0.12500000    0.12500000    0.00000000          2/16
   3:     0.12500000    0.37500000    0.00000000          2/16
   4:     0.37500000   -0.37500000    0.00000000          2/16
   5:     0.37500000   -0.12500000    0.00000000          2/16
   6:     0.37500000    0.12500000    0.00000000          2/16
   7:     0.37500000    0.37500000    0.00000000          2/16

Wave functions: Uniform real-space grid
  Kinetic energy operator: 6*3+1=19 point O(h^6) finite-difference Laplacian
  ScaLapack parameters: grid=1x1, blocksize=None
  Wavefunction extrapolation:
    Improved wavefunction reuse through dual PAW basis 

Occupation numbers: Fermi-Dirac:
  width: 0.0500  # eV
 

Eigensolver
   Davidson(niter=2) 

Densities:
  Coarse grid: 60*60*164 grid
  Fine grid: 120*120*328 grid
  Total Charge: 0.000000 

Density mixing:
  Method: separate
  Backend: pulay
  Linear mixing parameter: 0.05
  old densities: 5
  Damping of long wavelength oscillations: 50 

Hamiltonian:
  XC and Coulomb potentials evaluated on a 120*120*328 grid
  Using the BEEF-vdW Exchange-Correlation functional
  Interpolation: tri-quintic (5. degree polynomial)
  Poisson solver: FastPoissonSolver using
    Stencil: 6*3+1=19 point O(h^6) finite-difference Laplacian
    FFT axes: [0, 1]
    FST axes: [2]

Dipole correction along z-axis 

XC parameters: BEEF-vdW with 2 nearest neighbor stencil

Memory estimate:
  Process memory now: 218.86 MiB
  Calculator: 320.00 MiB
    Density: 89.88 MiB
      Arrays: 28.89 MiB
      Localized functions: 50.00 MiB
      Mixer: 10.99 MiB
    Hamiltonian: 22.85 MiB
      Arrays: 18.90 MiB
      XC: 0.00 MiB
      Poisson: 0.00 MiB
      vbar: 3.95 MiB
    Wavefunctions: 207.27 MiB
      Arrays psit_nG: 96.68 MiB
      Eigensolver: 107.96 MiB
      Projections: 0.05 MiB
      Projectors: 2.58 MiB

Total number of cores used: 32
Parallelization over k-points: 8
Domain decomposition: 1 x 1 x 4

Number of atoms: 47
Number of atomic orbitals: 170
Number of bands in calculation: 44
Number of valence electrons: 66
Bands to converge: occupied

... initialized

Initializing position-dependent things.

Density initialized from atomic densities
Creating initial wave functions:
  44 bands from LCAO basis set

       .-----------------------.  
      /|                       |  
     / H                       |  
    /  |                       |  
   /   |                       |  
  /    |H                   H C|  
 *     |                       |  
 |     |                       |  
 |     |               H       |  
 C  H  |                       |  
 |     |                       |  
 |     |                       N  
 O     |               H       |  
 |     |                       |  
 |     |                       |  
 |   Li|     Li      Li        |  
 |     |                       |  
 | Li  |  LLi     LLi     Ni   |  
 |     |                       |  
 Li    |LLi     LLi     Li     |  
 |   Li|     Li      Li        |  
 |    Li  Li  Li  Li  Li  Li   |  
 | Li  |   Li      Li          |  
 |     |Li      Li      Li     |  
 Li    | Li      Li            |  
 |    Li      Li      Li       |  
 |     |                       |  
 |     |                       |  
 |     |                       |  
 |     |                       |  
 |     |                       |  
 |     |                       |  
 |     .-----------------------.  
 |    /                       /   
 |   /                       /    
 |  /                       /     
 | /                       /      
 |/                       /       
 *-----------------------*        

Positions:
   0 Li     1.617037    1.617037   10.000000    ( 0.0000,  0.0000,  0.0000)
   1 Li     4.851111    1.617037   10.000000    ( 0.0000,  0.0000,  0.0000)
   2 Li     8.085185    1.617037   10.000000    ( 0.0000,  0.0000,  0.0000)
   3 Li     1.617037    4.851111   10.000000    ( 0.0000,  0.0000,  0.0000)
   4 Li     4.851111    4.851111   10.000000    ( 0.0000,  0.0000,  0.0000)
   5 Li     8.085185    4.851111   10.000000    ( 0.0000,  0.0000,  0.0000)
   6 Li     1.617037    8.085185   10.000000    ( 0.0000,  0.0000,  0.0000)
   7 Li     4.851111    8.085185   10.000000    ( 0.0000,  0.0000,  0.0000)
   8 Li     8.085185    8.085185   10.000000    ( 0.0000,  0.0000,  0.0000)
   9 Li     0.000000    0.000000   11.617037    ( 0.0000,  0.0000,  0.0000)
  10 Li     3.234074    0.000000   11.617037    ( 0.0000,  0.0000,  0.0000)
  11 Li     6.468148    0.000000   11.617037    ( 0.0000,  0.0000,  0.0000)
  12 Li     0.000000    3.234074   11.617037    ( 0.0000,  0.0000,  0.0000)
  13 Li     3.234074    3.234074   11.617037    ( 0.0000,  0.0000,  0.0000)
  14 Li     6.468148    3.234074   11.617037    ( 0.0000,  0.0000,  0.0000)
  15 Li     0.000000    6.468148   11.617037    ( 0.0000,  0.0000,  0.0000)
  16 Li     3.234074    6.468148   11.617037    ( 0.0000,  0.0000,  0.0000)
  17 Li     6.468148    6.468148   11.617037    ( 0.0000,  0.0000,  0.0000)
  18 Li     1.617038    1.617038   13.469728    ( 0.0000,  0.0000,  0.0000)
  19 Li     4.851111    1.617038   13.469729    ( 0.0000,  0.0000,  0.0000)
  20 Li     8.085184    1.617038   13.469728    ( 0.0000,  0.0000,  0.0000)
  21 Li     1.617038    4.851111   13.469729    ( 0.0000,  0.0000,  0.0000)
  22 Li     4.851111    4.851111   13.469730    ( 0.0000,  0.0000,  0.0000)
  23 Li     8.085184    4.851111   13.469729    ( 0.0000,  0.0000,  0.0000)
  24 Li     1.617038    8.085184   13.469728    ( 0.0000,  0.0000,  0.0000)
  25 Li     4.851111    8.085184   13.469729    ( 0.0000,  0.0000,  0.0000)
  26 Li     8.085184    8.085184   13.469728    ( 0.0000,  0.0000,  0.0000)
  27 Li    -0.000000   -0.000000   15.445939    ( 0.0000,  0.0000,  0.0000)
  28 Li     3.234074    0.000000   15.445939    ( 0.0000,  0.0000,  0.0000)
  29 Li     6.468148    0.000000   15.445939    ( 0.0000,  0.0000,  0.0000)
  30 Li     0.000000    3.234074   15.445939    ( 0.0000,  0.0000,  0.0000)
  31 Li     3.234076    3.234076   15.445938    ( 0.0000,  0.0000,  0.0000)
  32 Li     6.468146    3.234076   15.445938    ( 0.0000,  0.0000,  0.0000)
  33 Li     0.000000    6.468148   15.445939    ( 0.0000,  0.0000,  0.0000)
  34 Li     3.234076    6.468146   15.445938    ( 0.0000,  0.0000,  0.0000)
  35 Li     6.468146    6.468146   15.445938    ( 0.0000,  0.0000,  0.0000)
  36 O      9.702222    9.702222   21.445939    ( 0.0000,  0.0000,  0.0000)
  37 C      9.697924    8.885465   22.628347    ( 0.0000,  0.0000,  0.0000)
  38 C      9.712457    9.705083   23.912561    ( 0.0000,  0.0000,  0.0000)
  39 H      8.837764    8.201929   22.619724    ( 0.0000,  0.0000,  0.0000)
  40 H     10.600719    8.275739   22.552958    ( 0.0000,  0.0000,  0.0000)
  41 H      9.727892    9.051137   24.789488    ( 0.0000,  0.0000,  0.0000)
  42 H     10.589275   10.354106   23.947273    ( 0.0000,  0.0000,  0.0000)
  43 H      8.819896   10.333571   23.982749    ( 0.0000,  0.0000,  0.0000)
  44 H      8.933997   10.285199   21.485106    ( 0.0000,  0.0000,  0.0000)
  45 N      9.702000    9.702000   16.945939    ( 0.0000,  0.0000,  0.0000)
  46 N      9.702000   10.798622   16.945939    ( 0.0000,  0.0000,  0.0000)

Unit cell:
           periodic     x           y           z      points  spacing
  1. axis:    yes    9.702222    0.000000    0.000000    60     0.1617
  2. axis:    yes    0.000000    9.702222    0.000000    60     0.1617
  3. axis:    no     0.000000    0.000000   26.351111   164     0.1607

  Lengths:   9.702222   9.702222  26.351111
  Angles:   90.000000  90.000000  90.000000

Effective grid spacing dv^(1/3) = 0.1614

     iter     time        total  log10-change:
                         energy  eigst   dens
iter:   1 01:21:10  -623.965556
iter:   2 01:21:40   -34.755692  +2.55  +0.01
iter:   3 01:22:10   169.384338  +3.03  -0.16
iter:   4 01:22:58    66.683548  +3.16  -0.19
Writing to output.gpw (mode='')

iter:   5 01:23:39  -233.982377  +3.12  -0.20
iter:   6 01:24:12  -367.972615  +2.82  -0.32
iter:   7 01:24:47  -332.671328  +2.43  -0.32
iter:   8 01:25:19  -351.627388  +2.28  -0.42
iter:   9 01:25:50  -439.257006  +2.39  -0.37
Writing to output.gpw (mode='')

iter:  10 01:26:23  -339.056565  +1.90  -0.29
iter:  11 01:26:55  -328.609026  +1.67  -0.55
iter:  12 01:27:29  -324.071003  +1.68  -0.65
iter:  13 01:28:03  -323.110698  +1.40  -0.62
iter:  14 01:28:35  -325.329374  +1.14  -0.59
Writing to output.gpw (mode='')

iter:  15 01:29:17  -319.752715  +0.42  -0.63
iter:  16 01:30:03  -341.169375  +1.40  -0.67
iter:  17 01:30:52  -313.912236  +1.09  -0.45
iter:  18 01:31:50  -309.545715  +0.57  -0.72
iter:  19 01:32:26  -308.318544  +0.66  -0.83
Writing to output.gpw (mode='')

iter:  20 01:32:56  -308.385515  +0.60  -0.94
iter:  21 01:33:25  -307.518542  +0.50  -1.00
iter:  22 01:34:05  -308.077686  +0.41  -1.20
iter:  23 01:35:05  -307.508022  -0.28  -1.01
iter:  24 01:36:02  -307.574514  -0.19  -1.11
Writing to output.gpw (mode='')

iter:  25 01:37:00  -307.007323  -0.67  -1.13
iter:  26 01:37:59  -306.766269  +0.27  -1.23
iter:  27 01:38:52  -306.652549  -0.72  -1.35
iter:  28 01:39:21  -306.587926  -0.78  -1.54
iter:  29 01:39:52  -306.657659  -0.35  -1.80
Writing to output.gpw (mode='')

iter:  30 01:40:23  -306.598527  -1.30  -1.64
iter:  31 01:40:53  -306.601984  -1.12  -1.92
iter:  32 01:41:34  -306.606376c -1.50  -2.03
iter:  33 01:42:21  -306.609901c -1.53  -2.19
iter:  34 01:42:51  -306.610861c -1.60  -2.19
Writing to output.gpw (mode='')

iter:  35 01:43:20  -306.613454c -1.85  -2.21
iter:  36 01:43:50  -306.614037c -1.82  -2.27
iter:  37 01:44:21  -306.618422c -1.99  -2.37
iter:  38 01:44:50  -306.621867c -1.84  -2.45
iter:  39 01:45:21  -306.623216c -2.01  -2.65
Writing to output.gpw (mode='')

iter:  40 01:45:51  -306.624375c -2.09  -2.71
iter:  41 01:46:21  -306.625458c -2.12  -2.81
iter:  42 01:46:52  -306.626297c -2.27  -2.78
iter:  43 01:47:23  -306.627105c -2.25  -2.78
iter:  44 01:47:54  -306.628230c -2.32  -2.76
Writing to output.gpw (mode='')

iter:  45 01:48:24  -306.628726c -2.33  -2.70
iter:  46 01:48:54  -306.629390c -2.36  -2.77
iter:  47 01:49:24  -306.629951c -2.56  -2.80
iter:  48 01:49:54  -306.630489c -2.51  -2.77
iter:  49 01:50:25  -306.630934c -2.66  -2.70
Writing to output.gpw (mode='')

iter:  50 01:50:55  -306.631423c -2.49  -2.72
iter:  51 01:51:24  -306.631842c -2.55  -2.73
iter:  52 01:51:54  -306.632071c -2.76  -2.76
iter:  53 01:52:24  -306.632155c -2.75  -2.74
iter:  54 01:52:54  -306.632819c -2.76  -2.73
Writing to output.gpw (mode='')

iter:  55 01:53:24  -306.633144c -2.72  -2.72
iter:  56 01:53:55  -306.632976c -2.84  -2.66
iter:  57 01:54:24  -306.633315c -2.91  -2.69
iter:  58 01:54:54  -306.633577c -3.00  -2.74
iter:  59 01:55:24  -306.633728c -2.87  -2.73
Writing to output.gpw (mode='')

iter:  60 01:55:54  -306.633750c -3.01  -2.77
iter:  61 01:56:24  -306.633960c -3.21  -2.77
iter:  62 01:56:54  -306.633920c -3.11  -2.76
iter:  63 01:57:24  -306.633944c -3.02  -2.76
iter:  64 01:58:06  -306.633982c -3.29  -2.88
Writing to output.gpw (mode='')

iter:  65 01:58:39  -306.634352c -3.13  -2.80
iter:  66 01:59:38  -306.634505c -3.31  -2.89
iter:  67 02:01:03  -306.634483c -3.17  -2.88
iter:  68 02:03:07  -306.634612c -3.09  -2.86
iter:  69 02:03:53  -306.634639c -3.32  -2.89
Writing to output.gpw (mode='')

iter:  70 02:04:39  -306.634651c -3.28  -2.98
iter:  71 02:07:42  -306.634791c -3.46  -3.19
iter:  72 02:08:46  -306.634726c -3.65  -3.23
iter:  73 02:09:37  -306.634745c -3.62  -3.41
iter:  74 02:10:38  -306.634767c -3.54  -3.43
Writing to output.gpw (mode='')

iter:  75 02:11:37  -306.634787c -3.72  -3.49
iter:  76 02:12:30  -306.634806c -3.85  -3.54
iter:  77 02:14:27  -306.634826c -3.75  -3.58
iter:  78 02:16:18  -306.634839c -3.86  -3.65
iter:  79 02:18:18  -306.634855c -4.09  -3.85
Writing to output.gpw (mode='')

iter:  80 02:20:25  -306.634867c -4.14  -3.96
iter:  81 02:22:26  -306.634877c -4.04  -3.95
iter:  82 02:24:37  -306.634897c -3.91  -3.93
iter:  83 02:26:23  -306.634905c -4.18  -3.98
iter:  84 02:27:46  -306.634909c -4.12  -3.94
Writing to output.gpw (mode='')

iter:  85 02:29:11  -306.634916c -4.09  -4.01c
iter:  86 02:30:18  -306.634925c -4.37  -4.07c
iter:  87 02:31:33  -306.634931c -4.23  -4.05c
iter:  88 02:32:52  -306.634928c -4.33  -4.04c
iter:  89 02:35:44  -306.634935c -4.58  -3.94
Writing to output.gpw (mode='')

iter:  90 02:37:58  -306.634941c -4.54  -3.97
iter:  91 02:40:46  -306.634945c -4.51  -3.97
iter:  92 02:43:02  -306.634945c -4.45  -3.85
iter:  93 02:45:14  -306.634947c -4.54  -3.88
iter:  94 02:47:14  -306.634952c -4.62  -3.87
Writing to output.gpw (mode='')

iter:  95 02:51:09  -306.634971c -4.63  -3.88
iter:  96 02:54:33  -306.634978c -4.52  -3.91
iter:  97 02:59:20  -306.634984c -4.34  -3.97
iter:  98 03:02:58  -306.634980c -4.73  -4.07c
iter:  99 03:07:31  -306.634984c -4.72  -4.11c
Writing to output.gpw (mode='')

iter: 100 03:11:08  -306.634987c -4.75  -4.13c
iter: 101 03:15:41  -306.634989c -4.68  -4.16c
iter: 102 03:20:08  -306.634989c -4.94  -4.21c
iter: 103 03:22:37  -306.634987c -5.10  -4.24c
iter: 104 03:27:31  -306.634985c -5.16  -4.41c
Writing to output.gpw (mode='')

iter: 105 03:33:24  -306.634986c -5.19  -4.63c
iter: 106 03:39:34  -306.634987c -5.20  -4.71c
iter: 107 03:46:08  -306.634989c -4.99  -4.74c
iter: 108 03:53:34  -306.634990c -5.00  -4.82c
iter: 109 04:01:30  -306.634991c -5.23  -5.02c
Writing to output.gpw (mode='')

iter: 110 04:08:48  -306.634991c -5.22  -5.05c
iter: 111 04:16:29  -306.634992c -5.21  -5.06c
iter: 112 04:24:05  -306.634992c -5.43  -5.04c
iter: 113 04:32:04  -306.634992c -5.43  -4.96c
iter: 114 04:39:21  -306.634993c -5.55  -4.91c
Writing to output.gpw (mode='')

iter: 115 04:45:40  -306.634992c -5.50  -4.93c
iter: 116 04:53:32  -306.634994c -5.53  -4.87c
iter: 117 05:01:25  -306.634994c -5.57  -5.00c
iter: 118 05:08:30  -306.634995c -5.58  -4.85c
iter: 119 05:14:23  -306.634995c -5.77  -5.05c
Writing to output.gpw (mode='')

iter: 120 05:19:43  -306.634995c -5.53  -4.90c
iter: 121 05:26:34  -306.634996c -5.49  -5.13c
iter: 122 05:33:55  -306.634996c -5.58  -5.27c
iter: 123 05:40:25  -306.634996c -5.72  -5.34c
iter: 124 05:49:52  -306.634996c -5.88  -5.50c
Writing to output.gpw (mode='')

iter: 125 05:57:20  -306.634996c -5.84  -5.61c
iter: 126 06:03:24  -306.634997c -5.78  -5.64c
iter: 127 06:10:13  -306.634997c -5.72  -5.64c
iter: 128 06:16:09  -306.634997c -5.84  -5.71c
iter: 129 06:22:15  -306.634997c -5.90  -5.76c
Writing to output.gpw (mode='')

iter: 130 06:26:59  -306.634997c -5.89  -5.83c
iter: 131 06:31:20  -306.634997c -5.84  -5.85c
iter: 132 06:34:36  -306.634997c -5.98  -5.90c
iter: 133 06:39:17  -306.634997c -5.96  -5.93c
iter: 134 06:46:32  -306.634997c -6.27  -5.91c
Writing to output.gpw (mode='')

iter: 135 06:53:27  -306.634997c -6.23  -5.86c
iter: 136 07:00:57  -306.634997c -6.20  -5.82c
iter: 137 07:09:52  -306.634997c -6.51  -5.78c
iter: 138 07:17:59  -306.634997c -6.45  -5.67c
iter: 139 07:26:40  -306.634997c -6.42  -5.72c
Writing to output.gpw (mode='')

iter: 140 07:35:21  -306.634997c -6.40  -5.73c
iter: 141 07:41:57  -306.634997c -6.66  -5.71c
iter: 142 07:49:22  -306.634997c -6.43  -5.67c
iter: 143 07:58:18  -306.634997c -6.81  -5.62c
iter: 144 08:06:09  -306.634997c -6.81  -5.47c
Writing to output.gpw (mode='')

iter: 145 08:12:45  -306.634997c -6.96  -5.58c
iter: 146 08:17:51  -306.634997c -6.96  -5.57c
iter: 147 08:24:56  -306.634997c -6.93  -5.54c
iter: 148 08:32:42  -306.634997c -6.73  -5.59c
iter: 149 08:38:14  -306.634997c -6.78  -5.73c
Writing to output.gpw (mode='')

iter: 150 08:44:07  -306.634997c -6.75  -5.81c
iter: 151 08:49:31  -306.634997c -7.08  -5.94c
iter: 152 08:54:05  -306.634997c -7.13  -6.14c
iter: 153 08:59:02  -306.634997c -7.10  -6.23c
iter: 154 09:03:55  -306.634997c -7.24  -6.34c
Writing to output.gpw (mode='')

iter: 155 09:09:51  -306.634997c -7.22  -6.40c
iter: 156 09:17:42  -306.634997c -7.17  -6.41c
iter: 157 09:26:12  -306.634997c -7.26  -6.45c
iter: 158 09:35:18  -306.634997c -7.35  -6.51c
iter: 159 09:40:05  -306.634997c -7.57c -6.51c

Converged after 159 iterations.

Dipole moment: (-21.353970, -13.982222, 0.388263) |e|*Ang

Energy contributions relative to reference atoms: (reference = -14434.854043)

Kinetic:       +166.839799
Potential:     -156.543297
External:        +0.000000
XC:            -317.652025
Entropy (-ST):   -0.147789
Local:           +0.794420
--------------------------
Free energy:   -306.708892
Extrapolated:  -306.634997

Dipole-layer corrected work functions: 3.401526, 2.655152 eV

Showing only first 2 kpts
 Kpt  Band  Eigenvalues  Occupancy
  0    31     -3.28476    1.98822
  0    32     -3.22173    1.95905
  0    33     -2.85789    0.06403
  0    34     -2.83269    0.03918

  1    31     -3.07595    1.44312
  1    32     -3.02929    1.00949
  1    33     -2.98579    0.59847
  1    34     -2.92539    0.22629


Fermi level: -3.02834

Gap: 0.004 eV
Transition (v -> c):
  (s=0, k=1, n=32, [0.12, -0.12, 0.00]) -> (s=0, k=4, n=33, [0.38, -0.38, 0.00])
Writing to output.gpw (mode='')


Forces in eV/Ang:
  0 Li    0.01250    0.00851   -0.27044
  1 Li    0.00007    0.00188   -0.27186
  2 Li   -0.01259    0.00846   -0.27053
  3 Li   -0.00657    0.00698   -0.26409
  4 Li    0.00002   -0.00379   -0.28687
  5 Li    0.00654    0.00700   -0.26442
  6 Li    0.00368   -0.01686   -0.27522
  7 Li    0.00010    0.00920   -0.26577
  8 Li   -0.00375   -0.01684   -0.27530
  9 Li   -0.00014   -0.00339    0.32774
 10 Li    0.01094    0.00561    0.25868
 11 Li   -0.01083    0.00565    0.25809
 12 Li   -0.00001    0.02271    0.24972
 13 Li   -0.00066   -0.00420    0.26047
 14 Li    0.00076   -0.00423    0.26028
 15 Li    0.00009   -0.00648    0.25075
 16 Li    0.01252   -0.00594    0.24835
 17 Li   -0.01262   -0.00591    0.24870
 18 Li   -0.02286    0.00621   -0.02409
 19 Li    0.00008   -0.01046    0.06859
 20 Li    0.02274    0.00600   -0.02352
 21 Li   -0.00827   -0.00006    0.06574
 22 Li   -0.00043   -0.00108    0.01271
 23 Li    0.00862   -0.00006    0.06598
 24 Li    0.01830   -0.01020   -0.02993
 25 Li    0.00001    0.00633    0.07181
 26 Li   -0.01834   -0.01000   -0.02945
 27 Li    0.00228   -0.64322   -7.75808
 28 Li    0.11153   -0.02010   -0.06665
 29 Li   -0.11228   -0.02025   -0.07147
 30 Li   -0.00028   -0.15115    0.09607
 31 Li    0.04981    0.04180   -0.04592
 32 Li   -0.04998    0.04198   -0.04837
 33 Li   -0.00039   -0.03742   -0.02574
 34 Li    0.00223   -0.01242   -0.03371
 35 Li   -0.00186   -0.01235   -0.03412
 36 O     0.01120   -0.03654   -0.00466
 37 C     0.00162    0.10394    0.00204
 38 C     0.00550   -0.22846    0.00762
 39 H     0.00971    0.02798   -0.01434
 40 H    -0.00860    0.00111   -0.01012
 41 H    -0.01222    0.16439   -0.54890
 42 H    -0.00407   -0.00738   -0.03156
 43 H    -0.00276   -0.00375   -0.01410
 44 H    -0.00008   -0.01279   -0.02047
 45 N    -0.00365   -5.01914    7.09249
 46 N     0.00173    5.78618    0.86988

System changes: positions 

Initializing position-dependent things.

Density initialized from wave functions
       .-----------------------.  
      /|                       |  
     / H                       |  
    /  |                       |  
   /   |                       |  
  /    |H                   H C|  
 *     O                       |  
 |     |                       |  
 |     |               H       |  
 C  H  |                       |  
 |     |                       |  
 |     |                       N  
 |     |               H       |  
 |     Li      Li      Li      |  
 |     |                       |  
 |     |     Li      Li      Li|  
 |     |                       |  
 |     |  LLi     LLi     NLi  |  
 |     |                       |  
 |     |Li      Li      Li     |  
 |   Li|     Li      Li        |  
 |    Li  Li  Li  Li  Li  Li   |  
 | Li  |   Li      Li          |  
 |     |Li      Li      Li     |  
 Li    | Li      Li            |  
 |    Li      Li      Li       |  
 |     |                       |  
 |     |                       |  
 |     |                       |  
 |     |                       |  
 |     |                       |  
 |     |                       |  
 |     .-----------------------.  
 |    /                       /   
 |   /                       /    
 |  /                       /     
 | /                       /      
 |/                       /       
 *-----------------------*        

Positions:
   0 Li     1.617037    1.617037   10.000000    ( 0.0000,  0.0000,  0.0000)
   1 Li     4.851111    1.617037   10.000000    ( 0.0000,  0.0000,  0.0000)
   2 Li     8.085185    1.617037   10.000000    ( 0.0000,  0.0000,  0.0000)
   3 Li     1.617037    4.851111   10.000000    ( 0.0000,  0.0000,  0.0000)
   4 Li     4.851111    4.851111   10.000000    ( 0.0000,  0.0000,  0.0000)
   5 Li     8.085185    4.851111   10.000000    ( 0.0000,  0.0000,  0.0000)
   6 Li     1.617037    8.085185   10.000000    ( 0.0000,  0.0000,  0.0000)
   7 Li     4.851111    8.085185   10.000000    ( 0.0000,  0.0000,  0.0000)
   8 Li     8.085185    8.085185   10.000000    ( 0.0000,  0.0000,  0.0000)
   9 Li     0.000000    0.000000   11.617037    ( 0.0000,  0.0000,  0.0000)
  10 Li     3.234074    0.000000   11.617037    ( 0.0000,  0.0000,  0.0000)
  11 Li     6.468148    0.000000   11.617037    ( 0.0000,  0.0000,  0.0000)
  12 Li     0.000000    3.234074   11.617037    ( 0.0000,  0.0000,  0.0000)
  13 Li     3.234074    3.234074   11.617037    ( 0.0000,  0.0000,  0.0000)
  14 Li     6.468148    3.234074   11.617037    ( 0.0000,  0.0000,  0.0000)
  15 Li     0.000000    6.468148   11.617037    ( 0.0000,  0.0000,  0.0000)
  16 Li     3.234074    6.468148   11.617037    ( 0.0000,  0.0000,  0.0000)
  17 Li     6.468148    6.468148   11.617037    ( 0.0000,  0.0000,  0.0000)
  18 Li     1.616933    1.617067   13.469617    ( 0.0000,  0.0000,  0.0000)
  19 Li     4.851111    1.616990   13.470045    ( 0.0000,  0.0000,  0.0000)
  20 Li     8.085289    1.617066   13.469620    ( 0.0000,  0.0000,  0.0000)
  21 Li     1.617000    4.851111   13.470032    ( 0.0000,  0.0000,  0.0000)
  22 Li     4.851109    4.851106   13.469789    ( 0.0000,  0.0000,  0.0000)
  23 Li     8.085223    4.851111   13.470033    ( 0.0000,  0.0000,  0.0000)
  24 Li     1.617122    8.085137   13.469590    ( 0.0000,  0.0000,  0.0000)
  25 Li     4.851111    8.085213   13.470060    ( 0.0000,  0.0000,  0.0000)
  26 Li     8.085099    8.085138   13.469592    ( 0.0000,  0.0000,  0.0000)
  27 Li     0.000010   -0.002961   15.410224    ( 0.0000,  0.0000,  0.0000)
  28 Li     3.234587   -0.000093   15.445632    ( 0.0000,  0.0000,  0.0000)
  29 Li     6.467631   -0.000093   15.445610    ( 0.0000,  0.0000,  0.0000)
  30 Li    -0.000001    3.233378   15.446381    ( 0.0000,  0.0000,  0.0000)
  31 Li     3.234306    3.234269   15.445727    ( 0.0000,  0.0000,  0.0000)
  32 Li     6.467915    3.234270   15.445715    ( 0.0000,  0.0000,  0.0000)
  33 Li    -0.000002    6.467976   15.445820    ( 0.0000,  0.0000,  0.0000)
  34 Li     3.234087    6.468088   15.445783    ( 0.0000,  0.0000,  0.0000)
  35 Li     6.468137    6.468089   15.445781    ( 0.0000,  0.0000,  0.0000)
  36 O      9.702274    9.702054   21.445918    ( 0.0000,  0.0000,  0.0000)
  37 C      9.697931    8.885943   22.628356    ( 0.0000,  0.0000,  0.0000)
  38 C      9.712483    9.704032   23.912597    ( 0.0000,  0.0000,  0.0000)
  39 H      8.837808    8.202058   22.619658    ( 0.0000,  0.0000,  0.0000)
  40 H     10.600680    8.275744   22.552912    ( 0.0000,  0.0000,  0.0000)
  41 H      9.727836    9.051893   24.786961    ( 0.0000,  0.0000,  0.0000)
  42 H     10.589257   10.354072   23.947127    ( 0.0000,  0.0000,  0.0000)
  43 H      8.819883   10.333553   23.982684    ( 0.0000,  0.0000,  0.0000)
  44 H      8.933997   10.285140   21.485012    ( 0.0000,  0.0000,  0.0000)
  45 N      9.701983    9.678894   16.978591    ( 0.0000,  0.0000,  0.0000)
  46 N      9.702008   10.825259   16.949944    ( 0.0000,  0.0000,  0.0000)

Unit cell:
           periodic     x           y           z      points  spacing
  1. axis:    yes    9.702222    0.000000    0.000000    60     0.1617
  2. axis:    yes    0.000000    9.702222    0.000000    60     0.1617
  3. axis:    no     0.000000    0.000000   26.351111   164     0.1607

  Lengths:   9.702222   9.702222  26.351111
  Angles:   90.000000  90.000000  90.000000

Effective grid spacing dv^(1/3) = 0.1614

     iter     time        total  log10-change:
                         energy  eigst   dens
iter:   1 09:46:36  -310.328784  +0.40
iter:   2 09:51:25  -308.310361  +0.23  -1.02
iter:   3 09:57:46  -307.303631  -0.61  -1.10
iter:   4 10:05:08  -307.222089  -1.04  -1.66
Writing to output.gpw (mode='')

iter:   5 10:12:55  -307.214774  -1.35  -1.95
iter:   6 10:18:53  -307.203989c -1.05  -2.10
iter:   7 10:24:28  -307.203432c -1.60  -2.17
iter:   8 10:31:33  -307.203243c -1.85  -2.27
iter:   9 10:36:32  -307.202130c -1.87  -2.32
Writing to output.gpw (mode='')

iter:  10 10:41:08  -307.202244c -2.33  -2.57
iter:  11 10:47:58  -307.202601c -2.44  -2.67
iter:  12 10:52:13  -307.202936c -2.51  -2.74
iter:  13 10:56:39  -307.203230c -2.58  -2.95
iter:  14 11:01:07  -307.203449c -2.73  -3.02
Writing to output.gpw (mode='')

iter:  15 11:06:00  -307.203617c -2.92  -3.14
iter:  16 11:12:10  -307.203736c -2.99  -3.18
iter:  17 11:17:16  -307.203871c -3.03  -3.24
iter:  18 11:21:22  -307.203950c -3.32  -3.28
iter:  19 11:25:41  -307.204058c -3.28  -3.34
Writing to output.gpw (mode='')

iter:  20 11:29:42  -307.204104c -3.49  -3.42
iter:  21 11:34:32  -307.204145c -3.50  -3.50
iter:  22 11:37:48  -307.204176c -3.64  -3.57
iter:  23 11:40:47  -307.204205c -3.70  -3.67
iter:  24 11:46:02  -307.204219c -3.76  -3.73
Writing to output.gpw (mode='')

iter:  25 11:54:14  -307.204236c -3.90  -3.90
iter:  26 12:01:02  -307.204251c -3.98  -4.01c
iter:  27 12:06:24  -307.204261c -4.03  -4.05c
iter:  28 12:11:52  -307.204278c -4.11  -4.17c
iter:  29 12:17:54  -307.204288c -4.18  -4.23c
Writing to output.gpw (mode='')

iter:  30 12:22:39  -307.204296c -4.21  -4.25c
iter:  31 12:26:37  -307.204302c -4.45  -4.29c
iter:  32 12:31:25  -307.204311c -4.37  -4.25c
iter:  33 12:40:33  -307.204316c -4.57  -4.21c
iter:  34 12:46:24  -307.204321c -4.69  -4.18c
Writing to output.gpw (mode='')

iter:  35 12:51:01  -307.204324c -4.86  -4.14c
iter:  36 12:56:41  -307.204328c -4.94  -4.10c
iter:  37 13:00:37  -307.204329c -4.86  -4.06c
iter:  38 13:04:03  -307.204332c -5.06  -4.06c
iter:  39 13:08:07  -307.204335c -4.95  -4.03c
Writing to output.gpw (mode='')

iter:  40 13:13:12  -307.204333c -5.13  -3.99
iter:  41 13:16:31  -307.204332c -5.11  -4.04c
iter:  42 13:22:45  -307.204332c -5.32  -4.05c
iter:  43 13:29:27  -307.204336c -5.29  -4.04c
iter:  44 13:37:56  -307.204316c -5.41  -3.89
Writing to output.gpw (mode='')

iter:  45 13:44:27  -307.204321c -5.66  -4.19c
iter:  46 13:51:13  -307.204319c -5.62  -4.42c
iter:  47 13:59:24  -307.204319c -5.68  -4.43c
iter:  48 14:05:18  -307.204318c -5.65  -4.47c
iter:  49 14:10:30  -307.204319c -5.80  -4.49c
Writing to output.gpw (mode='')

iter:  50 14:14:17  -307.204318c -5.79  -4.59c
iter:  51 14:18:15  -307.204319c -6.03  -4.62c
iter:  52 14:22:29  -307.204317c -6.00  -4.68c
iter:  53 14:27:46  -307.204316c -5.96  -4.82c
iter:  54 14:32:51  -307.204316c -6.34  -4.77c
Writing to output.gpw (mode='')

iter:  55 14:38:08  -307.204316c -6.26  -4.90c
iter:  56 14:44:31  -307.204317c -6.48  -5.09c
iter:  57 14:50:38  -307.204317c -6.30  -5.13c
iter:  58 14:57:14  -307.204316c -6.42  -5.27c
iter:  59 15:01:06  -307.204316c -6.75  -5.42c
Writing to output.gpw (mode='')

iter:  60 15:06:02  -307.204316c -6.48  -5.45c
iter:  61 15:10:26  -307.204316c -6.66  -5.53c
iter:  62 15:16:18  -307.204316c -6.60  -5.59c
iter:  63 15:22:31  -307.204316c -6.54  -5.64c
iter:  64 15:29:10  -307.204316c -7.02  -5.67c
Writing to output.gpw (mode='')

iter:  65 15:36:27  -307.204316c -6.79  -5.67c
iter:  66 15:45:07  -307.204316c -7.10  -5.55c
iter:  67 15:52:45  -307.204316c -7.11  -5.66c
iter:  68 15:59:15  -307.204316c -7.36  -5.63c
iter:  69 16:06:37  -307.204316c -7.11  -5.60c
Writing to output.gpw (mode='')

iter:  70 16:13:32  -307.204316c -7.07  -5.54c
iter:  71 16:18:32  -307.204316c -7.36  -5.68c
iter:  72 16:23:36  -307.204316c -7.31  -5.64c
iter:  73 16:30:23  -307.204316c -7.47c -5.69c

Converged after 73 iterations.

Dipole moment: (-21.373876, -11.363990, 0.337479) |e|*Ang

Energy contributions relative to reference atoms: (reference = -14434.854043)

Kinetic:       +157.771190
Potential:     -149.561388
External:        +0.000000
XC:            -316.119997
Entropy (-ST):   -0.148611
Local:           +0.780186
--------------------------
Free energy:   -307.278621
Extrapolated:  -307.204316

Dipole-layer corrected work functions: 3.405469, 2.756718 eV

Showing only first 2 kpts
 Kpt  Band  Eigenvalues  Occupancy
  0    31     -3.33619    1.98790
  0    32     -3.28051    1.96361
  0    33     -2.93020    0.09324
  0    34     -2.88027    0.03540

  1    31     -3.13246    1.47278
  1    32     -3.07811    0.97014
  1    33     -3.04189    0.62689
  1    34     -2.96477    0.17790


Fermi level: -3.08109

No gap
Writing to output.gpw (mode='')


Forces in eV/Ang:
  0 Li    0.01248    0.00934   -0.27260
  1 Li    0.00008    0.00182   -0.27181
  2 Li   -0.01257    0.00931   -0.27268
  3 Li   -0.00682    0.00738   -0.26434
  4 Li    0.00004   -0.00384   -0.28885
  5 Li    0.00678    0.00740   -0.26467
  6 Li    0.00362   -0.01786   -0.27750
  7 Li    0.00010    0.00807   -0.26589
  8 Li   -0.00370   -0.01785   -0.27757
  9 Li   -0.00015   -0.00362    0.33557
 10 Li    0.00922    0.00566    0.26268
 11 Li   -0.00910    0.00570    0.26207
 12 Li   -0.00001    0.02300    0.25217
 13 Li    0.00183   -0.00387    0.26029
 14 Li   -0.00173   -0.00387    0.26008
 15 Li    0.00007   -0.00842    0.24978
 16 Li    0.01399   -0.00589    0.24784
 17 Li   -0.01407   -0.00589    0.24812
 18 Li   -0.01644    0.01433   -0.04123
 19 Li    0.00010   -0.01107    0.07048
 20 Li    0.01631    0.01412   -0.04069
 21 Li   -0.00772   -0.00019    0.06371
 22 Li   -0.00044   -0.00054    0.01443
 23 Li    0.00806   -0.00020    0.06401
 24 Li    0.02205   -0.01938   -0.04386
 25 Li    0.00003    0.00766    0.07257
 26 Li   -0.02211   -0.01919   -0.04338
 27 Li    0.00225   -0.36300   -5.60087
 28 Li    0.09566   -0.01919   -0.04914
 29 Li   -0.09650   -0.01940   -0.05429
 30 Li   -0.00018   -0.20293    0.14511
 31 Li    0.05003    0.04312   -0.04342
 32 Li   -0.05030    0.04343   -0.04614
 33 Li   -0.00036   -0.01619   -0.01338
 34 Li    0.00482   -0.01453   -0.03396
 35 Li   -0.00448   -0.01451   -0.03453
 36 O     0.00888   -0.03258    0.00622
 37 C     0.00287    0.08030   -0.01608
 38 C     0.00310   -0.13036   -0.05729
 39 H     0.01148    0.02907   -0.01361
 40 H    -0.01238    0.00400   -0.00964
 41 H    -0.01129    0.10513   -0.46586
 42 H    -0.01507   -0.01882   -0.03062
 43 H     0.00967   -0.01561   -0.01441
 44 H     0.00503   -0.01535   -0.02671
 45 N    -0.00310    0.33895    5.23352
 46 N    -0.00135    0.16821    0.49732

System changes: positions 

Initializing position-dependent things.

Density initialized from wave functions
       .-----------------------.  
      /|                       |  
     / H                       |  
    /  |                       |  
   /   |                       |  
  /    |H                   H C|  
 *     O                       |  
 |     |                       |  
 |     |               H       |  
 C  H  |                       |  
 |     |                       |  
 |     |                       N  
 |     |               H       |  
 |     Li      Li      Li      |  
 |     |                       |  
 |     |     Li      Li      Li|  
 |     |                       |  
 |     |  LLi     LLi     NLi  |  
 |     |                       |  
 |     |Li      Li      Li     |  
 |   Li|     Li      Li        |  
 |    Li  Li  Li  Li  Li  Li   |  
 | Li  |   Li      Li          |  
 |     |Li      Li      Li     |  
 Li    | Li      Li            |  
 |    Li      Li      Li       |  
 |     |                       |  
 |     |                       |  
 |     |                       |  
 |     |                       |  
 |     |                       |  
 |     |                       |  
 |     .-----------------------.  
 |    /                       /   
 |   /                       /    
 |  /                       /     
 | /                       /      
 |/                       /       
 *-----------------------*        

Positions:
   0 Li     1.617037    1.617037   10.000000    ( 0.0000,  0.0000,  0.0000)
   1 Li     4.851111    1.617037   10.000000    ( 0.0000,  0.0000,  0.0000)
   2 Li     8.085185    1.617037   10.000000    ( 0.0000,  0.0000,  0.0000)
   3 Li     1.617037    4.851111   10.000000    ( 0.0000,  0.0000,  0.0000)
   4 Li     4.851111    4.851111   10.000000    ( 0.0000,  0.0000,  0.0000)
   5 Li     8.085185    4.851111   10.000000    ( 0.0000,  0.0000,  0.0000)
   6 Li     1.617037    8.085185   10.000000    ( 0.0000,  0.0000,  0.0000)
   7 Li     4.851111    8.085185   10.000000    ( 0.0000,  0.0000,  0.0000)
   8 Li     8.085185    8.085185   10.000000    ( 0.0000,  0.0000,  0.0000)
   9 Li     0.000000    0.000000   11.617037    ( 0.0000,  0.0000,  0.0000)
  10 Li     3.234074    0.000000   11.617037    ( 0.0000,  0.0000,  0.0000)
  11 Li     6.468148    0.000000   11.617037    ( 0.0000,  0.0000,  0.0000)
  12 Li     0.000000    3.234074   11.617037    ( 0.0000,  0.0000,  0.0000)
  13 Li     3.234074    3.234074   11.617037    ( 0.0000,  0.0000,  0.0000)
  14 Li     6.468148    3.234074   11.617037    ( 0.0000,  0.0000,  0.0000)
  15 Li     0.000000    6.468148   11.617037    ( 0.0000,  0.0000,  0.0000)
  16 Li     3.234074    6.468148   11.617037    ( 0.0000,  0.0000,  0.0000)
  17 Li     6.468148    6.468148   11.617037    ( 0.0000,  0.0000,  0.0000)
  18 Li     1.616816    1.617178   13.469301    ( 0.0000,  0.0000,  0.0000)
  19 Li     4.851112    1.616908   13.470567    ( 0.0000,  0.0000,  0.0000)
  20 Li     8.085405    1.617176   13.469307    ( 0.0000,  0.0000,  0.0000)
  21 Li     1.616944    4.851109   13.470501    ( 0.0000,  0.0000,  0.0000)
  22 Li     4.851106    4.851102   13.469897    ( 0.0000,  0.0000,  0.0000)
  23 Li     8.085282    4.851109   13.470505    ( 0.0000,  0.0000,  0.0000)
  24 Li     1.617288    8.084988   13.469257    ( 0.0000,  0.0000,  0.0000)
  25 Li     4.851111    8.085270   13.470597    ( 0.0000,  0.0000,  0.0000)
  26 Li     8.084934    8.084990   13.469262    ( 0.0000,  0.0000,  0.0000)
  27 Li     0.000027   -0.005454   15.370302    ( 0.0000,  0.0000,  0.0000)
  28 Li     3.235283   -0.000234   15.445281    ( 0.0000,  0.0000,  0.0000)
  29 Li     6.466929   -0.000236   15.445220    ( 0.0000,  0.0000,  0.0000)
  30 Li    -0.000003    3.231844   15.447486    ( 0.0000,  0.0000,  0.0000)
  31 Li     3.234676    3.234588   15.445408    ( 0.0000,  0.0000,  0.0000)
  32 Li     6.467544    3.234592   15.445376    ( 0.0000,  0.0000,  0.0000)
  33 Li    -0.000004    6.467871   15.445730    ( 0.0000,  0.0000,  0.0000)
  34 Li     3.234124    6.467980   15.445532    ( 0.0000,  0.0000,  0.0000)
  35 Li     6.468102    6.467980   15.445526    ( 0.0000,  0.0000,  0.0000)
  36 O      9.702338    9.701816   21.445971    ( 0.0000,  0.0000,  0.0000)
  37 C      9.697953    8.886520   22.628225    ( 0.0000,  0.0000,  0.0000)
  38 C      9.712504    9.703135   23.912129    ( 0.0000,  0.0000,  0.0000)
  39 H      8.837894    8.202274   22.619558    ( 0.0000,  0.0000,  0.0000)
  40 H     10.600586    8.275776   22.552841    ( 0.0000,  0.0000,  0.0000)
  41 H      9.727753    9.052630   24.783576    ( 0.0000,  0.0000,  0.0000)
  42 H     10.589138   10.353925   23.946902    ( 0.0000,  0.0000,  0.0000)
  43 H      8.819963   10.333430   23.982578    ( 0.0000,  0.0000,  0.0000)
  44 H      8.934037   10.285025   21.484811    ( 0.0000,  0.0000,  0.0000)
  45 N      9.701961    9.685023   17.016000    ( 0.0000,  0.0000,  0.0000)
  46 N      9.701996   10.822702   16.953366    ( 0.0000,  0.0000,  0.0000)

Unit cell:
           periodic     x           y           z      points  spacing
  1. axis:    yes    9.702222    0.000000    0.000000    60     0.1617
  2. axis:    yes    0.000000    9.702222    0.000000    60     0.1617
  3. axis:    no     0.000000    0.000000   26.351111   164     0.1607

  Lengths:   9.702222   9.702222  26.351111
  Angles:   90.000000  90.000000  90.000000

Effective grid spacing dv^(1/3) = 0.1614

     iter     time        total  log10-change:
                         energy  eigst   dens
iter:   1 16:36:39  -307.578872  -0.97
iter:   2 16:40:53  -307.571706  -1.48  -2.08
iter:   3 16:45:14  -307.569197c -1.96  -2.12
iter:   4 16:48:28  -307.565103c -2.17  -2.26
Writing to output.gpw (mode='')

iter:   5 16:54:23  -307.564399c -2.45  -2.46
iter:   6 16:57:58  -307.563730c -2.36  -2.55
iter:   7 17:01:36  -307.563015c -3.19  -2.62
iter:   8 17:08:18  -307.563122c -2.71  -2.90
iter:   9 17:13:40  -307.563021c -3.66  -2.90
Writing to output.gpw (mode='')

iter:  10 17:19:40  -307.563064c -3.64  -3.07
iter:  11 17:24:19  -307.563043c -3.73  -3.20
iter:  12 17:29:26  -307.563074c -4.03  -3.29
iter:  13 17:34:06  -307.563076c -4.12  -3.39
iter:  14 17:40:18  -307.563076c -4.66  -3.64
Writing to output.gpw (mode='')

iter:  15 17:45:32  -307.563071c -4.74  -3.68
iter:  16 17:49:33  -307.563063c -4.82  -3.73
iter:  17 17:53:51  -307.563062c -4.97  -3.78
iter:  18 17:58:11  -307.563068c -5.03  -3.86
iter:  19 18:04:29  -307.563069c -5.40  -4.20c
Writing to output.gpw (mode='')

iter:  20 18:09:57  -307.563067c -5.54  -4.22c
iter:  21 18:14:08  -307.563068c -5.53  -4.41c
iter:  22 18:17:57  -307.563070c -5.62  -4.47c
iter:  23 18:22:47  -307.563070c -5.93  -4.44c
iter:  24 18:26:29  -307.563068c -5.89  -4.64c
Writing to output.gpw (mode='')

iter:  25 18:31:11  -307.563068c -6.24  -4.85c
iter:  26 18:36:59  -307.563069c -6.22  -4.89c
iter:  27 18:43:34  -307.563069c -6.26  -5.00c
iter:  28 18:48:59  -307.563069c -6.39  -5.17c
iter:  29 18:55:25  -307.563069c -6.46  -5.15c
Writing to output.gpw (mode='')

iter:  30 19:00:08  -307.563069c -6.53  -5.14c
iter:  31 19:05:01  -307.563070c -6.50  -5.22c
iter:  32 19:10:13  -307.563070c -6.75  -5.36c
iter:  33 19:14:34  -307.563070c -6.71  -5.36c
iter:  34 19:17:45  -307.563070c -6.72  -5.41c
Writing to output.gpw (mode='')

iter:  35 19:21:16  -307.563070c -6.80  -5.54c
iter:  36 19:24:29  -307.563070c -6.88  -5.66c
iter:  37 19:28:04  -307.563070c -6.97  -5.72c
iter:  38 19:31:32  -307.563070c -7.13  -5.73c
iter:  39 19:35:38  -307.563070c -7.16  -5.68c
Writing to output.gpw (mode='')

iter:  40 19:39:18  -307.563070c -7.32  -5.82c
iter:  41 19:43:02  -307.563070c -7.19  -5.81c
iter:  42 19:48:34  -307.563070c -7.35  -5.78c
iter:  43 19:53:16  -307.563070c -7.32  -5.76c
iter:  44 19:58:04  -307.563070c -7.54c -5.67c

Converged after 44 iterations.

Dipole moment: (-21.380038, -11.925540, 0.343931) |e|*Ang

Energy contributions relative to reference atoms: (reference = -14434.854043)

Kinetic:       +156.692020
Potential:     -149.042454
External:        +0.000000
XC:            -315.909682
Entropy (-ST):   -0.147944
Local:           +0.771018
--------------------------
Free energy:   -307.637042
Extrapolated:  -307.563070

Dipole-layer corrected work functions: 3.405010, 2.743857 eV

Showing only first 2 kpts
 Kpt  Band  Eigenvalues  Occupancy
  0    31     -3.33249    1.98860
  0    32     -3.27867    1.96690
  0    33     -2.92434    0.09469
  0    34     -2.86891    0.03227

  1    31     -3.12078    1.43293
  1    32     -3.07250    0.98068
  1    33     -3.03779    0.64915
  1    34     -2.95869    0.17980


Fermi level: -3.07443

No gap
Writing to output.gpw (mode='')


Forces in eV/Ang:
  0 Li    0.01271    0.00946   -0.27347
  1 Li    0.00008    0.00119   -0.27076
  2 Li   -0.01281    0.00943   -0.27356
  3 Li   -0.00719    0.00775   -0.26405
  4 Li    0.00004   -0.00391   -0.28996
  5 Li    0.00715    0.00775   -0.26439
  6 Li    0.00303   -0.01812   -0.27800
  7 Li    0.00010    0.00753   -0.26638
  8 Li   -0.00309   -0.01810   -0.27808
  9 Li   -0.00015   -0.00206    0.34101
 10 Li    0.00998    0.00454    0.26366
 11 Li   -0.00985    0.00458    0.26305
 12 Li   -0.00001    0.02150    0.25603
 13 Li    0.00569   -0.00216    0.25865
 14 Li   -0.00559   -0.00217    0.25845
 15 Li    0.00008   -0.01038    0.24693
 16 Li    0.01206   -0.00587    0.24890
 17 Li   -0.01215   -0.00586    0.24919
 18 Li   -0.00588    0.02124   -0.05270
 19 Li    0.00008   -0.01001    0.07039
 20 Li    0.00575    0.02104   -0.05217
 21 Li   -0.00714   -0.00279    0.06312
 22 Li   -0.00044    0.00156    0.01475
 23 Li    0.00748   -0.00279    0.06341
 24 Li    0.02291   -0.02416   -0.04510
 25 Li    0.00002    0.00552    0.06912
 26 Li   -0.02297   -0.02398   -0.04465
 27 Li    0.00193   -0.32447   -3.93838
 28 Li    0.09604   -0.01961   -0.05152
 29 Li   -0.09690   -0.01981   -0.05660
 30 Li   -0.00020   -0.19397    0.13697
 31 Li    0.04851    0.04166   -0.04442
 32 Li   -0.04875    0.04195   -0.04706
 33 Li   -0.00035   -0.01020   -0.01362
 34 Li    0.00353   -0.01390   -0.03315
 35 Li   -0.00320   -0.01390   -0.03370
 36 O     0.00506   -0.01893   -0.00530
 37 C     0.00435    0.04472   -0.02659
 38 C    -0.00028   -0.03336   -0.12109
 39 H     0.01354    0.03105   -0.01432
 40 H    -0.01564    0.00718   -0.00986
 41 H    -0.00980    0.04097   -0.37483
 42 H    -0.02063   -0.02574   -0.03060
 43 H     0.01722   -0.02354   -0.01597
 44 H     0.00820   -0.01722   -0.02701
 45 N    -0.00388   -0.17484    3.67123
 46 N    -0.00063    0.65072    0.39026

System changes: positions 

Initializing position-dependent things.

Density initialized from wave functions
       .-----------------------.  
      /|                       |  
     / H                       |  
    /  |                       |  
   /   |                       |  
  /    |H                   H C|  
 *     O                       |  
 |     |                       |  
 |     |               H       |  
 C  H  |                       |  
 |     |                       |  
 |     |                       N  
 |     |               H       |  
 |     Li      Li      Li      |  
 |     |                       |  
 |     |     Li      Li      Li|  
 |     |                       |  
 |     |  LLi     LLi     NLi  |  
 |     |                       |  
 |     |Li      Li      Li     |  
 |   Li|     Li      Li        |  
 |    Li  Li  Li  Li  Li  Li   |  
 | Li  |   Li      Li          |  
 |     |Li      Li      Li     |  
 Li    | Li      Li            |  
 |    Li      Li      Li       |  
 |     |                       |  
 |     |                       |  
 |     |                       |  
 |     |                       |  
 |     |                       |  
 |     |                       |  
 |     .-----------------------.  
 |    /                       /   
 |   /                       /    
 |  /                       /     
 | /                       /      
 |/                       /       
 *-----------------------*        

Positions:
   0 Li     1.617037    1.617037   10.000000    ( 0.0000,  0.0000,  0.0000)
   1 Li     4.851111    1.617037   10.000000    ( 0.0000,  0.0000,  0.0000)
   2 Li     8.085185    1.617037   10.000000    ( 0.0000,  0.0000,  0.0000)
   3 Li     1.617037    4.851111   10.000000    ( 0.0000,  0.0000,  0.0000)
   4 Li     4.851111    4.851111   10.000000    ( 0.0000,  0.0000,  0.0000)
   5 Li     8.085185    4.851111   10.000000    ( 0.0000,  0.0000,  0.0000)
   6 Li     1.617037    8.085185   10.000000    ( 0.0000,  0.0000,  0.0000)
   7 Li     4.851111    8.085185   10.000000    ( 0.0000,  0.0000,  0.0000)
   8 Li     8.085185    8.085185   10.000000    ( 0.0000,  0.0000,  0.0000)
   9 Li     0.000000    0.000000   11.617037    ( 0.0000,  0.0000,  0.0000)
  10 Li     3.234074    0.000000   11.617037    ( 0.0000,  0.0000,  0.0000)
  11 Li     6.468148    0.000000   11.617037    ( 0.0000,  0.0000,  0.0000)
  12 Li     0.000000    3.234074   11.617037    ( 0.0000,  0.0000,  0.0000)
  13 Li     3.234074    3.234074   11.617037    ( 0.0000,  0.0000,  0.0000)
  14 Li     6.468148    3.234074   11.617037    ( 0.0000,  0.0000,  0.0000)
  15 Li     0.000000    6.468148   11.617037    ( 0.0000,  0.0000,  0.0000)
  16 Li     3.234074    6.468148   11.617037    ( 0.0000,  0.0000,  0.0000)
  17 Li     6.468148    6.468148   11.617037    ( 0.0000,  0.0000,  0.0000)
  18 Li     1.616812    1.617527   13.468476    ( 0.0000,  0.0000,  0.0000)
  19 Li     4.851113    1.616776   13.471535    ( 0.0000,  0.0000,  0.0000)
  20 Li     8.085406    1.617522   13.468490    ( 0.0000,  0.0000,  0.0000)
  21 Li     1.616850    4.851055   13.471360    ( 0.0000,  0.0000,  0.0000)
  22 Li     4.851100    4.851138   13.470104    ( 0.0000,  0.0000,  0.0000)
  23 Li     8.085380    4.851054   13.471367    ( 0.0000,  0.0000,  0.0000)
  24 Li     1.617614    8.084610   13.468606    ( 0.0000,  0.0000,  0.0000)
  25 Li     4.851112    8.085335   13.471524    ( 0.0000,  0.0000,  0.0000)
  26 Li     8.084607    8.084615   13.468617    ( 0.0000,  0.0000,  0.0000)
  27 Li     0.000052   -0.009169   15.330475    ( 0.0000,  0.0000,  0.0000)
  28 Li     3.236575   -0.000504   15.444590    ( 0.0000,  0.0000,  0.0000)
  29 Li     6.465626   -0.000509   15.444460    ( 0.0000,  0.0000,  0.0000)
  30 Li    -0.000005    3.229148   15.449400    ( 0.0000,  0.0000,  0.0000)
  31 Li     3.235332    3.235153   15.444797    ( 0.0000,  0.0000,  0.0000)
  32 Li     6.466884    3.235160   15.444729    ( 0.0000,  0.0000,  0.0000)
  33 Li    -0.000009    6.467806   15.445563    ( 0.0000,  0.0000,  0.0000)
  34 Li     3.234169    6.467789   15.445082    ( 0.0000,  0.0000,  0.0000)
  35 Li     6.468062    6.467789   15.445068    ( 0.0000,  0.0000,  0.0000)
  36 O      9.702379    9.701648   21.445846    ( 0.0000,  0.0000,  0.0000)
  37 C      9.698024    8.886870   22.627763    ( 0.0000,  0.0000,  0.0000)
  38 C      9.712475    9.703456   23.909956    ( 0.0000,  0.0000,  0.0000)
  39 H      8.838096    8.202714   22.619358    ( 0.0000,  0.0000,  0.0000)
  40 H     10.600344    8.275899   22.552705    ( 0.0000,  0.0000,  0.0000)
  41 H      9.727630    9.052687   24.779150    ( 0.0000,  0.0000,  0.0000)
  42 H     10.588801   10.353509   23.946484    ( 0.0000,  0.0000,  0.0000)
  43 H      8.820268   10.333037   23.982348    ( 0.0000,  0.0000,  0.0000)
  44 H      8.934179   10.284772   21.484427    ( 0.0000,  0.0000,  0.0000)
  45 N      9.701904    9.688854   17.053315    ( 0.0000,  0.0000,  0.0000)
  46 N      9.701986   10.824743   16.957393    ( 0.0000,  0.0000,  0.0000)

Unit cell:
           periodic     x           y           z      points  spacing
  1. axis:    yes    9.702222    0.000000    0.000000    60     0.1617
  2. axis:    yes    0.000000    9.702222    0.000000    60     0.1617
  3. axis:    no     0.000000    0.000000   26.351111   164     0.1607

  Lengths:   9.702222   9.702222  26.351111
  Angles:   90.000000  90.000000  90.000000

Effective grid spacing dv^(1/3) = 0.1614

     iter     time        total  log10-change:
                         energy  eigst   dens
iter:   1 20:02:10  -307.829211  -0.97
iter:   2 20:06:05  -307.826213  -1.58  -2.02
iter:   3 20:10:07  -307.820571c -2.24  -2.10
iter:   4 20:13:33  -307.819104c -2.32  -2.44
Writing to output.gpw (mode='')

iter:   5 20:17:33  -307.818428c -2.20  -2.56
iter:   6 20:20:44  -307.817468c -2.75  -2.61
iter:   7 20:23:40  -307.817274c -3.06  -2.80
iter:   8 20:27:01  -307.817281c -3.18  -3.05
iter:   9 20:29:09  -307.817229c -3.46  -3.08
Writing to output.gpw (mode='')

iter:  10 20:32:20  -307.817267c -3.80  -3.27
iter:  11 20:35:12  -307.817283c -4.12  -3.29
iter:  12 20:37:25  -307.817282c -4.36  -3.40
iter:  13 20:39:53  -307.817276c -4.20  -3.39
iter:  14 20:42:41  -307.817288c -4.63  -3.72
Writing to output.gpw (mode='')

iter:  15 20:46:49  -307.817286c -4.88  -3.75
iter:  16 20:49:39  -307.817281c -4.69  -3.78
iter:  17 20:52:05  -307.817275c -4.95  -3.94
iter:  18 20:54:52  -307.817276c -5.08  -4.12c
iter:  19 20:59:06  -307.817274c -5.40  -4.20c
Writing to output.gpw (mode='')

iter:  20 21:03:02  -307.817274c -5.48  -4.27c
iter:  21 21:08:44  -307.817275c -5.49  -4.37c
iter:  22 21:13:56  -307.817276c -5.69  -4.36c
iter:  23 21:18:18  -307.817276c -5.63  -4.45c
iter:  24 21:22:50  -307.817273c -5.81  -4.52c
Writing to output.gpw (mode='')

iter:  25 21:26:21  -307.817274c -6.10  -4.58c
iter:  26 21:30:06  -307.817275c -5.98  -4.61c
iter:  27 21:32:51  -307.817276c -6.07  -4.83c
iter:  28 21:37:05  -307.817276c -6.21  -4.88c
iter:  29 21:41:46  -307.817275c -6.23  -4.92c
Writing to output.gpw (mode='')

iter:  30 21:47:11  -307.817276c -6.48  -4.98c
iter:  31 21:51:40  -307.817276c -6.58  -5.15c
iter:  32 21:54:50  -307.817276c -6.55  -5.18c
iter:  33 22:00:12  -307.817275c -6.52  -5.19c
iter:  34 22:03:41  -307.817275c -6.77  -5.39c
Writing to output.gpw (mode='')

iter:  35 22:06:52  -307.817275c -6.83  -5.45c
iter:  36 22:10:39  -307.817275c -6.77  -5.50c
iter:  37 22:14:32  -307.817275c -6.79  -5.55c
iter:  38 22:17:20  -307.817275c -7.03  -5.60c
iter:  39 22:19:43  -307.817275c -7.14  -5.81c
Writing to output.gpw (mode='')

iter:  40 22:22:24  -307.817275c -7.04  -5.81c
iter:  41 22:24:42  -307.817275c -7.33  -6.02c
iter:  42 22:26:51  -307.817275c -7.35  -5.99c
iter:  43 22:30:18  -307.817275c -7.39  -5.98c
iter:  44 22:33:09  -307.817275c -7.56c -5.84c

Converged after 44 iterations.

Dipole moment: (-21.384032, -12.304534, 0.343106) |e|*Ang

Energy contributions relative to reference atoms: (reference = -14434.854043)

Kinetic:       +155.147550
Potential:     -148.052705
External:        +0.000000
XC:            -315.603766
Entropy (-ST):   -0.147396
Local:           +0.765344
--------------------------
Free energy:   -307.890973
Extrapolated:  -307.817275

Dipole-layer corrected work functions: 3.404932, 2.745365 eV

Showing only first 2 kpts
 Kpt  Band  Eigenvalues  Occupancy
  0    31     -3.33433    1.98885
  0    32     -3.28249    1.96886
  0    33     -2.92647    0.09727
  0    34     -2.86622    0.03018

  1    31     -3.11887    1.41129
  1    32     -3.07356    0.98410
  1    33     -3.04051    0.66681
  1    34     -2.95796    0.17513


Fermi level: -3.07515

No gap
Writing to output.gpw (mode='')


Forces in eV/Ang:
  0 Li    0.01297    0.00952   -0.27452
  1 Li    0.00009    0.00071   -0.26987
  2 Li   -0.01307    0.00949   -0.27461
  3 Li   -0.00742    0.00809   -0.26381
  4 Li    0.00004   -0.00389   -0.29109
  5 Li    0.00739    0.00808   -0.26414
  6 Li    0.00251   -0.01830   -0.27876
  7 Li    0.00009    0.00709   -0.26667
  8 Li   -0.00257   -0.01827   -0.27883
  9 Li   -0.00016   -0.00082    0.34580
 10 Li    0.01056    0.00351    0.26493
 11 Li   -0.01042    0.00356    0.26432
 12 Li   -0.00001    0.02040    0.25960
 13 Li    0.00931   -0.00060    0.25735
 14 Li   -0.00922   -0.00061    0.25718
 15 Li    0.00008   -0.01195    0.24470
 16 Li    0.01060   -0.00601    0.24990
 17 Li   -0.01069   -0.00599    0.25021
 18 Li    0.00448    0.02797   -0.06366
 19 Li    0.00007   -0.00922    0.06930
 20 Li   -0.00459    0.02778   -0.06317
 21 Li   -0.00718   -0.00527    0.06200
 22 Li   -0.00044    0.00352    0.01460
 23 Li    0.00752   -0.00528    0.06228
 24 Li    0.02519   -0.02964   -0.04809
 25 Li    0.00000    0.00364    0.06517
 26 Li   -0.02523   -0.02947   -0.04767
 27 Li    0.00172   -0.26226   -2.69566
 28 Li    0.09218   -0.01956   -0.05067
 29 Li   -0.09304   -0.01975   -0.05570
 30 Li   -0.00019   -0.19268    0.13634
 31 Li    0.04699    0.04016   -0.04437
 32 Li   -0.04722    0.04046   -0.04697
 33 Li   -0.00034   -0.00365   -0.01182
 34 Li    0.00286   -0.01319   -0.03201
 35 Li   -0.00254   -0.01321   -0.03257
 36 O     0.01089   -0.01640   -0.02698
 37 C     0.00180    0.03836   -0.04653
 38 C    -0.00435   -0.01993   -0.11969
 39 H     0.00872    0.02643   -0.01452
 40 H    -0.01007    0.00461   -0.01058
 41 H    -0.00791    0.00942   -0.31872
 42 H    -0.00487   -0.01228   -0.03581
 43 H     0.00327   -0.01203   -0.02272
 44 H     0.00337   -0.01364   -0.02710
 45 N    -0.00354    0.02373    2.60457
 46 N    -0.00047    0.38452    0.29353

System changes: positions 

Initializing position-dependent things.

Density initialized from wave functions
       .-----------------------.  
      /|                       |  
     / H                       |  
    /  |                       |  
   /   |                       |  
  /    |H                   H C|  
 *     O                       |  
 |     |                       |  
 |     |               H       |  
 C  H  |                       |  
 |     |                       |  
 |     |                       N  
 |     |               H       |  
 |     Li      Li      Li      |  
 |     |                       |  
 |     |     Li      Li      Li|  
 |     |                       |  
 |     |  LLi     LLi     NLi  |  
 |     |                       |  
 |     |Li      Li      Li     |  
 |   Li|     Li      Li        |  
 |    Li  Li  Li  Li  Li  Li   |  
 | Li  |   Li      Li          |  
 |     |Li      Li      Li     |  
 Li    | Li      Li            |  
 |    Li      Li      Li       |  
 |     |                       |  
 |     |                       |  
 |     |                       |  
 |     |                       |  
 |     |                       |  
 |     |                       |  
 |     .-----------------------.  
 |    /                       /   
 |   /                       /    
 |  /                       /     
 | /                       /      
 |/                       /       
 *-----------------------*        

Positions:
   0 Li     1.617037    1.617037   10.000000    ( 0.0000,  0.0000,  0.0000)
   1 Li     4.851111    1.617037   10.000000    ( 0.0000,  0.0000,  0.0000)
   2 Li     8.085185    1.617037   10.000000    ( 0.0000,  0.0000,  0.0000)
   3 Li     1.617037    4.851111   10.000000    ( 0.0000,  0.0000,  0.0000)
   4 Li     4.851111    4.851111   10.000000    ( 0.0000,  0.0000,  0.0000)
   5 Li     8.085185    4.851111   10.000000    ( 0.0000,  0.0000,  0.0000)
   6 Li     1.617037    8.085185   10.000000    ( 0.0000,  0.0000,  0.0000)
   7 Li     4.851111    8.085185   10.000000    ( 0.0000,  0.0000,  0.0000)
   8 Li     8.085185    8.085185   10.000000    ( 0.0000,  0.0000,  0.0000)
   9 Li     0.000000    0.000000   11.617037    ( 0.0000,  0.0000,  0.0000)
  10 Li     3.234074    0.000000   11.617037    ( 0.0000,  0.0000,  0.0000)
  11 Li     6.468148    0.000000   11.617037    ( 0.0000,  0.0000,  0.0000)
  12 Li     0.000000    3.234074   11.617037    ( 0.0000,  0.0000,  0.0000)
  13 Li     3.234074    3.234074   11.617037    ( 0.0000,  0.0000,  0.0000)
  14 Li     6.468148    3.234074   11.617037    ( 0.0000,  0.0000,  0.0000)
  15 Li     0.000000    6.468148   11.617037    ( 0.0000,  0.0000,  0.0000)
  16 Li     3.234074    6.468148   11.617037    ( 0.0000,  0.0000,  0.0000)
  17 Li     6.468148    6.468148   11.617037    ( 0.0000,  0.0000,  0.0000)
  18 Li     1.616987    1.618153   13.467083    ( 0.0000,  0.0000,  0.0000)
  19 Li     4.851115    1.616596   13.472938    ( 0.0000,  0.0000,  0.0000)
  20 Li     8.085230    1.618144   13.467106    ( 0.0000,  0.0000,  0.0000)
  21 Li     1.616710    4.850930   13.472606    ( 0.0000,  0.0000,  0.0000)
  22 Li     4.851091    4.851224   13.470404    ( 0.0000,  0.0000,  0.0000)
  23 Li     8.085528    4.850929   13.472619    ( 0.0000,  0.0000,  0.0000)
  24 Li     1.618136    8.083963   13.467602    ( 0.0000,  0.0000,  0.0000)
  25 Li     4.851112    8.085396   13.472819    ( 0.0000,  0.0000,  0.0000)
  26 Li     8.084084    8.083971   13.467622    ( 0.0000,  0.0000,  0.0000)
  27 Li     0.000084   -0.013756   15.290739    ( 0.0000,  0.0000,  0.0000)
  28 Li     3.238414   -0.000901   15.443578    ( 0.0000,  0.0000,  0.0000)
  29 Li     6.463768   -0.000909   15.443346    ( 0.0000,  0.0000,  0.0000)
  30 Li    -0.000009    3.225232   15.452179    ( 0.0000,  0.0000,  0.0000)
  31 Li     3.236271    3.235956   15.443897    ( 0.0000,  0.0000,  0.0000)
  32 Li     6.465940    3.235970   15.443777    ( 0.0000,  0.0000,  0.0000)
  33 Li    -0.000016    6.467807   15.445343    ( 0.0000,  0.0000,  0.0000)
  34 Li     3.234222    6.467524   15.444440    ( 0.0000,  0.0000,  0.0000)
  35 Li     6.468015    6.467523   15.444415    ( 0.0000,  0.0000,  0.0000)
  36 O      9.702574    9.701413   21.445231    ( 0.0000,  0.0000,  0.0000)
  37 C      9.698071    8.887375   22.626716    ( 0.0000,  0.0000,  0.0000)
  38 C      9.712359    9.703840   23.907023    ( 0.0000,  0.0000,  0.0000)
  39 H      8.838286    8.203260   22.619061    ( 0.0000,  0.0000,  0.0000)
  40 H     10.600117    8.276016   22.552490    ( 0.0000,  0.0000,  0.0000)
  41 H      9.727482    9.052353   24.773455    ( 0.0000,  0.0000,  0.0000)
  42 H     10.588657   10.353205   23.945759    ( 0.0000,  0.0000,  0.0000)
  43 H      8.820395   10.332730   23.981875    ( 0.0000,  0.0000,  0.0000)
  44 H      8.934273   10.284482   21.483868    ( 0.0000,  0.0000,  0.0000)
  45 N      9.701828    9.694374   17.092411    ( 0.0000,  0.0000,  0.0000)
  46 N      9.701977   10.826838   16.962008    ( 0.0000,  0.0000,  0.0000)

Unit cell:
           periodic     x           y           z      points  spacing
  1. axis:    yes    9.702222    0.000000    0.000000    60     0.1617
  2. axis:    yes    0.000000    9.702222    0.000000    60     0.1617
  3. axis:    no     0.000000    0.000000   26.351111   164     0.1607

  Lengths:   9.702222   9.702222  26.351111
  Angles:   90.000000  90.000000  90.000000

Effective grid spacing dv^(1/3) = 0.1614

     iter     time        total  log10-change:
                         energy  eigst   dens
iter:   1 22:35:40  -308.011524  -0.98
iter:   2 22:38:27  -308.006984  -1.56  -1.99
iter:   3 22:42:13  -308.001103c -2.20  -2.09
iter:   4 22:46:00  -307.999289c -2.30  -2.41
Writing to output.gpw (mode='')

iter:   5 22:48:36  -307.998196c -2.16  -2.53
iter:   6 22:51:10  -307.997229c -2.71  -2.62
iter:   7 22:54:24  -307.997042c -3.04  -2.81
iter:   8 22:58:55  -307.997040c -3.13  -3.02
iter:   9 23:01:24  -307.996949c -3.52  -3.04
Writing to output.gpw (mode='')

iter:  10 23:06:39  -307.996987c -3.76  -3.30
iter:  11 23:08:54  -307.997002c -4.09  -3.30
iter:  12 23:11:29  -307.997002c -4.34  -3.38
iter:  13 23:16:23  -307.996991c -4.20  -3.38
iter:  14 23:20:39  -307.997007c -4.50  -3.72
Writing to output.gpw (mode='')

iter:  15 23:24:10  -307.997005c -4.77  -3.72
iter:  16 23:26:09  -307.997000c -4.61  -3.74
iter:  17 23:27:59  -307.996994c -4.97  -3.86
iter:  18 23:30:10  -307.996995c -5.09  -4.17c
iter:  19 23:32:43  -307.996993c -5.36  -4.21c
Writing to output.gpw (mode='')

iter:  20 23:35:02  -307.996991c -5.45  -4.26c
iter:  21 23:37:56  -307.996991c -5.49  -4.36c
iter:  22 23:40:09  -307.996993c -5.70  -4.37c
iter:  23 23:42:39  -307.996994c -5.80  -4.52c
iter:  24 23:45:06  -307.996993c -5.78  -4.60c
Writing to output.gpw (mode='')

iter:  25 23:48:32  -307.996992c -5.86  -4.72c
iter:  26 23:52:07  -307.996992c -6.15  -4.88c
iter:  27 23:55:58  -307.996992c -6.09  -4.95c
iter:  28 23:58:47  -307.996992c -6.23  -4.98c
iter:  29 00:01:11  -307.996993c -6.19  -5.00c
Writing to output.gpw (mode='')

iter:  30 00:03:59  -307.996993c -6.29  -5.04c
iter:  31 00:06:42  -307.996993c -6.37  -5.11c
iter:  32 00:10:21  -307.996992c -6.51  -5.18c
iter:  33 00:13:10  -307.996992c -6.57  -5.31c
iter:  34 00:18:18  -307.996992c -6.73  -5.41c
Writing to output.gpw (mode='')

iter:  35 00:23:49  -307.996992c -6.80  -5.43c
iter:  36 00:32:23  -307.996992c -6.86  -5.58c
iter:  37 00:38:21  -307.996992c -6.94  -5.72c
iter:  38 00:45:02  -307.996992c -6.95  -5.79c
iter:  39 00:49:31  -307.996992c -7.12  -5.81c
Writing to output.gpw (mode='')

iter:  40 00:53:34  -307.996992c -7.10  -5.85c
iter:  41 00:57:09  -307.996992c -7.24  -6.00c
iter:  42 01:02:09  -307.996992c -7.37  -6.09c
iter:  43 01:09:30  -307.996992c -7.46c -6.09c

Converged after 43 iterations.

Dipole moment: (-21.391693, -12.838630, 0.342792) |e|*Ang

Energy contributions relative to reference atoms: (reference = -14434.854043)

Kinetic:       +153.993352
Potential:     -147.328760
External:        +0.000000
XC:            -315.350218
Entropy (-ST):   -0.146802
Local:           +0.762034
--------------------------
Free energy:   -308.070393
Extrapolated:  -307.996992

Dipole-layer corrected work functions: 3.404623, 2.745659 eV

Showing only first 2 kpts
 Kpt  Band  Eigenvalues  Occupancy
  0    31     -3.33397    1.98877
  0    32     -3.28429    1.96995
  0    33     -2.92659    0.09751
  0    34     -2.86357    0.02865

  1    31     -3.11673    1.39345
  1    32     -3.07386    0.98720
  1    33     -3.04208    0.68090
  1    34     -2.95669    0.17113


Fermi level: -3.07514

No gap
Writing to output.gpw (mode='')


Forces in eV/Ang:
  0 Li    0.01326    0.00947   -0.27549
  1 Li    0.00009    0.00034   -0.26895
  2 Li   -0.01336    0.00944   -0.27559
  3 Li   -0.00756    0.00843   -0.26350
  4 Li    0.00004   -0.00380   -0.29214
  5 Li    0.00753    0.00841   -0.26383
  6 Li    0.00202   -0.01837   -0.27949
  7 Li    0.00009    0.00679   -0.26683
  8 Li   -0.00207   -0.01834   -0.27956
  9 Li   -0.00016    0.00033    0.34961
 10 Li    0.01133    0.00246    0.26607
 11 Li   -0.01119    0.00250    0.26548
 12 Li   -0.00001    0.01956    0.26294
 13 Li    0.01295    0.00106    0.25616
 14 Li   -0.01285    0.00104    0.25600
 15 Li    0.00008   -0.01324    0.24278
 16 Li    0.00923   -0.00641    0.25094
 17 Li   -0.00934   -0.00639    0.25126
 18 Li    0.01485    0.03427   -0.07292
 19 Li    0.00004   -0.00837    0.06694
 20 Li   -0.01493    0.03409   -0.07248
 21 Li   -0.00767   -0.00794    0.06057
 22 Li   -0.00043    0.00539    0.01389
 23 Li    0.00800   -0.00794    0.06084
 24 Li    0.02833   -0.03530   -0.05104
 25 Li   -0.00002    0.00154    0.06033
 26 Li   -0.02834   -0.03514   -0.05065
 27 Li    0.00149   -0.20606   -1.76832
 28 Li    0.08691   -0.01914   -0.04967
 29 Li   -0.08776   -0.01933   -0.05462
 30 Li   -0.00017   -0.19096    0.13484
 31 Li    0.04521    0.03828   -0.04388
 32 Li   -0.04544    0.03858   -0.04642
 33 Li   -0.00032    0.00123   -0.00991
 34 Li    0.00224   -0.01213   -0.03044
 35 Li   -0.00194   -0.01217   -0.03100
 36 O     0.00747   -0.00720   -0.05127
 37 C     0.00344    0.02708   -0.06467
 38 C    -0.00488    0.00338   -0.11228
 39 H     0.00370    0.02191   -0.01738
 40 H    -0.00646    0.00344   -0.01278
 41 H    -0.00430   -0.02405   -0.25542
 42 H     0.00361   -0.00353   -0.04203
 43 H    -0.00741   -0.00266   -0.03092
 44 H     0.00638   -0.01458   -0.02971
 45 N    -0.00256    0.23622    1.75405
 46 N    -0.00008    0.17706    0.22763

System changes: positions 

Initializing position-dependent things.

Density initialized from wave functions
       .-----------------------.  
      /|                       |  
     / H                       |  
    /  |                       |  
   /   |                       |  
  /    |H                   H C|  
 *     O                       |  
 |     |                       |  
 |     |               H       |  
 C  H  |                       |  
 |     |                       |  
 |     |                       |  
 |     |               H       |  
 |     Li      Li      Li      |  
 |     |                       |  
 |     |     Li      Li      Li|  
 |     |                       |  
 |     |  LLi     LLi    NNLi  |  
 |     |                       |  
 |     |Li      Li      Li     |  
 |   Li|     Li      Li        |  
 |    Li  Li  Li  Li  Li  Li   |  
 | Li  |   Li      Li          |  
 |     |Li      Li      Li     |  
 Li    | Li      Li            |  
 |    Li      Li      Li       |  
 |     |                       |  
 |     |                       |  
 |     |                       |  
 |     |                       |  
 |     |                       |  
 |     |                       |  
 |     .-----------------------.  
 |    /                       /   
 |   /                       /    
 |  /                       /     
 | /                       /      
 |/                       /       
 *-----------------------*        

Positions:
   0 Li     1.617037    1.617037   10.000000    ( 0.0000,  0.0000,  0.0000)
   1 Li     4.851111    1.617037   10.000000    ( 0.0000,  0.0000,  0.0000)
   2 Li     8.085185    1.617037   10.000000    ( 0.0000,  0.0000,  0.0000)
   3 Li     1.617037    4.851111   10.000000    ( 0.0000,  0.0000,  0.0000)
   4 Li     4.851111    4.851111   10.000000    ( 0.0000,  0.0000,  0.0000)
   5 Li     8.085185    4.851111   10.000000    ( 0.0000,  0.0000,  0.0000)
   6 Li     1.617037    8.085185   10.000000    ( 0.0000,  0.0000,  0.0000)
   7 Li     4.851111    8.085185   10.000000    ( 0.0000,  0.0000,  0.0000)
   8 Li     8.085185    8.085185   10.000000    ( 0.0000,  0.0000,  0.0000)
   9 Li     0.000000    0.000000   11.617037    ( 0.0000,  0.0000,  0.0000)
  10 Li     3.234074    0.000000   11.617037    ( 0.0000,  0.0000,  0.0000)
  11 Li     6.468148    0.000000   11.617037    ( 0.0000,  0.0000,  0.0000)
  12 Li     0.000000    3.234074   11.617037    ( 0.0000,  0.0000,  0.0000)
  13 Li     3.234074    3.234074   11.617037    ( 0.0000,  0.0000,  0.0000)
  14 Li     6.468148    3.234074   11.617037    ( 0.0000,  0.0000,  0.0000)
  15 Li     0.000000    6.468148   11.617037    ( 0.0000,  0.0000,  0.0000)
  16 Li     3.234074    6.468148   11.617037    ( 0.0000,  0.0000,  0.0000)
  17 Li     6.468148    6.468148   11.617037    ( 0.0000,  0.0000,  0.0000)
  18 Li     1.617404    1.619092   13.465084    ( 0.0000,  0.0000,  0.0000)
  19 Li     4.851116    1.616373   13.474747    ( 0.0000,  0.0000,  0.0000)
  20 Li     8.084810    1.619078   13.465119    ( 0.0000,  0.0000,  0.0000)
  21 Li     1.616512    4.850715   13.474231    ( 0.0000,  0.0000,  0.0000)
  22 Li     4.851079    4.851373   13.470784    ( 0.0000,  0.0000,  0.0000)
  23 Li     8.085735    4.850714   13.474251    ( 0.0000,  0.0000,  0.0000)
  24 Li     1.618887    8.083006   13.466226    ( 0.0000,  0.0000,  0.0000)
  25 Li     4.851111    8.085436   13.474441    ( 0.0000,  0.0000,  0.0000)
  26 Li     8.083332    8.083019   13.466257    ( 0.0000,  0.0000,  0.0000)
  27 Li     0.000123   -0.019005   15.251806    ( 0.0000,  0.0000,  0.0000)
  28 Li     3.240757   -0.001418   15.442246    ( 0.0000,  0.0000,  0.0000)
  29 Li     6.461402   -0.001431   15.441881    ( 0.0000,  0.0000,  0.0000)
  30 Li    -0.000014    3.220103   15.455806    ( 0.0000,  0.0000,  0.0000)
  31 Li     3.237483    3.236985   15.442714    ( 0.0000,  0.0000,  0.0000)
  32 Li     6.464722    3.237007   15.442526    ( 0.0000,  0.0000,  0.0000)
  33 Li    -0.000025    6.467878   15.445079    ( 0.0000,  0.0000,  0.0000)
  34 Li     3.234280    6.467194   15.443620    ( 0.0000,  0.0000,  0.0000)
  35 Li     6.467965    6.467193   15.443580    ( 0.0000,  0.0000,  0.0000)
  36 O      9.702769    9.701260   21.443931    ( 0.0000,  0.0000,  0.0000)
  37 C      9.698163    8.887904   22.624993    ( 0.0000,  0.0000,  0.0000)
  38 C      9.712205    9.704551   23.903473    ( 0.0000,  0.0000,  0.0000)
  39 H      8.838429    8.203887   22.618609    ( 0.0000,  0.0000,  0.0000)
  40 H     10.599898    8.276138   22.552160    ( 0.0000,  0.0000,  0.0000)
  41 H      9.727357    9.051404   24.766950    ( 0.0000,  0.0000,  0.0000)
  42 H     10.588660   10.353004   23.944669    ( 0.0000,  0.0000,  0.0000)
  43 H      8.820319   10.332541   23.981082    ( 0.0000,  0.0000,  0.0000)
  44 H      8.934450   10.284084   21.483078    ( 0.0000,  0.0000,  0.0000)
  45 N      9.701749    9.702442   17.131589    ( 0.0000,  0.0000,  0.0000)
  46 N      9.701974   10.829273   16.967318    ( 0.0000,  0.0000,  0.0000)

Unit cell:
           periodic     x           y           z      points  spacing
  1. axis:    yes    9.702222    0.000000    0.000000    60     0.1617
  2. axis:    yes    0.000000    9.702222    0.000000    60     0.1617
  3. axis:    no     0.000000    0.000000   26.351111   164     0.1607

  Lengths:   9.702222   9.702222  26.351111
  Angles:   90.000000  90.000000  90.000000

Effective grid spacing dv^(1/3) = 0.1614

     iter     time        total  log10-change:
                         energy  eigst   dens
iter:   1 01:16:17  -308.130093  -0.99
iter:   2 01:24:19  -308.126628  -1.60  -2.02
iter:   3 01:30:40  -308.122791c -2.18  -2.14
iter:   4 01:33:39  -308.120129c -2.24  -2.38
Writing to output.gpw (mode='')

iter:   5 01:38:06  -308.119217c -2.13  -2.57
iter:   6 01:41:51  -308.118275c -2.79  -2.62
iter:   7 01:45:16  -308.118163c -3.04  -2.84
iter:   8 01:49:38  -308.118123c -3.16  -2.98
iter:   9 01:53:44  -308.118060c -3.49  -3.07
Writing to output.gpw (mode='')

iter:  10 01:56:29  -308.118047c -3.73  -3.16
iter:  11 02:01:38  -308.118063c -4.05  -3.32
iter:  12 02:08:29  -308.118062c -4.32  -3.43
iter:  13 02:14:10  -308.118055c -4.28  -3.43
iter:  14 02:19:13  -308.118061c -4.51  -3.66
Writing to output.gpw (mode='')

iter:  15 02:24:47  -308.118061c -4.93  -3.80
iter:  16 02:31:37  -308.118064c -4.83  -3.83
iter:  17 02:34:24  -308.118063c -4.88  -3.86
iter:  18 02:37:25  -308.118053c -5.11  -3.91
iter:  19 02:42:24  -308.118052c -5.22  -4.08c
Writing to output.gpw (mode='')

iter:  20 02:45:27  -308.118051c -5.48  -4.15c
iter:  21 02:49:41  -308.118051c -5.57  -4.27c
iter:  22 02:53:49  -308.118051c -5.68  -4.32c
iter:  23 02:56:58  -308.118050c -5.83  -4.35c
iter:  24 03:00:50  -308.118051c -6.00  -4.56c
Writing to output.gpw (mode='')

iter:  25 03:03:21  -308.118052c -6.03  -4.57c
iter:  26 03:06:04  -308.118052c -5.91  -4.67c
iter:  27 03:09:46  -308.118052c -6.11  -4.60c
iter:  28 03:14:38  -308.118052c -6.37  -4.96c
iter:  29 03:21:06  -308.118052c -6.39  -4.99c
Writing to output.gpw (mode='')

iter:  30 03:26:48  -308.118052c -6.34  -5.15c
iter:  31 03:33:36  -308.118052c -6.44  -5.23c
iter:  32 03:39:10  -308.118052c -6.73  -5.24c
iter:  33 03:46:33  -308.118052c -6.66  -5.24c
iter:  34 03:53:53  -308.118053c -6.67  -5.23c
Writing to output.gpw (mode='')

iter:  35 03:58:04  -308.118053c -6.57  -5.20c
iter:  36 04:02:01  -308.118053c -7.03  -5.21c
iter:  37 04:05:56  -308.118053c -7.09  -5.16c
iter:  38 04:10:03  -308.118052c -7.07  -5.33c
iter:  39 04:14:27  -308.118053c -7.21  -5.44c
Writing to output.gpw (mode='')

iter:  40 04:18:44  -308.118052c -7.15  -5.43c
iter:  41 04:23:06  -308.118052c -7.14  -5.50c
iter:  42 04:27:23  -308.118052c -7.38  -5.61c
iter:  43 04:31:41  -308.118052c -7.35  -5.65c
iter:  44 04:37:33  -308.118052c -7.40c -5.83c

Converged after 44 iterations.

Dipole moment: (-21.401504, -13.644072, 0.343891) |e|*Ang

Energy contributions relative to reference atoms: (reference = -14434.854043)

Kinetic:       +153.270756
Potential:     -146.911863
External:        +0.000000
XC:            -315.164239
Entropy (-ST):   -0.146214
Local:           +0.760400
--------------------------
Free energy:   -308.191159
Extrapolated:  -308.118052

Dipole-layer corrected work functions: 3.404091, 2.743014 eV

Showing only first 2 kpts
 Kpt  Band  Eigenvalues  Occupancy
  0    31     -3.33139    1.98854
  0    32     -3.28340    1.97036
  0    33     -2.92385    0.09539
  0    34     -2.86003    0.02757

  1    31     -3.11314    1.37643
  1    32     -3.07260    0.99046
  1    33     -3.04170    0.69184
  1    34     -2.95429    0.16860


Fermi level: -3.07355

No gap
Writing to output.gpw (mode='')


Forces in eV/Ang:
  0 Li    0.01351    0.00932   -0.27636
  1 Li    0.00009    0.00002   -0.26804
  2 Li   -0.01361    0.00930   -0.27647
  3 Li   -0.00763    0.00873   -0.26313
  4 Li    0.00004   -0.00361   -0.29309
  5 Li    0.00761    0.00870   -0.26346
  6 Li    0.00157   -0.01828   -0.28017
  7 Li    0.00008    0.00665   -0.26688
  8 Li   -0.00162   -0.01825   -0.28025
  9 Li   -0.00016    0.00133    0.35239
 10 Li    0.01230    0.00142    0.26702
 11 Li   -0.01215    0.00147    0.26645
 12 Li   -0.00001    0.01903    0.26586
 13 Li    0.01647    0.00282    0.25512
 14 Li   -0.01637    0.00280    0.25498
 15 Li    0.00007   -0.01426    0.24127
 16 Li    0.00809   -0.00715    0.25193
 17 Li   -0.00819   -0.00713    0.25228
 18 Li    0.02470    0.03983   -0.07993
 19 Li    0.00001   -0.00738    0.06326
 20 Li   -0.02475    0.03966   -0.07955
 21 Li   -0.00854   -0.01064    0.05886
 22 Li   -0.00043    0.00707    0.01263
 23 Li    0.00887   -0.01064    0.05910
 24 Li    0.03230   -0.04099   -0.05383
 25 Li   -0.00005   -0.00076    0.05471
 26 Li   -0.03229   -0.04083   -0.05346
 27 Li    0.00124   -0.15616   -1.09956
 28 Li    0.08057   -0.01841   -0.04888
 29 Li   -0.08139   -0.01860   -0.05369
 30 Li   -0.00016   -0.18800    0.13188
 31 Li    0.04322    0.03604   -0.04302
 32 Li   -0.04344    0.03634   -0.04547
 33 Li   -0.00031    0.00402   -0.00832
 34 Li    0.00165   -0.01073   -0.02855
 35 Li   -0.00135   -0.01078   -0.02909
 36 O     0.00924   -0.00574   -0.07399
 37 C     0.00352    0.02296   -0.07686
 38 C    -0.00376    0.01254   -0.09288
 39 H    -0.00029    0.01800   -0.02273
 40 H    -0.00160    0.00204   -0.01763
 41 H     0.00007   -0.04685   -0.19924
 42 H     0.01013    0.00506   -0.04816
 43 H    -0.01603    0.00604   -0.03958
 44 H     0.00339   -0.01012   -0.03366
 45 N    -0.00070    0.27057    1.11978
 46 N     0.00049    0.08214    0.17763

System changes: positions 

Initializing position-dependent things.

Density initialized from wave functions
       .-----------------------.  
      /|                       |  
     / H                       |  
    /  |                       |  
   /   |                       |  
  /    |H                   H C|  
 *     O                       |  
 |     |                       |  
 |     |               H       |  
 C  H  |                       |  
 |     |                       |  
 |     |                       |  
 |     |               H       |  
 |     |       Li      Li      |  
 |     Li                      |  
 |     |     Li      Li      Li|  
 |     |                       |  
 |     |  LLi     LLi    NNLi  |  
 |     |                       |  
 |     |Li      Li      Li     |  
 |   Li|     Li      Li        |  
 |    Li  Li  Li  Li  Li  Li   |  
 | Li  |   Li      Li          |  
 |     |Li      Li      Li     |  
 Li    | Li      Li            |  
 |    Li      Li      Li       |  
 |     |                       |  
 |     |                       |  
 |     |                       |  
[...]
iter:  11 19:24:14  -308.634830c -4.43  -3.48
iter:  12 19:27:42  -308.634819c -4.64  -3.50
iter:  13 19:31:53  -308.634821c -4.64  -3.58
iter:  14 19:35:16  -308.634816c -4.93  -3.83
Writing to output.gpw (mode='')

iter:  15 19:38:35  -308.634814c -5.32  -3.78
iter:  16 19:41:50  -308.634822c -5.09  -3.84
iter:  17 19:46:38  -308.634823c -5.59  -4.08c
iter:  18 19:50:20  -308.634821c -5.86  -4.16c
iter:  19 19:54:18  -308.634822c -5.90  -4.27c
Writing to output.gpw (mode='')

iter:  20 19:59:00  -308.634823c -6.10  -4.33c
iter:  21 20:03:55  -308.634824c -6.07  -4.36c
iter:  22 20:09:13  -308.634825c -6.23  -4.47c
iter:  23 20:13:28  -308.634825c -6.35  -4.51c
iter:  24 20:19:53  -308.634825c -6.63  -4.79c
Writing to output.gpw (mode='')

iter:  25 20:23:54  -308.634825c -6.79  -4.85c
iter:  26 20:28:48  -308.634825c -6.77  -4.88c
iter:  27 20:33:40  -308.634825c -6.89  -4.94c
iter:  28 20:37:12  -308.634825c -7.00  -5.12c
iter:  29 20:40:56  -308.634825c -6.92  -5.20c
Writing to output.gpw (mode='')

iter:  30 20:45:14  -308.634825c -7.15  -5.28c
iter:  31 20:48:49  -308.634825c -7.32  -5.31c
iter:  32 20:52:31  -308.634825c -7.33  -5.38c
iter:  33 20:55:57  -308.634825c -7.34  -5.52c
iter:  34 20:59:19  -308.634825c -7.47c -5.56c

Converged after 34 iterations.

Dipole moment: (-17.189357, -5.073955, 0.233742) |e|*Ang

Energy contributions relative to reference atoms: (reference = -14434.854043)

Kinetic:       +149.884145
Potential:     -144.982490
External:        +0.000000
XC:            -314.226552
Entropy (-ST):   -0.150994
Local:           +0.765569
--------------------------
Free energy:   -308.710322
Extrapolated:  -308.634825

Dipole-layer corrected work functions: 3.406412, 2.957079 eV

Showing only first 2 kpts
 Kpt  Band  Eigenvalues  Occupancy
  0    31     -3.42911    1.98589
  0    32     -3.37498    1.95893
  0    33     -3.03429    0.09955
  0    34     -2.98280    0.03673

  1    31     -3.22888    1.43931
  1    32     -3.17019    0.88497
  1    33     -3.13240    0.54305
  1    34     -3.10322    0.34427


Fermi level: -3.18175

No gap
Writing to output.gpw (mode='')


Forces in eV/Ang:
  0 Li    0.01740    0.00810   -0.25991
  1 Li   -0.00263    0.00616   -0.27899
  2 Li   -0.01538    0.00841   -0.25991
  3 Li   -0.00396    0.01369   -0.27400
  4 Li   -0.00065    0.00200   -0.28382
  5 Li    0.00553    0.01584   -0.27231
  6 Li   -0.00143   -0.01270   -0.27349
  7 Li   -0.00025    0.00444   -0.27746
  8 Li    0.00164   -0.01444   -0.27444
  9 Li    0.00126   -0.02156    0.27996
 10 Li   -0.00634   -0.01403    0.28805
 11 Li    0.00727   -0.01627    0.29575
 12 Li    0.00329    0.00842    0.23808
 13 Li   -0.01872    0.00953    0.27409
 14 Li    0.01667    0.01333    0.27623
 15 Li    0.00081   -0.06513    0.23178
 16 Li   -0.07571   -0.03721    0.27483
 17 Li    0.07395   -0.03961    0.27871
 18 Li    0.00422   -0.00350    0.02286
 19 Li    0.00151   -0.01979    0.00821
 20 Li   -0.00301   -0.00381    0.02338
 21 Li    0.01776    0.01609   -0.03222
 22 Li    0.00061   -0.00846    0.00540
 23 Li   -0.01601    0.01693   -0.03262
 24 Li   -0.01689    0.02329    0.03800
 25 Li   -0.00004    0.02211    0.01632
 26 Li    0.01670    0.02337    0.03752
 27 Li    0.00160    0.03710   -0.07904
 28 Li   -0.03055    0.00204    0.01111
 29 Li    0.02809    0.00007    0.00968
 30 Li   -0.00559   -0.07596    0.02801
 31 Li   -0.01886    0.00035    0.00821
 32 Li    0.02163    0.00214    0.00910
 33 Li    0.00004    0.05016   -0.02252
 34 Li    0.01220   -0.01059    0.01611
 35 Li   -0.01288   -0.01034    0.01524
 36 O    -0.03111   -0.00806   -0.03556
 37 C     0.01254    0.01099   -0.02085
 38 C     0.01887   -0.01817    0.00842
 39 H     0.07818   -0.00413   -0.03531
 40 H    -0.03043   -0.05664   -0.02626
 41 H     0.00041    0.04678    0.06341
 42 H     0.00395   -0.00609    0.00271
 43 H    -0.01052   -0.00484   -0.01365
 44 H    -0.00137    0.02774   -0.07956
 45 N     0.00192    0.14323   -0.00142
 46 N    -0.00381    0.00196   -0.05812

System changes: positions 

Initializing position-dependent things.

Density initialized from wave functions
       .-----------------------.  
      /|                       |  
     / |                       |  
    /  H                       |  
   /   C                       |  
  /    |                       |  
 *     CH                   H  |  
 |     O                       |  
 |     |                       |  
 |  H  |               H       |  
 |     |                       |  
 |     |                       |  
 |     |                H      |  
 |     Li      Li      Li      |  
 |     |                       |  
 |     |     Li      Li      Li|  
 |     |                 NN    |  
 | Li  |  LLi     LLi     Li   |  
 |     |                       |  
 |     |Li      Li      Li     |  
 |   Li|     Li      Li        |  
 |    Li  Li  Li  Li  Li  Li   |  
 | Li  |   Li      Li          |  
 |     |Li      Li      Li     |  
 Li    | Li      Li            |  
 |    Li      Li      Li       |  
 |     |                       |  
 |     |                       |  
 |     |                       |  
 |     |                       |  
 |     |                       |  
 |     |                       |  
 |     .-----------------------.  
 |    /                       /   
 |   /                       /    
 |  /                       /     
 | /                       /      
 |/                       /       
 *-----------------------*        

Positions:
   0 Li     1.617037    1.617037   10.000000    ( 0.0000,  0.0000,  0.0000)
   1 Li     4.851111    1.617037   10.000000    ( 0.0000,  0.0000,  0.0000)
   2 Li     8.085185    1.617037   10.000000    ( 0.0000,  0.0000,  0.0000)
   3 Li     1.617037    4.851111   10.000000    ( 0.0000,  0.0000,  0.0000)
   4 Li     4.851111    4.851111   10.000000    ( 0.0000,  0.0000,  0.0000)
   5 Li     8.085185    4.851111   10.000000    ( 0.0000,  0.0000,  0.0000)
   6 Li     1.617037    8.085185   10.000000    ( 0.0000,  0.0000,  0.0000)
   7 Li     4.851111    8.085185   10.000000    ( 0.0000,  0.0000,  0.0000)
   8 Li     8.085185    8.085185   10.000000    ( 0.0000,  0.0000,  0.0000)
   9 Li     0.000000    0.000000   11.617037    ( 0.0000,  0.0000,  0.0000)
  10 Li     3.234074    0.000000   11.617037    ( 0.0000,  0.0000,  0.0000)
  11 Li     6.468148    0.000000   11.617037    ( 0.0000,  0.0000,  0.0000)
  12 Li     0.000000    3.234074   11.617037    ( 0.0000,  0.0000,  0.0000)
  13 Li     3.234074    3.234074   11.617037    ( 0.0000,  0.0000,  0.0000)
  14 Li     6.468148    3.234074   11.617037    ( 0.0000,  0.0000,  0.0000)
  15 Li     0.000000    6.468148   11.617037    ( 0.0000,  0.0000,  0.0000)
  16 Li     3.234074    6.468148   11.617037    ( 0.0000,  0.0000,  0.0000)
  17 Li     6.468148    6.468148   11.617037    ( 0.0000,  0.0000,  0.0000)
  18 Li     1.571333    1.591687   13.487837    ( 0.0000,  0.0000,  0.0000)
  19 Li     4.850704    1.655029   13.424024    ( 0.0000,  0.0000,  0.0000)
  20 Li     8.133776    1.596212   13.478422    ( 0.0000,  0.0000,  0.0000)
  21 Li     1.562848    4.774748   13.555471    ( 0.0000,  0.0000,  0.0000)
  22 Li     4.849559    4.884337   13.447023    ( 0.0000,  0.0000,  0.0000)
  23 Li     8.143312    4.772649   13.555932    ( 0.0000,  0.0000,  0.0000)
  24 Li     1.574850    8.042875   13.494345    ( 0.0000,  0.0000,  0.0000)
  25 Li     4.847158    8.034405   13.419757    ( 0.0000,  0.0000,  0.0000)
  26 Li     8.130259    8.040853   13.492352    ( 0.0000,  0.0000,  0.0000)
  27 Li     0.008756   -0.182547   15.672690    ( 0.0000,  0.0000,  0.0000)
  28 Li     3.315170   -0.007172   15.313886    ( 0.0000,  0.0000,  0.0000)
  29 Li     6.380458   -0.015735   15.300426    ( 0.0000,  0.0000,  0.0000)
  30 Li     0.025344    3.076723   15.689930    ( 0.0000,  0.0000,  0.0000)
  31 Li     3.295753    3.243280   15.389171    ( 0.0000,  0.0000,  0.0000)
  32 Li     6.411859    3.249874   15.381368    ( 0.0000,  0.0000,  0.0000)
  33 Li    -0.001502    6.287452   15.555401    ( 0.0000,  0.0000,  0.0000)
  34 Li     3.214361    6.485928   15.407566    ( 0.0000,  0.0000,  0.0000)
  35 Li     6.489139    6.488224   15.404431    ( 0.0000,  0.0000,  0.0000)
  36 O      9.800103    9.654155   21.003246    ( 0.0000,  0.0000,  0.0000)
  37 C      9.732912    8.866689   22.198338    ( 0.0000,  0.0000,  0.0000)
  38 C      9.738871    9.697932   23.470512    ( 0.0000,  0.0000,  0.0000)
  39 H      8.850101    8.212184   22.181180    ( 0.0000,  0.0000,  0.0000)
  40 H     10.620135    8.232775   22.167379    ( 0.0000,  0.0000,  0.0000)
  41 H      9.764695    9.029170   24.330128    ( 0.0000,  0.0000,  0.0000)
  42 H     10.615981   10.346590   23.502158    ( 0.0000,  0.0000,  0.0000)
  43 H      8.842328   10.319356   23.549074    ( 0.0000,  0.0000,  0.0000)
  44 H      8.991557   10.176915   20.954073    ( 0.0000,  0.0000,  0.0000)
  45 N      9.585561   10.387370   17.759534    ( 0.0000,  0.0000,  0.0000)
  46 N      9.653997   11.322878   17.122870    ( 0.0000,  0.0000,  0.0000)

Unit cell:
           periodic     x           y           z      points  spacing
  1. axis:    yes    9.702222    0.000000    0.000000    60     0.1617
  2. axis:    yes    0.000000    9.702222    0.000000    60     0.1617
  3. axis:    no     0.000000    0.000000   26.351111   164     0.1607

  Lengths:   9.702222   9.702222  26.351111
  Angles:   90.000000  90.000000  90.000000

Effective grid spacing dv^(1/3) = 0.1614

     iter     time        total  log10-change:
                         energy  eigst   dens
iter:   1 21:03:59  -308.640747  -1.13
iter:   2 21:07:15  -308.640846  -2.06  -2.28
iter:   3 21:10:31  -308.638721c -2.75  -2.34
iter:   4 21:14:34  -308.638908c -3.11  -2.51
Writing to output.gpw (mode='')

iter:   5 21:17:58  -308.636834c -2.69  -2.45
iter:   6 21:22:12  -308.636662c -2.93  -2.75
iter:   7 21:26:07  -308.636284c -3.53  -2.80
iter:   8 21:32:41  -308.636364c -3.53  -2.93
iter:   9 21:36:26  -308.636317c -4.09  -3.06
Writing to output.gpw (mode='')

iter:  10 21:39:53  -308.636190c -4.02  -3.20
iter:  11 21:43:39  -308.636245c -4.41  -3.45
iter:  12 21:47:45  -308.636219c -4.42  -3.39
iter:  13 21:51:53  -308.636205c -4.40  -3.50
iter:  14 21:56:47  -308.636202c -5.03  -3.83
Writing to output.gpw (mode='')

iter:  15 22:00:27  -308.636202c -5.63  -3.84
iter:  16 22:06:06  -308.636214c -4.98  -3.92
iter:  17 22:10:24  -308.636207c -5.44  -3.93
iter:  18 22:15:25  -308.636206c -6.13  -4.24c
iter:  19 22:19:27  -308.636206c -6.27  -4.36c
Writing to output.gpw (mode='')

iter:  20 22:22:56  -308.636203c -6.13  -4.41c
iter:  21 22:27:56  -308.636202c -6.21  -4.51c
iter:  22 22:32:49  -308.636203c -6.72  -4.72c
iter:  23 22:36:25  -308.636203c -6.68  -4.70c
iter:  24 22:39:50  -308.636203c -7.03  -4.63c
Writing to output.gpw (mode='')

iter:  25 22:42:35  -308.636204c -6.91  -4.72c
iter:  26 22:47:39  -308.636206c -7.14  -4.83c
iter:  27 22:52:21  -308.636205c -7.42c -4.89c

Converged after 27 iterations.

Dipole moment: (-16.634260, -4.634805, 0.230563) |e|*Ang

Energy contributions relative to reference atoms: (reference = -14434.854043)

Kinetic:       +149.761008
Potential:     -144.892327
External:        +0.000000
XC:            -314.194006
Entropy (-ST):   -0.151104
Local:           +0.764673
--------------------------
Free energy:   -308.711757
Extrapolated:  -308.636205

Dipole-layer corrected work functions: 3.406475, 2.963253 eV

Showing only first 2 kpts
 Kpt  Band  Eigenvalues  Occupancy
  0    31     -3.43182    1.98578
  0    32     -3.37789    1.95876
  0    33     -3.03743    0.09959
  0    34     -2.98671    0.03730

  1    31     -3.23243    1.44274
  1    32     -3.17296    0.88150
  1    33     -3.13480    0.53742
  1    34     -3.10758    0.35141


Fermi level: -3.18486

No gap
Writing to output.gpw (mode='')


Forces in eV/Ang:
  0 Li    0.01762    0.00787   -0.25978
  1 Li   -0.00282    0.00601   -0.27923
  2 Li   -0.01548    0.00821   -0.25973
  3 Li   -0.00415    0.01376   -0.27433
  4 Li   -0.00067    0.00191   -0.28252
  5 Li    0.00580    0.01607   -0.27256
  6 Li   -0.00141   -0.01266   -0.27310
  7 Li   -0.00027    0.00434   -0.27804
  8 Li    0.00165   -0.01456   -0.27407
  9 Li    0.00137   -0.02115    0.27847
 10 Li   -0.00819   -0.01391    0.28813
 11 Li    0.00918   -0.01641    0.29620
 12 Li    0.00346    0.00541    0.24112
 13 Li   -0.02131    0.00893    0.27358
 14 Li    0.01924    0.01302    0.27587
 15 Li    0.00087   -0.06259    0.23075
 16 Li   -0.07846   -0.03617    0.27280
 17 Li    0.07658   -0.03860    0.27681
 18 Li    0.00289   -0.00185    0.01823
 19 Li    0.00170   -0.02380    0.01662
 20 Li   -0.00159   -0.00235    0.01897
 21 Li    0.01924    0.01520   -0.03021
 22 Li    0.00069   -0.01042    0.01008
 23 Li   -0.01742    0.01618   -0.03061
 24 Li   -0.01941    0.02431    0.03885
 25 Li    0.00009    0.02768    0.02489
 26 Li    0.01909    0.02440    0.03833
 27 Li    0.00163    0.03469   -0.08607
 28 Li   -0.02706    0.00120    0.00834
 29 Li    0.02451   -0.00067    0.00662
 30 Li   -0.00790   -0.09243    0.04018
 31 Li   -0.01721    0.00284    0.00647
 32 Li    0.02007    0.00463    0.00733
 33 Li    0.00003    0.05952   -0.02644
 34 Li    0.01487   -0.01260    0.01645
 35 Li   -0.01562   -0.01241    0.01542
 36 O     0.00702   -0.03459   -0.01757
 37 C    -0.00362    0.00353   -0.01352
 38 C     0.02911   -0.02041   -0.02560
 39 H     0.04006   -0.00156   -0.03371
 40 H     0.00660   -0.05140   -0.03024
 41 H    -0.00546    0.05226    0.05817
 42 H    -0.02070    0.00317    0.01101
 43 H     0.00993    0.00036   -0.01057
 44 H    -0.02515    0.05094   -0.08540
 45 N     0.02287    0.12489   -0.00435
 46 N     0.00926   -0.06158   -0.04382

System changes: positions 

Initializing position-dependent things.

Density initialized from wave functions
       .-----------------------.  
      /|                       |  
     / |                       |  
    /  H                       |  
   /   C                       |  
  /    |                       |  
 *     CH                   H  |  
 |     O                       |  
 |     |                       |  
 |  H  |               H       |  
 |     |                       |  
 |     |                       |  
 |     |                H      |  
 |     Li      Li      Li      |  
 |     |                       |  
 |     |     Li      Li      Li|  
 |     |                 NN    |  
 | Li  |  LLi     LLi     Li   |  
 |     |                       |  
 |     |Li      Li      Li     |  
 |   Li|     Li      Li        |  
 |    Li  Li  Li  Li  Li  Li   |  
 | Li  |   Li      Li          |  
 |     |Li      Li      Li     |  
 Li    | Li      Li            |  
 |    Li      Li      Li       |  
 |     |                       |  
 |     |                       |  
 |     |                       |  
 |     |                       |  
 |     |                       |  
 |     |                       |  
 |     .-----------------------.  
 |    /                       /   
 |   /                       /    
 |  /                       /     
 | /                       /      
 |/                       /       
 *-----------------------*        

Positions:
   0 Li     1.617037    1.617037   10.000000    ( 0.0000,  0.0000,  0.0000)
   1 Li     4.851111    1.617037   10.000000    ( 0.0000,  0.0000,  0.0000)
   2 Li     8.085185    1.617037   10.000000    ( 0.0000,  0.0000,  0.0000)
   3 Li     1.617037    4.851111   10.000000    ( 0.0000,  0.0000,  0.0000)
   4 Li     4.851111    4.851111   10.000000    ( 0.0000,  0.0000,  0.0000)
   5 Li     8.085185    4.851111   10.000000    ( 0.0000,  0.0000,  0.0000)
   6 Li     1.617037    8.085185   10.000000    ( 0.0000,  0.0000,  0.0000)
   7 Li     4.851111    8.085185   10.000000    ( 0.0000,  0.0000,  0.0000)
   8 Li     8.085185    8.085185   10.000000    ( 0.0000,  0.0000,  0.0000)
   9 Li     0.000000    0.000000   11.617037    ( 0.0000,  0.0000,  0.0000)
  10 Li     3.234074    0.000000   11.617037    ( 0.0000,  0.0000,  0.0000)
  11 Li     6.468148    0.000000   11.617037    ( 0.0000,  0.0000,  0.0000)
  12 Li     0.000000    3.234074   11.617037    ( 0.0000,  0.0000,  0.0000)
  13 Li     3.234074    3.234074   11.617037    ( 0.0000,  0.0000,  0.0000)
  14 Li     6.468148    3.234074   11.617037    ( 0.0000,  0.0000,  0.0000)
  15 Li     0.000000    6.468148   11.617037    ( 0.0000,  0.0000,  0.0000)
  16 Li     3.234074    6.468148   11.617037    ( 0.0000,  0.0000,  0.0000)
  17 Li     6.468148    6.468148   11.617037    ( 0.0000,  0.0000,  0.0000)
  18 Li     1.572642    1.592599   13.486828    ( 0.0000,  0.0000,  0.0000)
  19 Li     4.850756    1.654944   13.424574    ( 0.0000,  0.0000,  0.0000)
  20 Li     8.132544    1.597179   13.477293    ( 0.0000,  0.0000,  0.0000)
  21 Li     1.562827    4.774822   13.555817    ( 0.0000,  0.0000,  0.0000)
  22 Li     4.849556    4.884673   13.446929    ( 0.0000,  0.0000,  0.0000)
  23 Li     8.143446    4.772713   13.556279    ( 0.0000,  0.0000,  0.0000)
  24 Li     1.575618    8.041741   13.493996    ( 0.0000,  0.0000,  0.0000)
  25 Li     4.847094    8.034032   13.420111    ( 0.0000,  0.0000,  0.0000)
  26 Li     8.129528    8.039698   13.491970    ( 0.0000,  0.0000,  0.0000)
  27 Li     0.008952   -0.182196   15.673767    ( 0.0000,  0.0000,  0.0000)
  28 Li     3.316198   -0.007501   15.312964    ( 0.0000,  0.0000,  0.0000)
  29 Li     6.379228   -0.016270   15.299252    ( 0.0000,  0.0000,  0.0000)
  30 Li     0.025591    3.073184   15.692652    ( 0.0000,  0.0000,  0.0000)
  31 Li     3.296225    3.243765   15.388232    ( 0.0000,  0.0000,  0.0000)
  32 Li     6.411555    3.250539   15.380343    ( 0.0000,  0.0000,  0.0000)
  33 Li    -0.001529    6.286624   15.556208    ( 0.0000,  0.0000,  0.0000)
  34 Li     3.214112    6.485769   15.407202    ( 0.0000,  0.0000,  0.0000)
  35 Li     6.489391    6.488105   15.404005    ( 0.0000,  0.0000,  0.0000)
  36 O      9.800186    9.652003   20.995806    ( 0.0000,  0.0000,  0.0000)
  37 C      9.733598    8.866602   22.192556    ( 0.0000,  0.0000,  0.0000)
  38 C      9.739841    9.697441   23.465096    ( 0.0000,  0.0000,  0.0000)
  39 H      8.852789    8.211293   22.174530    ( 0.0000,  0.0000,  0.0000)
  40 H     10.619464    8.230649   22.160520    ( 0.0000,  0.0000,  0.0000)
  41 H      9.765309    9.030945   24.327418    ( 0.0000,  0.0000,  0.0000)
  42 H     10.616542   10.346091   23.496871    ( 0.0000,  0.0000,  0.0000)
  43 H      8.842274   10.318898   23.542996    ( 0.0000,  0.0000,  0.0000)
  44 H      8.992742   10.176565   20.943865    ( 0.0000,  0.0000,  0.0000)
  45 N      9.583810   10.397613   17.768722    ( 0.0000,  0.0000,  0.0000)
  46 N      9.653124   11.329369   17.125743    ( 0.0000,  0.0000,  0.0000)

Unit cell:
           periodic     x           y           z      points  spacing
  1. axis:    yes    9.702222    0.000000    0.000000    60     0.1617
  2. axis:    yes    0.000000    9.702222    0.000000    60     0.1617
  3. axis:    no     0.000000    0.000000   26.351111   164     0.1607

  Lengths:   9.702222   9.702222  26.351111
  Angles:   90.000000  90.000000  90.000000

Effective grid spacing dv^(1/3) = 0.1614

     iter     time        total  log10-change:
                         energy  eigst   dens
iter:   1 22:56:48  -308.641644  -1.83
iter:   2 23:00:48  -308.641163  -2.52  -2.32
iter:   3 23:06:32  -308.639456c -3.29  -2.38
iter:   4 23:12:45  -308.639278c -3.69  -2.75
Writing to output.gpw (mode='')

iter:   5 23:16:18  -308.638880c -3.05  -2.84
iter:   6 23:19:32  -308.638715c -3.40  -2.98
iter:   7 23:25:49  -308.638728c -3.82  -3.11
iter:   8 23:29:56  -308.638698c -4.33  -3.34
iter:   9 23:34:16  -308.638673c -4.29  -3.40
Writing to output.gpw (mode='')

iter:  10 23:39:00  -308.638677c -4.89  -3.66
iter:  11 23:47:38  -308.638682c -5.28  -3.73
iter:  12 23:51:28  -308.638681c -5.57  -3.80
