
  ___ ___ ___ _ _ _  
 |   |   |_  | | | | 
 | | | | | . | | | | 
 |__ |  _|___|_____|  22.8.0
 |___|_|             

User:   vazumah@c15.hercules
Date:   Wed Apr  5 10:30:59 2023
Arch:   x86_64
Pid:    5588
CWD:    /home/vazumah/Python_projects/LiNRR/Li_adsorb_studies/proton_donors/N2_with_proton_donor/Li_BCC_100/adsorbates/CH3CH2OH_z_recalcs/ontop/9.702_9.702/N2_y
Python: 3.10.8
gpaw:   /home/vazumah/.conda/envs/GPAW/lib/python3.10/site-packages/gpaw
_gpaw:  /home/vazumah/.conda/envs/GPAW/lib/python3.10/site-packages/
        _gpaw.cpython-310-x86_64-linux-gnu.so
ase:    /home/vazumah/.conda/envs/GPAW/lib/python3.10/site-packages/ase (version 3.22.1)
numpy:  /home/vazumah/.conda/envs/GPAW/lib/python3.10/site-packages/numpy (version 1.24.1)
scipy:  /home/vazumah/.conda/envs/GPAW/lib/python3.10/site-packages/scipy (version 1.10.0)
libxc:  5.2.3
units:  Angstrom and eV
cores: 24
OpenMP: True
OMP_NUM_THREADS: 1

Input parameters:
  convergence: {bands: -10}
  h: 0.16
  kpts: {size: [4, 4, 1]}
  occupations: {name: fermi-dirac,
                width: 0.05}
  poissonsolver: {dipolelayer: xy}
  xc: BEEF-vdW

System changes: positions, numbers, cell, pbc, initial_charges, initial_magmoms 

Initialize ...

species:
  Li:
    name: Lithium
    id: 830b4218f175192f93f959cfc0aad614
    Z: 3.0
    valence: 1
    core: 2
    charge: 0.0
    file: /home/vazumah/.conda/envs/GPAW/share/gpaw/Li.PBE.gz
    compensation charges: {type: gauss,
                           rc: 0.33,
                           lmax: 2}
    cutoffs: {filter: 1.91,
              core: 2.55}
    valence states:
      #              energy  rcut
      - 2s(1.00)    -2.874   1.058
      - 2p(0.00)    -1.090   1.058
      -  s          24.337   1.058
  
    # Using partial waves for Li as LCAO basis

  O:
    name: Oxygen
    id: 32ecd46bf208036f09c70b0ec9a88b78
    Z: 8.0
    valence: 6
    core: 2
    charge: 0.0
    file: /home/vazumah/.conda/envs/GPAW/share/gpaw/O.PBE.gz
    compensation charges: {type: gauss,
                           rc: 0.21,
                           lmax: 2}
    cutoffs: {filter: 1.17,
              core: 0.83}
    valence states:
      #              energy  rcut
      - 2s(2.00)   -23.961   0.688
      - 2p(4.00)    -9.029   0.598
      -  s           3.251   0.688
      -  p          18.182   0.598
      -  d           0.000   0.619
  
    # Using partial waves for O as LCAO basis

  C:
    name: Carbon
    id: 4aa54d4b901d75f77cc0ea3eec22967b
    Z: 6.0
    valence: 4
    core: 2
    charge: 0.0
    file: /home/vazumah/.conda/envs/GPAW/share/gpaw/C.PBE.gz
    compensation charges: {type: gauss,
                           rc: 0.20,
                           lmax: 2}
    cutoffs: {filter: 1.14,
              core: 1.14}
    valence states:
      #              energy  rcut
      - 2s(2.00)   -13.751   0.635
      - 2p(2.00)    -5.284   0.635
      -  s          13.461   0.635
      -  p          21.927   0.635
      -  d           0.000   0.635
  
    # Using partial waves for C as LCAO basis

  H:
    name: Hydrogen
    id: d65de229564ff8ea4db303e23b6d1ecf
    Z: 1.0
    valence: 1
    core: 0
    charge: 0.0
    file: /home/vazumah/.conda/envs/GPAW/share/gpaw/H.PBE.gz
    compensation charges: {type: gauss,
                           rc: 0.15,
                           lmax: 2}
    cutoffs: {filter: 0.85,
              core: 0.53}
    valence states:
      #              energy  rcut
      - 1s(1.00)    -6.494   0.476
      -  s          20.717   0.476
      -  p           0.000   0.476
  
    # Using partial waves for H as LCAO basis

  N:
    name: Nitrogen
    id: f7500608b86eaa90eef8b1d9a670dc53
    Z: 7.0
    valence: 5
    core: 2
    charge: 0.0
    file: /home/vazumah/.conda/envs/GPAW/share/gpaw/N.PBE.gz
    compensation charges: {type: gauss,
                           rc: 0.18,
                           lmax: 2}
    cutoffs: {filter: 1.11,
              core: 0.96}
    valence states:
      #              energy  rcut
      - 2s(2.00)   -18.583   0.603
      - 2p(3.00)    -7.089   0.529
      -  s           8.629   0.603
      -  p          20.123   0.529
      -  d           0.000   0.577
  
    # Using partial waves for N as LCAO basis

Reference energy: -14434.854043  # eV

Spin-paired calculation

Convergence criteria:
 Maximum [total energy] change in last 3 cyles: 0.0005 eV / electron
 Maximum integral of absolute [dens]ity change: 0.0001 electrons / valence electron
 Maximum integral of absolute [eigenst]ate change: 4e-08 eV^2 / valence electron
 Maximum number of scf [iter]ations: 333
 (Square brackets indicate name in SCF output, whereas a 'c' in
 the SCF output indicates the quantity has converged.)

Symmetries present (total): 1

  ( 1  0  0)
  ( 0  1  0)
  ( 0  0  1)

16 k-points: 4 x 4 x 1 Monkhorst-Pack grid
8 k-points in the irreducible part of the Brillouin zone
       k-points in crystal coordinates                weights
   0:     0.12500000   -0.37500000    0.00000000          2/16
   1:     0.12500000   -0.12500000    0.00000000          2/16
   2:     0.12500000    0.12500000    0.00000000          2/16
   3:     0.12500000    0.37500000    0.00000000          2/16
   4:     0.37500000   -0.37500000    0.00000000          2/16
   5:     0.37500000   -0.12500000    0.00000000          2/16
   6:     0.37500000    0.12500000    0.00000000          2/16
   7:     0.37500000    0.37500000    0.00000000          2/16

Wave functions: Uniform real-space grid
  Kinetic energy operator: 6*3+1=19 point O(h^6) finite-difference Laplacian
  ScaLapack parameters: grid=1x1, blocksize=None
  Wavefunction extrapolation:
    Improved wavefunction reuse through dual PAW basis 

Occupation numbers: Fermi-Dirac:
  width: 0.0500  # eV
 

Eigensolver
   Davidson(niter=2) 

Densities:
  Coarse grid: 60*60*164 grid
  Fine grid: 120*120*328 grid
  Total Charge: 0.000000 

Density mixing:
  Method: separate
  Backend: pulay
  Linear mixing parameter: 0.05
  old densities: 5
  Damping of long wavelength oscillations: 50 

Hamiltonian:
  XC and Coulomb potentials evaluated on a 120*120*328 grid
  Using the BEEF-vdW Exchange-Correlation functional
  Interpolation: tri-quintic (5. degree polynomial)
  Poisson solver: FastPoissonSolver using
    Stencil: 6*3+1=19 point O(h^6) finite-difference Laplacian
    FFT axes: [0, 1]
    FST axes: [2]

Dipole correction along z-axis 

XC parameters: BEEF-vdW with 2 nearest neighbor stencil

Memory estimate:
  Process memory now: 242.72 MiB
  Calculator: 430.76 MiB
    Density: 120.39 MiB
      Arrays: 38.89 MiB
      Localized functions: 66.67 MiB
      Mixer: 14.83 MiB
    Hamiltonian: 30.70 MiB
      Arrays: 25.43 MiB
      XC: 0.00 MiB
      Poisson: 0.00 MiB
      vbar: 5.27 MiB
    Wavefunctions: 279.67 MiB
      Arrays psit_nG: 130.52 MiB
      Eigensolver: 145.65 MiB
      Projections: 0.06 MiB
      Projectors: 3.44 MiB

Total number of cores used: 24
Parallelization over k-points: 8
Domain decomposition: 1 x 1 x 3

Number of atoms: 47
Number of atomic orbitals: 170
Number of bands in calculation: 44
Number of valence electrons: 66
Bands to converge: 34

... initialized

Initializing position-dependent things.

Density initialized from atomic densities
Creating initial wave functions:
  44 bands from LCAO basis set

       .-----------------------.  
      /|                       |  
     / |                       |  
    /  |                      H|  
   /   C                       |  
  /    |                       |  
 *     CH                      |  
 |     |                    H  |  
 |     |O                      |  
 |     |                       |  
 |  H  |                H      |  
 |     |                       |  
 |     |                       |  
 H     |               Li      Li 
 |     |                  N    |  
 |     |     Li      Li   N  Li|  
 |     |                       |  
 |     |  LLi     LLi     LLi  |  
 |     |                       |  
 |     |LLi     Li      Li     |  
 |   Li|     Li      Li        |  
 |    Li  Li  Li  Li  Li  Li   |  
 | Li  |   Li      Li          |  
 |     |Li      Li      Li     |  
 Li    | Li      Li            |  
 |    Li      Li      Li       |  
 |     |                       |  
 |     |                       |  
 |     |                       |  
 |     |                       |  
 |     |                       |  
 |     |                       |  
 |     .-----------------------.  
 |    /                       /   
 |   /                       /    
 |  /                       /     
 | /                       /      
 |/                       /       
 *-----------------------*        

Positions:
   0 Li     1.617037    1.617037   10.000000    ( 0.0000,  0.0000,  0.0000)
   1 Li     4.851111    1.617037   10.000000    ( 0.0000,  0.0000,  0.0000)
   2 Li     8.085185    1.617037   10.000000    ( 0.0000,  0.0000,  0.0000)
   3 Li     1.617037    4.851111   10.000000    ( 0.0000,  0.0000,  0.0000)
   4 Li     4.851111    4.851111   10.000000    ( 0.0000,  0.0000,  0.0000)
   5 Li     8.085185    4.851111   10.000000    ( 0.0000,  0.0000,  0.0000)
   6 Li     1.617037    8.085185   10.000000    ( 0.0000,  0.0000,  0.0000)
   7 Li     4.851111    8.085185   10.000000    ( 0.0000,  0.0000,  0.0000)
   8 Li     8.085185    8.085185   10.000000    ( 0.0000,  0.0000,  0.0000)
   9 Li     0.000000    0.000000   11.617037    ( 0.0000,  0.0000,  0.0000)
  10 Li     3.234074    0.000000   11.617037    ( 0.0000,  0.0000,  0.0000)
  11 Li     6.468148    0.000000   11.617037    ( 0.0000,  0.0000,  0.0000)
  12 Li     0.000000    3.234074   11.617037    ( 0.0000,  0.0000,  0.0000)
  13 Li     3.234074    3.234074   11.617037    ( 0.0000,  0.0000,  0.0000)
  14 Li     6.468148    3.234074   11.617037    ( 0.0000,  0.0000,  0.0000)
  15 Li     0.000000    6.468148   11.617037    ( 0.0000,  0.0000,  0.0000)
  16 Li     3.234074    6.468148   11.617037    ( 0.0000,  0.0000,  0.0000)
  17 Li     6.468148    6.468148   11.617037    ( 0.0000,  0.0000,  0.0000)
  18 Li     1.595032    1.601064   13.456727    ( 0.0000,  0.0000,  0.0000)
  19 Li     4.833632    1.628484   13.464119    ( 0.0000,  0.0000,  0.0000)
  20 Li     8.089635    1.600530   13.443530    ( 0.0000,  0.0000,  0.0000)
  21 Li     1.591181    4.794797   13.492033    ( 0.0000,  0.0000,  0.0000)
  22 Li     4.834981    4.853036   13.462120    ( 0.0000,  0.0000,  0.0000)
  23 Li     8.097450    4.796134   13.484343    ( 0.0000,  0.0000,  0.0000)
  24 Li     1.617861    8.052166   13.461855    ( 0.0000,  0.0000,  0.0000)
  25 Li     4.845945    8.071388   13.466876    ( 0.0000,  0.0000,  0.0000)
  26 Li     8.088245    8.051380   13.458293    ( 0.0000,  0.0000,  0.0000)
  27 Li    -0.004573   -0.130461   15.366154    ( 0.0000,  0.0000,  0.0000)
  28 Li     3.239209    0.000556   15.375345    ( 0.0000,  0.0000,  0.0000)
  29 Li     6.452626   -0.005913   15.345952    ( 0.0000,  0.0000,  0.0000)
  30 Li    -0.037446    3.085772   15.550898    ( 0.0000,  0.0000,  0.0000)
  31 Li     3.209628    3.237422   15.401207    ( 0.0000,  0.0000,  0.0000)
  32 Li     6.428847    3.237172   15.373242    ( 0.0000,  0.0000,  0.0000)
  33 Li    -0.001381    6.362085   15.404340    ( 0.0000,  0.0000,  0.0000)
  34 Li     3.231182    6.460385   15.418131    ( 0.0000,  0.0000,  0.0000)
  35 Li     6.475912    6.458345   15.402081    ( 0.0000,  0.0000,  0.0000)
  36 O     10.309011    8.981080   20.526247    ( 0.0000,  0.0000,  0.0000)
  37 C      9.856791    8.547225   21.816004    ( 0.0000,  0.0000,  0.0000)
  38 C      9.806987    9.667815   22.846455    ( 0.0000,  0.0000,  0.0000)
  39 H      8.874500    8.064507   21.733681    ( 0.0000,  0.0000,  0.0000)
  40 H     10.568821    7.778849   22.124135    ( 0.0000,  0.0000,  0.0000)
  41 H      9.504769    9.272591   23.819246    ( 0.0000,  0.0000,  0.0000)
  42 H     10.785721   10.143695   22.951960    ( 0.0000,  0.0000,  0.0000)
  43 H      9.081238   10.432913   22.559703    ( 0.0000,  0.0000,  0.0000)
  44 H      9.778489    9.738260   20.250592    ( 0.0000,  0.0000,  0.0000)
  45 N      9.522265   11.635391   18.465053    ( 0.0000,  0.0000,  0.0000)
  46 N      9.555816   12.049569   17.431054    ( 0.0000,  0.0000,  0.0000)

Unit cell:
           periodic     x           y           z      points  spacing
  1. axis:    yes    9.702222    0.000000    0.000000    60     0.1617
  2. axis:    yes    0.000000    9.702222    0.000000    60     0.1617
  3. axis:    no     0.000000    0.000000   26.351111   164     0.1607

  Lengths:   9.702222   9.702222  26.351111
  Angles:   90.000000  90.000000  90.000000

Effective grid spacing dv^(1/3) = 0.1614

     iter     time        total  log10-change:
                         energy  eigst   dens
iter:   1 10:32:13  -648.195181  +1.30
iter:   2 10:32:58    10.116298  +2.61  +0.03
iter:   3 10:33:43   238.737696  +3.20  -0.11
iter:   4 10:34:28    36.994576  +3.37  -0.14
iter:   5 10:35:14  -154.766197  +3.10  -0.12
iter:   6 10:35:59  -334.854222  +2.92  -0.39
iter:   7 10:36:44  -357.463206  +2.52  -0.40
iter:   8 10:37:30  -342.540857  +2.23  -0.42
iter:   9 10:38:15  -488.310169  +2.53  -0.51
iter:  10 10:39:00  -391.621778  +1.76  -0.26
iter:  11 10:39:45  -411.045013  +1.83  -0.36
iter:  12 10:40:31  -320.347960  +1.97  -0.35
iter:  13 10:41:16  -317.934103  +1.16  -0.68
iter:  14 10:42:01  -335.812343  +1.57  -0.71
iter:  15 10:42:46  -313.796438  +0.81  -0.50
iter:  16 10:43:31  -315.029678  +0.53  -0.79
iter:  17 10:44:17  -312.757720  +0.26  -0.75
iter:  18 10:45:02  -311.581033  +0.65  -0.86
iter:  19 10:45:47  -310.987520  +0.25  -0.89
iter:  20 10:46:33  -310.742213  +0.22  -0.98
iter:  21 10:47:18  -309.273577  -0.04  -0.99
iter:  22 10:48:03  -309.047621  +0.08  -1.14
iter:  23 10:48:48  -309.138492  +0.16  -1.20
iter:  24 10:49:33  -308.894881  -0.36  -1.32
iter:  25 10:50:18  -308.789414  -0.33  -1.40
iter:  26 10:51:03  -308.797671  -0.81  -1.56
iter:  27 10:51:49  -308.838133  -0.69  -1.59
iter:  28 10:52:34  -308.819819  -0.99  -1.79
iter:  29 10:53:19  -308.817934c -0.98  -1.94
iter:  30 10:54:04  -308.824451c -1.41  -1.98
iter:  31 10:54:49  -308.831976c -1.31  -2.05
iter:  32 10:55:34  -308.832760c -1.47  -2.12
iter:  33 10:56:19  -308.836455c -1.53  -2.25
iter:  34 10:57:05  -308.841332c -1.55  -2.34
iter:  35 10:57:50  -308.844646c -1.68  -2.44
iter:  36 10:58:35  -308.846935c -1.83  -2.59
iter:  37 10:59:20  -308.848269c -1.97  -2.61
iter:  38 11:00:06  -308.849650c -1.92  -2.67
iter:  39 11:00:51  -308.851059c -2.07  -2.74
iter:  40 11:01:36  -308.852046c -2.33  -2.95
iter:  41 11:02:21  -308.852855c -2.38  -2.98
iter:  42 11:03:06  -308.853647c -2.29  -2.96
iter:  43 11:03:51  -308.854513c -2.34  -2.93
iter:  44 11:04:36  -308.855023c -2.61  -2.87
iter:  45 11:05:22  -308.855633c -2.67  -2.83
iter:  46 11:06:07  -308.855867c -2.63  -2.81
iter:  47 11:06:52  -308.856362c -2.52  -2.87
iter:  48 11:07:37  -308.856603c -2.76  -2.79
iter:  49 11:08:22  -308.856862c -2.82  -2.96
iter:  50 11:09:07  -308.857177c -3.05  -3.05
iter:  51 11:09:52  -308.857362c -3.11  -3.22
iter:  52 11:10:38  -308.857516c -2.92  -3.47
iter:  53 11:11:23  -308.857658c -3.16  -3.50
iter:  54 11:12:09  -308.857735c -3.45  -3.67
iter:  55 11:12:54  -308.857816c -3.20  -3.73
iter:  56 11:13:39  -308.857885c -3.36  -3.75
iter:  57 11:14:24  -308.857942c -3.40  -3.80
iter:  58 11:15:09  -308.857996c -3.49  -3.87
iter:  59 11:15:55  -308.858033c -3.65  -4.03c
iter:  60 11:16:40  -308.858069c -3.54  -4.09c
iter:  61 11:17:25  -308.858096c -3.79  -4.15c
iter:  62 11:18:10  -308.858129c -3.65  -4.18c
iter:  63 11:18:55  -308.858147c -4.03  -4.31c
iter:  64 11:19:40  -308.858164c -3.93  -4.33c
iter:  65 11:20:25  -308.858179c -3.99  -4.37c
iter:  66 11:21:10  -308.858191c -3.99  -4.46c
iter:  67 11:21:55  -308.858204c -3.99  -4.51c
iter:  68 11:22:41  -308.858211c -4.28  -4.52c
iter:  69 11:23:26  -308.858218c -4.41  -4.48c
iter:  70 11:24:11  -308.858223c -4.47  -4.25c
iter:  71 11:24:56  -308.858226c -4.42  -4.35c
iter:  72 11:25:41  -308.858229c -4.61  -4.35c
iter:  73 11:26:27  -308.858231c -4.68  -4.28c
iter:  74 11:27:11  -308.858233c -4.64  -4.44c
iter:  75 11:27:57  -308.858234c -4.65  -4.49c
iter:  76 11:28:42  -308.858235c -4.82  -4.47c
iter:  77 11:29:27  -308.858236c -4.93  -4.41c
iter:  78 11:30:12  -308.858236c -4.88  -4.30c
iter:  79 11:30:57  -308.858237c -5.05  -4.27c
iter:  80 11:31:42  -308.858237c -4.93  -4.37c
iter:  81 11:32:27  -308.858237c -4.83  -4.29c
iter:  82 11:33:12  -308.858237c -5.08  -4.31c
iter:  83 11:33:58  -308.858237c -5.15  -4.35c
iter:  84 11:34:42  -308.858237c -5.13  -4.39c
iter:  85 11:35:28  -308.858237c -5.01  -4.45c
iter:  86 11:36:13  -308.858237c -5.32  -4.50c
iter:  87 11:36:58  -308.858236c -5.44  -4.68c
iter:  88 11:37:43  -308.858236c -5.37  -4.72c
iter:  89 11:38:28  -308.858236c -5.36  -4.77c
iter:  90 11:39:13  -308.858236c -5.59  -4.88c
iter:  91 11:39:59  -308.858236c -5.63  -4.92c
iter:  92 11:40:44  -308.858236c -5.69  -4.95c
iter:  93 11:41:29  -308.858235c -5.91  -5.10c
iter:  94 11:42:15  -308.858235c -5.93  -5.27c
iter:  95 11:43:00  -308.858235c -5.89  -5.32c
iter:  96 11:43:45  -308.858235c -5.77  -5.34c
iter:  97 11:44:30  -308.858235c -6.18  -5.37c
iter:  98 11:45:15  -308.858234c -6.22  -5.68c
iter:  99 11:46:00  -308.858234c -6.26  -5.67c
iter: 100 11:46:45  -308.858234c -6.27  -5.60c
iter: 101 11:47:30  -308.858234c -6.34  -5.57c
iter: 102 11:48:15  -308.858234c -6.39  -5.53c
iter: 103 11:49:01  -308.858234c -6.47  -5.47c
iter: 104 11:49:46  -308.858233c -6.44  -5.45c
iter: 105 11:50:31  -308.858233c -6.56  -5.42c
iter: 106 11:51:15  -308.858233c -6.59  -5.39c
iter: 107 11:52:01  -308.858233c -6.71  -5.39c
iter: 108 11:52:46  -308.858233c -6.74  -5.28c
iter: 109 11:53:31  -308.858233c -6.65  -5.38c
iter: 110 11:54:16  -308.858233c -6.65  -5.34c
iter: 111 11:55:01  -308.858233c -6.73  -5.37c
iter: 112 11:55:46  -308.858233c -6.74  -5.37c
iter: 113 11:56:31  -308.858233c -6.97  -5.30c
iter: 114 11:57:16  -308.858233c -6.95  -5.30c
iter: 115 11:58:01  -308.858233c -7.06  -5.25c
iter: 116 11:58:46  -308.858233c -6.96  -5.22c
iter: 117 11:59:31  -308.858233c -7.09  -5.24c
iter: 118 12:00:17  -308.858233c -7.09  -5.30c
iter: 119 12:01:02  -308.858233c -7.22  -5.34c
iter: 120 12:01:47  -308.858233c -7.29  -5.67c
iter: 121 12:02:32  -308.858232c -7.19  -5.70c
iter: 122 12:03:18  -308.858232c -7.26  -5.72c
iter: 123 12:04:03  -308.858232c -7.16  -5.82c
iter: 124 12:04:48  -308.858232c -7.27  -5.98c
iter: 125 12:05:33  -308.858232c -7.45c -6.07c

Converged after 125 iterations.

Dipole moment: (-2.021981, -1.102368, 0.137157) |e|*Ang

Energy contributions relative to reference atoms: (reference = -14434.854043)

Kinetic:       +150.976202
Potential:     -146.429344
External:        +0.000000
XC:            -314.091673
Entropy (-ST):   -0.146107
Local:           +0.759637
--------------------------
Free energy:   -308.931286
Extrapolated:  -308.858232

Dipole-layer corrected work functions: 3.407869, 3.144206 eV

Showing only first 2 kpts
 Kpt  Band  Eigenvalues  Occupancy
  0    31     -3.53726    1.98929
  0    32     -3.45750    1.94830
  0    33     -3.09466    0.05178
  0    34     -3.05461    0.02358

  1    31     -3.30239    1.25755
  1    32     -3.25160    0.76034
  1    33     -3.24766    0.72363
  1    34     -3.19730    0.34309


Fermi level: -3.27604

No gap
Writing to top.gpw (mode='all')

Timing:                              incl.     excl.
-----------------------------------------------------------
Hamiltonian:                        29.957     0.000   0.0% |
 Atomic:                             0.099     0.001   0.0% |
  XC Correction:                     0.098     0.098   0.0% |
 Calculate atomic Hamiltonians:      0.117     0.117   0.0% |
 Communicate:                        0.169     0.169   0.0% |
 Hartree integrate/restrict:         0.064     0.064   0.0% |
 Initialize Hamiltonian:             0.000     0.000   0.0% |
 Poisson:                            2.246     1.036   0.0% |
  Communicate from 1D:               0.144     0.144   0.0% |
  Communicate from 2D:               0.227     0.227   0.0% |
  Communicate to 1D:                 0.053     0.053   0.0% |
  Communicate to 2D:                 0.225     0.225   0.0% |
  FFT 1D:                            0.276     0.276   0.0% |
  FFT 2D:                            0.286     0.286   0.0% |
 XC 3D grid:                        27.230     5.596   0.1% |
  VdW-DF integral:                  21.634     0.169   0.0% |
   Convolution:                      2.701     2.701   0.0% |
   FFT:                              0.704     0.704   0.0% |
   gather:                           3.107     3.107   0.0% |
   hmm1:                             0.410     0.410   0.0% |
   hmm2:                             0.752     0.752   0.0% |
   iFFT:                             0.861     0.861   0.0% |
   potential:                        3.994     0.167   0.0% |
    collect:                         0.308     0.308   0.0% |
    p1:                              1.805     1.805   0.0% |
    p2:                              1.343     1.343   0.0% |
    sum:                             0.370     0.370   0.0% |
   splines:                          8.937     8.937   0.1% |
 vbar:                               0.031     0.031   0.0% |
LCAO initialization:                 7.852     0.543   0.0% |
 LCAO eigensolver:                   2.130     0.000   0.0% |
  Calculate projections:             0.000     0.000   0.0% |
  DenseAtomicCorrection:             0.000     0.000   0.0% |
  Distribute overlap matrix:         2.003     2.003   0.0% |
  Orbital Layouts:                   0.037     0.037   0.0% |
  Potential matrix:                  0.088     0.088   0.0% |
  Sum over cells:                    0.002     0.002   0.0% |
 LCAO to grid:                       4.121     4.121   0.1% |
 Set positions (LCAO WFS):           1.057     0.791   0.0% |
  Basic WFS set positions:           0.004     0.004   0.0% |
  Basis functions set positions:     0.001     0.001   0.0% |
  P tci:                             0.000     0.000   0.0% |
  ST tci:                            0.163     0.163   0.0% |
  mktci:                             0.098     0.098   0.0% |
SCF-cycle:                        5625.263    87.873   1.2% |
 Davidson:                        2823.210   945.902  12.9% |----|
  Apply hamiltonian:               154.746   154.746   2.1% ||
  Subspace diag:                   482.900     0.024   0.0% |
   calc_h_matrix:                  264.793    89.646   1.2% |
    Apply hamiltonian:             175.147   175.147   2.4% ||
   diagonalize:                      4.060     4.060   0.1% |
   rotate_psi:                     214.024   214.024   2.9% ||
  calc. matrices:                  875.546   593.831   8.1% |--|
   Apply hamiltonian:              281.715   281.715   3.9% |-|
  diagonalize:                       1.796     1.796   0.0% |
  rotate_psi:                      362.319   362.319   5.0% |-|
 Density:                           43.058     0.010   0.0% |
  Atomic density matrices:           0.979     0.979   0.0% |
  Mix:                              22.921    22.921   0.3% |
  Multipole moments:                 0.268     0.268   0.0% |
  Pseudo density:                   18.879    18.871   0.3% |
   Symmetrize density:               0.008     0.008   0.0% |
 Hamiltonian:                     2669.149     0.037   0.0% |
  Atomic:                           12.692     0.167   0.0% |
   XC Correction:                   12.525    12.525   0.2% |
  Calculate atomic Hamiltonians:    11.268    11.268   0.2% |
  Communicate:                      24.062    24.062   0.3% |
  Hartree integrate/restrict:       10.030    10.030   0.1% |
  Poisson:                         281.231   131.398   1.8% ||
   Communicate from 1D:             16.062    16.062   0.2% |
   Communicate from 2D:             27.497    27.497   0.4% |
   Communicate to 1D:                5.891     5.891   0.1% |
   Communicate to 2D:               28.765    28.765   0.4% |
   FFT 1D:                          34.295    34.295   0.5% |
   FFT 2D:                          37.322    37.322   0.5% |
  XC 3D grid:                     2326.270   710.062   9.7% |---|
   VdW-DF integral:               1616.208    21.331   0.3% |
    Convolution:                   338.625   338.625   4.6% |-|
    FFT:                           105.582   105.582   1.4% ||
    gather:                        380.668   380.668   5.2% |-|
    hmm1:                           59.590    59.590   0.8% |
    hmm2:                          110.247   110.247   1.5% ||
    iFFT:                          104.571   104.571   1.4% ||
    potential:                     495.592    19.620   0.3% |
     collect:                       35.807    35.807   0.5% |
     p1:                           226.186   226.186   3.1% ||
     p2:                           163.445   163.445   2.2% ||
     sum:                           50.534    50.534   0.7% |
    splines:                         0.002     0.002   0.0% |
  vbar:                              3.561     3.561   0.0% |
 Orthonormalize:                     1.974     0.000   0.0% |
  calc_s_matrix:                     0.356     0.356   0.0% |
  inverse-cholesky:                  0.025     0.025   0.0% |
  projections:                       0.702     0.702   0.0% |
  rotate_psi_s:                      0.892     0.892   0.0% |
Set symmetry:                        0.010     0.010   0.0% |
Other:                            1644.583  1644.583  22.5% |--------|
-----------------------------------------------------------
Total:                                      7307.664 100.0%

Memory usage: 1.88 GiB
Date: Wed Apr  5 12:32:47 2023
