
  ___ ___ ___ _ _ _  
 |   |   |_  | | | | 
 | | | | | . | | | | 
 |__ |  _|___|_____|  22.8.0
 |___|_|             

User:   vazumah@r202.ib.bridges2.psc.edu
Date:   Wed Mar  8 22:02:24 2023
Arch:   x86_64
Pid:    35711
CWD:    /jet/home/vazumah/Calcs/N2_with_proton_donor/CH3CH2OH_x/bridge/8.085_1.617/N2_x
Python: 3.11.0
gpaw:   /jet/home/vazumah/.conda/envs/GPAW_mpich/lib/python3.11/site-packages/gpaw
_gpaw:  /jet/home/vazumah/.conda/envs/GPAW_mpich/lib/python3.11/site-packages/
        _gpaw.cpython-311-x86_64-linux-gnu.so
ase:    /jet/home/vazumah/.conda/envs/GPAW_mpich/lib/python3.11/site-packages/ase (version 3.22.1)
numpy:  /jet/home/vazumah/.conda/envs/GPAW_mpich/lib/python3.11/site-packages/numpy (version 1.24.2)
scipy:  /jet/home/vazumah/.conda/envs/GPAW_mpich/lib/python3.11/site-packages/scipy (version 1.10.1)
libxc:  5.2.3
units:  Angstrom and eV
cores: 128
OpenMP: True
OMP_NUM_THREADS: 1

Input parameters:
  h: 0.16
  kpts: {size: [4, 4, 1]}
  occupations: {name: fermi-dirac,
                width: 0.05}
  poissonsolver: {dipolelayer: xy}
  xc: BEEF-vdW

System changes: positions, numbers, cell, pbc, initial_charges, initial_magmoms 

Initialize ...

species:
  Li:
    name: Lithium
    id: 830b4218f175192f93f959cfc0aad614
    Z: 3.0
    valence: 1
    core: 2
    charge: 0.0
    file: /jet/home/vazumah/datasets/gpaw-setups-0.9.20000/Li.PBE.gz
    compensation charges: {type: gauss,
                           rc: 0.33,
                           lmax: 2}
    cutoffs: {filter: 1.91,
              core: 2.55}
    valence states:
      #              energy  rcut
      - 2s(1.00)    -2.874   1.058
      - 2p(0.00)    -1.090   1.058
      -  s          24.337   1.058
  
    # Using partial waves for Li as LCAO basis

  O:
    name: Oxygen
    id: 32ecd46bf208036f09c70b0ec9a88b78
    Z: 8.0
    valence: 6
    core: 2
    charge: 0.0
    file: /jet/home/vazumah/datasets/gpaw-setups-0.9.20000/O.PBE.gz
    compensation charges: {type: gauss,
                           rc: 0.21,
                           lmax: 2}
    cutoffs: {filter: 1.17,
              core: 0.83}
    valence states:
      #              energy  rcut
      - 2s(2.00)   -23.961   0.688
      - 2p(4.00)    -9.029   0.598
      -  s           3.251   0.688
      -  p          18.182   0.598
      -  d           0.000   0.619
  
    # Using partial waves for O as LCAO basis

  C:
    name: Carbon
    id: 4aa54d4b901d75f77cc0ea3eec22967b
    Z: 6.0
    valence: 4
    core: 2
    charge: 0.0
    file: /jet/home/vazumah/datasets/gpaw-setups-0.9.20000/C.PBE.gz
    compensation charges: {type: gauss,
                           rc: 0.20,
                           lmax: 2}
    cutoffs: {filter: 1.14,
              core: 1.14}
    valence states:
      #              energy  rcut
      - 2s(2.00)   -13.751   0.635
      - 2p(2.00)    -5.284   0.635
      -  s          13.461   0.635
      -  p          21.927   0.635
      -  d           0.000   0.635
  
    # Using partial waves for C as LCAO basis

  H:
    name: Hydrogen
    id: d65de229564ff8ea4db303e23b6d1ecf
    Z: 1.0
    valence: 1
    core: 0
    charge: 0.0
    file: /jet/home/vazumah/datasets/gpaw-setups-0.9.20000/H.PBE.gz
    compensation charges: {type: gauss,
                           rc: 0.15,
                           lmax: 2}
    cutoffs: {filter: 0.85,
              core: 0.53}
    valence states:
      #              energy  rcut
      - 1s(1.00)    -6.494   0.476
      -  s          20.717   0.476
      -  p           0.000   0.476
  
    # Using partial waves for H as LCAO basis

  N:
    name: Nitrogen
    id: f7500608b86eaa90eef8b1d9a670dc53
    Z: 7.0
    valence: 5
    core: 2
    charge: 0.0
    file: /jet/home/vazumah/datasets/gpaw-setups-0.9.20000/N.PBE.gz
    compensation charges: {type: gauss,
                           rc: 0.18,
                           lmax: 2}
    cutoffs: {filter: 1.11,
              core: 0.96}
    valence states:
      #              energy  rcut
      - 2s(2.00)   -18.583   0.603
      - 2p(3.00)    -7.089   0.529
      -  s           8.629   0.603
      -  p          20.123   0.529
      -  d           0.000   0.577
  
    # Using partial waves for N as LCAO basis

Reference energy: -14434.854043  # eV

Spin-paired calculation

Convergence criteria:
 Maximum [total energy] change in last 3 cyles: 0.0005 eV / electron
 Maximum integral of absolute [dens]ity change: 0.0001 electrons / valence electron
 Maximum integral of absolute [eigenst]ate change: 4e-08 eV^2 / valence electron
 Maximum number of scf [iter]ations: 333
 (Square brackets indicate name in SCF output, whereas a 'c' in
 the SCF output indicates the quantity has converged.)

Symmetries present (total): 1

  ( 1  0  0)
  ( 0  1  0)
  ( 0  0  1)

16 k-points: 4 x 4 x 1 Monkhorst-Pack grid
8 k-points in the irreducible part of the Brillouin zone
       k-points in crystal coordinates                weights
   0:     0.12500000   -0.37500000    0.00000000          2/16
   1:     0.12500000   -0.12500000    0.00000000          2/16
   2:     0.12500000    0.12500000    0.00000000          2/16
   3:     0.12500000    0.37500000    0.00000000          2/16
   4:     0.37500000   -0.37500000    0.00000000          2/16
   5:     0.37500000   -0.12500000    0.00000000          2/16
   6:     0.37500000    0.12500000    0.00000000          2/16
   7:     0.37500000    0.37500000    0.00000000          2/16

Wave functions: Uniform real-space grid
  Kinetic energy operator: 6*3+1=19 point O(h^6) finite-difference Laplacian
  ScaLapack parameters: grid=1x1, blocksize=None
  Wavefunction extrapolation:
    Improved wavefunction reuse through dual PAW basis 

Occupation numbers: Fermi-Dirac:
  width: 0.0500  # eV
 

Eigensolver
   Davidson(niter=2) 

Densities:
  Coarse grid: 60*60*164 grid
  Fine grid: 120*120*328 grid
  Total Charge: 0.000000 

Density mixing:
  Method: separate
  Backend: pulay
  Linear mixing parameter: 0.05
  old densities: 5
  Damping of long wavelength oscillations: 50 

Hamiltonian:
  XC and Coulomb potentials evaluated on a 120*120*328 grid
  Using the BEEF-vdW Exchange-Correlation functional
  Interpolation: tri-quintic (5. degree polynomial)
  Poisson solver: FastPoissonSolver using
    Stencil: 6*3+1=19 point O(h^6) finite-difference Laplacian
    FFT axes: [0, 1]
    FST axes: [2]

Dipole correction along z-axis 

XC parameters: BEEF-vdW with 2 nearest neighbor stencil

Memory estimate:
  Process memory now: 126.47 MiB
  Calculator: 80.22 MiB
    Density: 22.47 MiB
      Arrays: 7.22 MiB
      Localized functions: 12.50 MiB
      Mixer: 2.75 MiB
    Hamiltonian: 5.71 MiB
      Arrays: 4.72 MiB
      XC: 0.00 MiB
      Poisson: 0.00 MiB
      vbar: 0.99 MiB
    Wavefunctions: 52.04 MiB
      Arrays psit_nG: 24.17 MiB
      Eigensolver: 27.21 MiB
      Projections: 0.01 MiB
      Projectors: 0.65 MiB

Total number of cores used: 128
Parallelization over k-points: 8
Domain decomposition: 2 x 2 x 4

Number of atoms: 47
Number of atomic orbitals: 170
Number of bands in calculation: 44
Number of valence electrons: 66
Bands to converge: occupied

... initialized

Initializing position-dependent things.

Density initialized from atomic densities
Creating initial wave functions:
  44 bands from LCAO basis set

       .-----------------------.  
      /|                       |  
     / |                       |  
    /  |                       |  
   /   |                       |  
  /    |                       |  
 *     |                       |  
 |     |                       |  
 |     |                       |  
 |     |                       |  
 |     |                       |  
 |     |                       |  
 |     |                       |  
 |     |            H          |  
 |     |      HH    C H        |  
 |   Li|     Li C   HLO        |  
 |     |       H   N  N        |  
 | Li  |  LLi     LLi     Li   |  
 |     |                       |  
 Li    |LLi     LLi     Li     |  
 |   Li|     Li      Li        |  
 |    Li  Li  Li  Li  Li  Li   |  
 | Li  |   Li      Li          |  
 |     |Li      Li      Li     |  
 Li    | Li      Li            |  
 |    Li      Li      Li       |  
 |     |                       |  
 |     |                       |  
 |     |                       |  
 |     |                       |  
 |     |                       |  
 |     |                       |  
 |     .-----------------------.  
 |    /                       /   
 |   /                       /    
 |  /                       /     
 | /                       /      
 |/                       /       
 *-----------------------*        

Positions:
   0 Li     1.617037    1.617037   10.000000    ( 0.0000,  0.0000,  0.0000)
   1 Li     4.851111    1.617037   10.000000    ( 0.0000,  0.0000,  0.0000)
   2 Li     8.085185    1.617037   10.000000    ( 0.0000,  0.0000,  0.0000)
   3 Li     1.617037    4.851111   10.000000    ( 0.0000,  0.0000,  0.0000)
   4 Li     4.851111    4.851111   10.000000    ( 0.0000,  0.0000,  0.0000)
   5 Li     8.085185    4.851111   10.000000    ( 0.0000,  0.0000,  0.0000)
   6 Li     1.617037    8.085185   10.000000    ( 0.0000,  0.0000,  0.0000)
   7 Li     4.851111    8.085185   10.000000    ( 0.0000,  0.0000,  0.0000)
   8 Li     8.085185    8.085185   10.000000    ( 0.0000,  0.0000,  0.0000)
   9 Li     0.000000    0.000000   11.617037    ( 0.0000,  0.0000,  0.0000)
  10 Li     3.234074    0.000000   11.617037    ( 0.0000,  0.0000,  0.0000)
  11 Li     6.468148    0.000000   11.617037    ( 0.0000,  0.0000,  0.0000)
  12 Li     0.000000    3.234074   11.617037    ( 0.0000,  0.0000,  0.0000)
  13 Li     3.234074    3.234074   11.617037    ( 0.0000,  0.0000,  0.0000)
  14 Li     6.468148    3.234074   11.617037    ( 0.0000,  0.0000,  0.0000)
  15 Li     0.000000    6.468148   11.617037    ( 0.0000,  0.0000,  0.0000)
  16 Li     3.234074    6.468148   11.617037    ( 0.0000,  0.0000,  0.0000)
  17 Li     6.468148    6.468148   11.617037    ( 0.0000,  0.0000,  0.0000)
  18 Li     1.617038    1.617038   13.469728    ( 0.0000,  0.0000,  0.0000)
  19 Li     4.851111    1.617038   13.469729    ( 0.0000,  0.0000,  0.0000)
  20 Li     8.085184    1.617038   13.469728    ( 0.0000,  0.0000,  0.0000)
  21 Li     1.617038    4.851111   13.469729    ( 0.0000,  0.0000,  0.0000)
  22 Li     4.851111    4.851111   13.469730    ( 0.0000,  0.0000,  0.0000)
  23 Li     8.085184    4.851111   13.469729    ( 0.0000,  0.0000,  0.0000)
  24 Li     1.617038    8.085184   13.469728    ( 0.0000,  0.0000,  0.0000)
  25 Li     4.851111    8.085184   13.469729    ( 0.0000,  0.0000,  0.0000)
  26 Li     8.085184    8.085184   13.469728    ( 0.0000,  0.0000,  0.0000)
  27 Li    -0.000000   -0.000000   15.445939    ( 0.0000,  0.0000,  0.0000)
  28 Li     3.234074    0.000000   15.445939    ( 0.0000,  0.0000,  0.0000)
  29 Li     6.468148    0.000000   15.445939    ( 0.0000,  0.0000,  0.0000)
  30 Li     0.000000    3.234074   15.445939    ( 0.0000,  0.0000,  0.0000)
  31 Li     3.234076    3.234076   15.445938    ( 0.0000,  0.0000,  0.0000)
  32 Li     6.468146    3.234076   15.445938    ( 0.0000,  0.0000,  0.0000)
  33 Li     0.000000    6.468148   15.445939    ( 0.0000,  0.0000,  0.0000)
  34 Li     3.234076    6.468146   15.445938    ( 0.0000,  0.0000,  0.0000)
  35 Li     6.468146    6.468146   15.445938    ( 0.0000,  0.0000,  0.0000)
  36 O      8.085185    1.617037   18.445939    ( 0.0000,  0.0000,  0.0000)
  37 C      6.902778    2.433794   18.450238    ( 0.0000,  0.0000,  0.0000)
  38 C      5.618563    1.614176   18.435704    ( 0.0000,  0.0000,  0.0000)
  39 H      6.911401    3.117330   19.310398    ( 0.0000,  0.0000,  0.0000)
  40 H      6.978166    3.043520   17.547442    ( 0.0000,  0.0000,  0.0000)
  41 H      4.741636    2.268122   18.420269    ( 0.0000,  0.0000,  0.0000)
  42 H      5.583852    0.965153   17.558886    ( 0.0000,  0.0000,  0.0000)
  43 H      5.548375    0.985688   19.328265    ( 0.0000,  0.0000,  0.0000)
  44 H      8.046018    1.034060   19.214164    ( 0.0000,  0.0000,  0.0000)
  45 N      8.085000    1.617000   16.945939    ( 0.0000,  0.0000,  0.0000)
  46 N      6.988378    1.617000   16.945939    ( 0.0000,  0.0000,  0.0000)

Unit cell:
           periodic     x           y           z      points  spacing
  1. axis:    yes    9.702222    0.000000    0.000000    60     0.1617
  2. axis:    yes    0.000000    9.702222    0.000000    60     0.1617
  3. axis:    no     0.000000    0.000000   26.351111   164     0.1607

  Lengths:   9.702222   9.702222  26.351111
  Angles:   90.000000  90.000000  90.000000

Effective grid spacing dv^(1/3) = 0.1614

     iter     time        total  log10-change:
                         energy  eigst   dens
iter:   1 22:02:39  -521.489572
iter:   2 22:02:46  -134.662557  +2.52  -0.02
iter:   3 22:02:54  -136.528024  +3.17  -0.23
iter:   4 22:03:01  -252.673885  +3.07  -0.33
Writing to output.gpw (mode='')

iter:   5 22:03:08  -264.157055  +2.59  -0.37
iter:   6 22:03:15  -290.540793  +2.29  -0.69
iter:   7 22:03:22  -304.394495  +1.99  -0.72
iter:   8 22:03:29  -311.505650  +1.64  -0.71
iter:   9 22:03:36  -318.931814  +1.65  -0.69
Writing to output.gpw (mode='')

iter:  10 22:03:43  -355.670390  +2.03  -0.59
iter:  11 22:03:51  -336.084016  +1.62  -0.57
iter:  12 22:03:58  -308.402770  +1.13  -0.63
iter:  13 22:04:05  -301.873380  +1.21  -0.79
iter:  14 22:04:12  -306.224601  +1.09  -0.82
Writing to output.gpw (mode='')

iter:  15 22:04:19  -302.858549  +0.27  -0.72
iter:  16 22:04:32  -302.189654  +0.51  -0.80
iter:  17 22:04:39  -301.231007  +0.24  -0.86
iter:  18 22:04:46  -299.223189  +0.52  -0.93
iter:  19 22:04:53  -298.946283  +0.63  -1.04
Writing to output.gpw (mode='')

iter:  20 22:05:01  -298.454491  -0.04  -1.07
iter:  21 22:05:08  -298.397555  +0.16  -1.24
iter:  22 22:05:15  -298.360424  -0.15  -1.36
iter:  23 22:05:22  -298.361496  -0.31  -1.46
iter:  24 22:05:29  -298.331445c -1.11  -1.57
Writing to output.gpw (mode='')

iter:  25 22:05:36  -298.401782  -0.54  -1.63
iter:  26 22:05:43  -298.343484  -1.10  -1.64
iter:  27 22:05:50  -298.314436  -0.86  -1.79
iter:  28 22:05:58  -298.302700  -1.30  -1.95
iter:  29 22:06:05  -298.300829c -1.35  -2.08
Writing to output.gpw (mode='')

iter:  30 22:06:12  -298.307389c -1.48  -2.23
iter:  31 22:06:19  -298.306634c -1.89  -2.18
iter:  32 22:06:26  -298.307286c -1.98  -2.38
iter:  33 22:06:33  -298.308257c -2.06  -2.46
iter:  34 22:06:40  -298.309427c -2.05  -2.52
Writing to output.gpw (mode='')

iter:  35 22:06:48  -298.310477c -2.27  -2.58
iter:  36 22:06:55  -298.311436c -2.31  -2.71
iter:  37 22:07:02  -298.311715c -2.34  -2.79
iter:  38 22:07:09  -298.312081c -2.59  -2.81
iter:  39 22:07:16  -298.312399c -2.53  -2.89
Writing to output.gpw (mode='')

iter:  40 22:07:23  -298.312671c -2.85  -2.96
iter:  41 22:07:30  -298.312903c -2.86  -3.01
iter:  42 22:07:38  -298.313222c -2.95  -3.09
iter:  43 22:07:45  -298.313389c -2.98  -3.10
iter:  44 22:07:52  -298.313529c -3.14  -3.23
Writing to output.gpw (mode='')

iter:  45 22:07:59  -298.313591c -3.21  -3.49
iter:  46 22:08:06  -298.313696c -3.38  -3.52
iter:  47 22:08:13  -298.313850c -3.12  -3.56
iter:  48 22:08:20  -298.313922c -3.29  -3.68
iter:  49 22:08:28  -298.313986c -3.56  -3.69
Writing to output.gpw (mode='')

iter:  50 22:08:35  -298.314059c -3.41  -3.76
iter:  51 22:08:42  -298.314081c -3.70  -3.86
iter:  52 22:08:49  -298.314132c -3.61  -3.95
iter:  53 22:08:56  -298.314154c -3.92  -3.98
iter:  54 22:09:03  -298.314180c -3.84  -3.95
Writing to output.gpw (mode='')

iter:  55 22:09:10  -298.314195c -4.08  -3.89
iter:  56 22:09:18  -298.314212c -4.05  -3.86
iter:  57 22:09:30  -298.314228c -4.01  -3.85
iter:  58 22:09:38  -298.314237c -4.34  -3.84
iter:  59 22:09:48  -298.314256c -4.08  -3.81
Writing to output.gpw (mode='')

iter:  60 22:09:55  -298.314264c -4.35  -3.79
iter:  61 22:10:02  -298.314279c -4.40  -3.76
iter:  62 22:10:09  -298.314287c -4.26  -3.78
iter:  63 22:10:16  -298.314320c -4.57  -3.76
iter:  64 22:10:23  -298.314326c -4.67  -3.80
Writing to output.gpw (mode='')

iter:  65 22:10:30  -298.314352c -4.36  -3.83
iter:  66 22:10:38  -298.314344c -4.42  -3.95
iter:  67 22:10:45  -298.314350c -4.94  -4.10c
iter:  68 22:10:52  -298.314354c -4.75  -4.15c
iter:  69 22:10:59  -298.314352c -4.92  -4.26c
Writing to output.gpw (mode='')

iter:  70 22:11:06  -298.314349c -4.83  -4.32c
iter:  71 22:11:13  -298.314354c -4.91  -4.38c
iter:  72 22:11:20  -298.314356c -4.85  -4.37c
iter:  73 22:11:28  -298.314358c -5.20  -4.37c
iter:  74 22:11:35  -298.314361c -5.27  -4.51c
Writing to output.gpw (mode='')

iter:  75 22:11:42  -298.314362c -5.17  -4.55c
iter:  76 22:11:49  -298.314361c -5.36  -4.57c
iter:  77 22:11:56  -298.314363c -5.43  -4.58c
iter:  78 22:12:03  -298.314366c -5.47  -4.61c
iter:  79 22:12:10  -298.314365c -5.74  -4.80c
Writing to output.gpw (mode='')

iter:  80 22:12:18  -298.314364c -5.75  -4.85c
iter:  81 22:12:25  -298.314366c -5.69  -4.88c
iter:  82 22:12:32  -298.314365c -5.51  -5.01c
iter:  83 22:12:39  -298.314365c -5.62  -5.09c
iter:  84 22:12:46  -298.314365c -5.70  -5.17c
Writing to output.gpw (mode='')

iter:  85 22:12:53  -298.314365c -5.96  -5.30c
iter:  86 22:13:00  -298.314365c -5.91  -5.36c
iter:  87 22:13:08  -298.314366c -6.12  -5.51c
iter:  88 22:13:15  -298.314366c -6.06  -5.56c
iter:  89 22:13:22  -298.314366c -6.03  -5.57c
Writing to output.gpw (mode='')

iter:  90 22:13:29  -298.314366c -6.13  -5.69c
iter:  91 22:13:36  -298.314366c -6.29  -5.72c
iter:  92 22:13:43  -298.314366c -6.12  -5.81c
iter:  93 22:13:50  -298.314366c -6.29  -5.79c
iter:  94 22:13:58  -298.314366c -6.24  -5.98c
Writing to output.gpw (mode='')

iter:  95 22:14:05  -298.314366c -6.45  -6.05c
iter:  96 22:14:12  -298.314366c -6.49  -5.99c
iter:  97 22:14:19  -298.314366c -6.58  -5.91c
iter:  98 22:14:32  -298.314366c -6.58  -5.82c
iter:  99 22:14:39  -298.314366c -6.54  -5.78c
Writing to output.gpw (mode='')

iter: 100 22:14:47  -298.314366c -6.68  -5.74c
iter: 101 22:14:56  -298.314366c -6.73  -5.66c
iter: 102 22:15:09  -298.314366c -6.72  -5.67c
iter: 103 22:15:17  -298.314366c -6.82  -5.64c
iter: 104 22:15:24  -298.314366c -6.66  -5.62c
Writing to output.gpw (mode='')

iter: 105 22:15:31  -298.314366c -6.85  -5.66c
iter: 106 22:15:39  -298.314366c -6.95  -5.50c
iter: 107 22:15:46  -298.314366c -6.95  -5.61c
iter: 108 22:15:53  -298.314366c -6.97  -5.64c
iter: 109 22:16:00  -298.314366c -7.00  -5.65c
Writing to output.gpw (mode='')

iter: 110 22:16:07  -298.314367c -6.94  -5.82c
iter: 111 22:16:14  -298.314367c -7.10  -5.92c
iter: 112 22:16:21  -298.314366c -7.03  -5.96c
iter: 113 22:16:28  -298.314367c -7.07  -6.02c
iter: 114 22:16:35  -298.314367c -7.24  -6.05c
Writing to output.gpw (mode='')

iter: 115 22:16:42  -298.314367c -7.25  -6.06c
iter: 116 22:16:49  -298.314367c -7.16  -6.10c
iter: 117 22:16:57  -298.314367c -7.37  -6.47c
iter: 118 22:17:04  -298.314367c -7.41c -6.56c

Converged after 118 iterations.

Dipole moment: (-2.272746, -4.540624, 0.394786) |e|*Ang

Energy contributions relative to reference atoms: (reference = -14434.854043)

Kinetic:       +199.907511
Potential:     -175.721687
External:        +0.000000
XC:            -323.156174
Entropy (-ST):   -0.155473
Local:           +0.733720
--------------------------
Free energy:   -298.392103
Extrapolated:  -298.314367

Dipole-layer corrected work functions: 3.375020, 2.616107 eV

Showing only first 2 kpts
 Kpt  Band  Eigenvalues  Occupancy
  0    31     -3.24259    1.98580
  0    32     -3.10317    1.79172
  0    33     -2.84483    0.09354
  0    34     -2.80301    0.04163

  1    31     -3.05146    1.50718
  1    32     -3.00675    1.11145
  1    33     -2.95661    0.62908
  1    34     -2.87392    0.16141


Fermi level: -2.99556

No gap
Writing to output.gpw (mode='')


Forces in eV/Ang:
  0 Li    0.02055   -0.00205   -0.26774
  1 Li   -0.02539   -0.00082   -0.27732
  2 Li    0.00564    0.00240   -0.28203
  3 Li    0.00140    0.00020   -0.27323
  4 Li    0.00384    0.00794   -0.27673
  5 Li   -0.00440    0.02106   -0.26987
  6 Li    0.00382    0.00536   -0.27633
  7 Li   -0.00012   -0.00399   -0.27838
  8 Li   -0.00394   -0.02399   -0.27177
  9 Li    0.00862    0.00596    0.29497
 10 Li   -0.01174   -0.00020    0.23744
 11 Li    0.00242    0.01323    0.32120
 12 Li    0.01056   -0.00134    0.29934
 13 Li   -0.00930   -0.00517    0.24030
 14 Li   -0.00182   -0.00752    0.31770
 15 Li   -0.01827   -0.00142    0.25078
 16 Li    0.00645   -0.00036    0.27889
 17 Li    0.01059   -0.00348    0.23533
 18 Li    0.01399   -0.00296    0.04256
 19 Li   -0.05230   -0.00100   -0.05702
 20 Li    0.02216    0.00652   -0.24734
 21 Li   -0.00838   -0.00687    0.03268
 22 Li    0.02026   -0.03494    0.06291
 23 Li   -0.01183   -0.02150    0.06785
 24 Li   -0.02425    0.00455    0.05065
 25 Li    0.03137    0.03322    0.06628
 26 Li   -0.00602    0.01201    0.03296
 27 Li    0.04030    0.00798    0.03441
 28 Li   -0.05026   -0.02639   -0.05928
 29 Li   -0.01389    0.03855   -0.10940
 30 Li    0.04885    0.00119    0.06609
 31 Li   -0.04772    0.02967   -0.07493
 32 Li   -0.05315   -0.05934   -0.26094
 33 Li   -0.03644   -0.01563   -0.00063
 34 Li    0.01820    0.00143   -0.00418
 35 Li    0.01762   -0.01932   -0.00258
 36 O     3.46409    1.84297   11.56247
 37 C    -2.98453    2.40527    3.89807
 38 C    -2.26802   -0.18952    2.48767
 39 H     0.33857   -0.25748    0.71674
 40 H    -0.56571    2.34859    1.89496
 41 H    -0.05451    0.13287    0.19351
 42 H    -1.31147   -0.14488    1.29711
 43 H    -0.04286    0.10140    0.30804
 44 H     0.65168   -0.94430    1.37664
 45 N     8.95104   -2.86279   -8.95316
 46 N    -6.02404   -2.37136  -14.40297

System changes: positions 

Initializing position-dependent things.

Density initialized from wave functions
       .-----------------------.  
      /|                       |  
     / |                       |  
    /  |                       |  
   /   |                       |  
  /    |                       |  
 *     |                       |  
 |     |                       |  
 |     |                       |  
 |     |                       |  
 |     |                       |  
 |     |                       |  
 |     |                       |  
 |     |       Li   H          |  
 |     |      HH    C H        |  
 |     |     Li C   HLO      Li|  
 |     |       H   N  N        |  
 | Li  |  LLi     LLi     Li   |  
 |     |                       |  
 Li    |Li      LLi     Li     |  
 |   Li|     Li      Li        |  
 |    Li  Li  Li  Li  Li  Li   |  
 | Li  |   Li      Li          |  
 |     |Li      Li      Li     |  
 Li    | Li      Li            |  
 |    Li      Li      Li       |  
 |     |                       |  
 |     |                       |  
 |     |                       |  
 |     |                       |  
 |     |                       |  
 |     |                       |  
 |     .-----------------------.  
 |    /                       /   
 |   /                       /    
 |  /                       /     
 | /                       /      
 |/                       /       
 *-----------------------*        

Positions:
   0 Li     1.617037    1.617037   10.000000    ( 0.0000,  0.0000,  0.0000)
   1 Li     4.851111    1.617037   10.000000    ( 0.0000,  0.0000,  0.0000)
   2 Li     8.085185    1.617037   10.000000    ( 0.0000,  0.0000,  0.0000)
   3 Li     1.617037    4.851111   10.000000    ( 0.0000,  0.0000,  0.0000)
   4 Li     4.851111    4.851111   10.000000    ( 0.0000,  0.0000,  0.0000)
   5 Li     8.085185    4.851111   10.000000    ( 0.0000,  0.0000,  0.0000)
   6 Li     1.617037    8.085185   10.000000    ( 0.0000,  0.0000,  0.0000)
   7 Li     4.851111    8.085185   10.000000    ( 0.0000,  0.0000,  0.0000)
   8 Li     8.085185    8.085185   10.000000    ( 0.0000,  0.0000,  0.0000)
   9 Li     0.000000    0.000000   11.617037    ( 0.0000,  0.0000,  0.0000)
  10 Li     3.234074    0.000000   11.617037    ( 0.0000,  0.0000,  0.0000)
  11 Li     6.468148    0.000000   11.617037    ( 0.0000,  0.0000,  0.0000)
  12 Li     0.000000    3.234074   11.617037    ( 0.0000,  0.0000,  0.0000)
  13 Li     3.234074    3.234074   11.617037    ( 0.0000,  0.0000,  0.0000)
  14 Li     6.468148    3.234074   11.617037    ( 0.0000,  0.0000,  0.0000)
  15 Li     0.000000    6.468148   11.617037    ( 0.0000,  0.0000,  0.0000)
  16 Li     3.234074    6.468148   11.617037    ( 0.0000,  0.0000,  0.0000)
  17 Li     6.468148    6.468148   11.617037    ( 0.0000,  0.0000,  0.0000)
  18 Li     1.617074    1.617031   13.469836    ( 0.0000,  0.0000,  0.0000)
  19 Li     4.850979    1.617036   13.469585    ( 0.0000,  0.0000,  0.0000)
  20 Li     8.085240    1.617055   13.469101    ( 0.0000,  0.0000,  0.0000)
  21 Li     1.617017    4.851094   13.469812    ( 0.0000,  0.0000,  0.0000)
  22 Li     4.851162    4.851022   13.469890    ( 0.0000,  0.0000,  0.0000)
  23 Li     8.085154    4.851057   13.469901    ( 0.0000,  0.0000,  0.0000)
  24 Li     1.616977    8.085195   13.469856    ( 0.0000,  0.0000,  0.0000)
  25 Li     4.851190    8.085268   13.469897    ( 0.0000,  0.0000,  0.0000)
  26 Li     8.085169    8.085214   13.469811    ( 0.0000,  0.0000,  0.0000)
  27 Li     0.000102    0.000020   15.446027    ( 0.0000,  0.0000,  0.0000)
  28 Li     3.233946   -0.000067   15.445789    ( 0.0000,  0.0000,  0.0000)
  29 Li     6.468113    0.000098   15.445662    ( 0.0000,  0.0000,  0.0000)
  30 Li     0.000124    3.234077   15.446106    ( 0.0000,  0.0000,  0.0000)
  31 Li     3.233956    3.234152   15.445748    ( 0.0000,  0.0000,  0.0000)
  32 Li     6.468011    3.233926   15.445277    ( 0.0000,  0.0000,  0.0000)
  33 Li    -0.000092    6.468109   15.445937    ( 0.0000,  0.0000,  0.0000)
  34 Li     3.234123    6.468149   15.445927    ( 0.0000,  0.0000,  0.0000)
  35 Li     6.468190    6.468097   15.445932    ( 0.0000,  0.0000,  0.0000)
  36 O      8.093960    1.621705   18.475228    ( 0.0000,  0.0000,  0.0000)
  37 C      6.895217    2.439887   18.460112    ( 0.0000,  0.0000,  0.0000)
  38 C      5.612818    1.613696   18.442005    ( 0.0000,  0.0000,  0.0000)
  39 H      6.912258    3.116677   19.312213    ( 0.0000,  0.0000,  0.0000)
  40 H      6.976733    3.049469   17.552242    ( 0.0000,  0.0000,  0.0000)
  41 H      4.741498    2.268459   18.420759    ( 0.0000,  0.0000,  0.0000)
  42 H      5.580530    0.964786   17.562172    ( 0.0000,  0.0000,  0.0000)
  43 H      5.548267    0.985945   19.329046    ( 0.0000,  0.0000,  0.0000)
  44 H      8.047669    1.031668   19.217651    ( 0.0000,  0.0000,  0.0000)
  45 N      8.107674    1.609748   16.923260    ( 0.0000,  0.0000,  0.0000)
  46 N      6.973119    1.610993   16.909456    ( 0.0000,  0.0000,  0.0000)

Unit cell:
           periodic     x           y           z      points  spacing
  1. axis:    yes    9.702222    0.000000    0.000000    60     0.1617
  2. axis:    yes    0.000000    9.702222    0.000000    60     0.1617
  3. axis:    no     0.000000    0.000000   26.351111   164     0.1607

  Lengths:   9.702222   9.702222  26.351111
  Angles:   90.000000  90.000000  90.000000

Effective grid spacing dv^(1/3) = 0.1614

     iter     time        total  log10-change:
                         energy  eigst   dens
iter:   1 22:17:13  -300.312330  -0.38
iter:   2 22:17:20  -300.045491  -0.67  -1.35
iter:   3 22:17:27  -299.808760  -0.73  -1.33
iter:   4 22:17:34  -299.730184  -1.19  -1.58
Writing to output.gpw (mode='')

iter:   5 22:17:41  -299.728578  -1.22  -1.91
iter:   6 22:17:49  -299.710533c -1.13  -1.94
iter:   7 22:17:56  -299.720144c -1.42  -2.07
iter:   8 22:18:03  -299.718030c -1.85  -2.19
iter:   9 22:18:10  -299.706222c -2.21  -2.21
Writing to output.gpw (mode='')

iter:  10 22:18:17  -299.706260c -2.51  -2.50
iter:  11 22:18:24  -299.705878c -2.67  -2.51
iter:  12 22:18:32  -299.705463c -2.77  -2.67
iter:  13 22:18:39  -299.705877c -2.71  -2.80
iter:  14 22:18:46  -299.706033c -3.27  -3.09
Writing to output.gpw (mode='')

iter:  15 22:18:53  -299.705763c -3.59  -3.04
iter:  16 22:19:00  -299.705855c -3.68  -3.12
iter:  17 22:19:07  -299.705997c -3.84  -3.26
iter:  18 22:19:15  -299.705975c -3.94  -3.37
iter:  19 22:19:28  -299.705900c -4.14  -3.52
Writing to output.gpw (mode='')

iter:  20 22:19:37  -299.705992c -4.32  -3.63
iter:  21 22:19:44  -299.705952c -4.33  -3.82
iter:  22 22:19:51  -299.705983c -4.50  -3.92
iter:  23 22:19:58  -299.705981c -4.64  -3.97
iter:  24 22:20:06  -299.705984c -4.80  -4.01c
Writing to output.gpw (mode='')

iter:  25 22:20:13  -299.705989c -4.88  -4.11c
iter:  26 22:20:20  -299.705988c -5.01  -4.17c
iter:  27 22:20:27  -299.705984c -5.10  -4.29c
iter:  28 22:20:34  -299.706000c -5.16  -4.33c
iter:  29 22:20:41  -299.705999c -5.23  -4.32c
Writing to output.gpw (mode='')

iter:  30 22:20:49  -299.705995c -5.37  -4.36c
iter:  31 22:20:56  -299.706000c -5.53  -4.39c
iter:  32 22:21:03  -299.705990c -5.64  -4.41c
iter:  33 22:21:10  -299.705994c -5.87  -4.60c
iter:  34 22:21:17  -299.706000c -5.73  -4.67c
Writing to output.gpw (mode='')

iter:  35 22:21:25  -299.705999c -5.78  -4.72c
iter:  36 22:21:32  -299.706001c -5.94  -4.88c
iter:  37 22:21:39  -299.706000c -5.75  -4.91c
iter:  38 22:21:46  -299.706001c -6.10  -4.95c
iter:  39 22:21:53  -299.705998c -6.19  -4.93c
Writing to output.gpw (mode='')

iter:  40 22:22:00  -299.705999c -6.31  -4.84c
iter:  41 22:22:08  -299.705999c -6.22  -4.91c
iter:  42 22:22:15  -299.705999c -6.19  -4.91c
iter:  43 22:22:22  -299.706003c -6.44  -4.92c
iter:  44 22:22:29  -299.706002c -6.67  -4.98c
Writing to output.gpw (mode='')

iter:  45 22:22:36  -299.706002c -6.62  -5.01c
iter:  46 22:22:44  -299.706001c -6.64  -4.98c
iter:  47 22:22:51  -299.706000c -6.85  -5.08c
iter:  48 22:22:58  -299.706001c -6.88  -5.05c
iter:  49 22:23:05  -299.706001c -7.02  -5.14c
Writing to output.gpw (mode='')

iter:  50 22:23:12  -299.706001c -6.93  -5.45c
iter:  51 22:23:19  -299.706002c -7.06  -5.49c
iter:  52 22:23:27  -299.706002c -6.95  -5.53c
iter:  53 22:23:34  -299.706002c -7.26  -5.55c
iter:  54 22:23:41  -299.706002c -7.30  -5.62c
Writing to output.gpw (mode='')

iter:  55 22:23:48  -299.706002c -7.39  -5.57c
iter:  56 22:23:55  -299.706003c -7.33  -5.58c
iter:  57 22:24:02  -299.706002c -7.19  -5.63c
iter:  58 22:24:10  -299.706002c -7.43c -5.80c

Converged after 58 iterations.

Dipole moment: (-2.375967, -4.392801, 0.377600) |e|*Ang

Energy contributions relative to reference atoms: (reference = -14434.854043)

Kinetic:       +190.220805
Potential:     -168.868098
External:        +0.000000
XC:            -321.716954
Entropy (-ST):   -0.162645
Local:           +0.739568
--------------------------
Free energy:   -299.787325
Extrapolated:  -299.706002

Dipole-layer corrected work functions: 3.377985, 2.652109 eV

Showing only first 2 kpts
 Kpt  Band  Eigenvalues  Occupancy
  0    31     -3.26056    1.98537
  0    32     -3.11163    1.74685
  0    33     -2.89817    0.17613
  0    34     -2.81590    0.03658

  1    31     -3.07280    1.52085
  1    32     -3.02155    1.06494
  1    33     -2.97378    0.60929
  1    34     -2.88881    0.14828


Fermi level: -3.01505

No gap
Writing to output.gpw (mode='')


Forces in eV/Ang:
  0 Li    0.01966   -0.00184   -0.26822
  1 Li   -0.02387   -0.00066   -0.27756
  2 Li    0.00531    0.00241   -0.28321
  3 Li    0.00233    0.00130   -0.27413
  4 Li    0.00311    0.00935   -0.27730
  5 Li   -0.00473    0.02094   -0.27058
  6 Li    0.00431    0.00401   -0.27633
  7 Li   -0.00060   -0.00595   -0.27959
  8 Li   -0.00436   -0.02380   -0.27313
  9 Li    0.00699    0.00665    0.29848
 10 Li   -0.01136    0.00008    0.23783
 11 Li    0.00322    0.01342    0.32482
 12 Li    0.00922   -0.00195    0.30247
 13 Li   -0.00933   -0.00549    0.24026
 14 Li   -0.00131   -0.00783    0.31965
 15 Li   -0.01802   -0.00189    0.24939
 16 Li    0.00695   -0.00038    0.27736
 17 Li    0.00992   -0.00344    0.23403
 18 Li    0.01641   -0.00299    0.03677
 19 Li   -0.05696   -0.00007   -0.06541
 20 Li    0.02044    0.00696   -0.23941
 21 Li   -0.00919   -0.00767    0.03255
 22 Li    0.02169   -0.03577    0.06360
 23 Li   -0.01185   -0.01634    0.06028
 24 Li   -0.02588    0.00570    0.05225
 25 Li    0.03266    0.03414    0.06522
 26 Li   -0.00520    0.00546    0.02382
 27 Li    0.01458    0.03346    0.07572
 28 Li   -0.05032   -0.03065   -0.05996
 29 Li    0.01772    0.07157   -0.05454
 30 Li    0.03187   -0.01662    0.09867
 31 Li   -0.04514    0.03420   -0.07594
 32 Li   -0.01491   -0.09419   -0.20292
 33 Li   -0.03145   -0.01581   -0.00584
 34 Li    0.01844    0.00079   -0.00536
 35 Li    0.01187   -0.01760   -0.01120
 36 O     2.35018    2.42423    9.08142
 37 C    -2.25370    1.89129    3.29885
 38 C    -1.85075   -0.14897    2.09570
 39 H     0.23941   -0.08147    0.87623
 40 H    -0.46829    1.93464    1.93420
 41 H    -0.14803    0.18429    0.20488
 42 H    -1.20792   -0.09307    1.32495
 43 H    -0.08523    0.01432    0.43238
 44 H     0.41994   -1.27345    1.71321
 45 N     4.22237   -2.48591   -7.96720
 46 N    -1.11087   -2.29682  -12.79631

System changes: positions 

Initializing position-dependent things.

Density initialized from wave functions
       .-----------------------.  
      /|                       |  
     / |                       |  
    /  |                       |  
   /   |                       |  
  /    |                       |  
 *     |                       |  
 |     |                       |  
 |     |                       |  
 |     |                       |  
 |     |                       |  
 |     |                       |  
 |     |                       |  
 |     |       Li   H          |  
 |     |      HH    C H        |  
 |     |     Li C   HLO      Li|  
 |     |       H      N        |  
 | Li  |  LLi     LNi     Li   |  
 |     |                       |  
 Li    |Li      LLi     Li     |  
 |   Li|     Li      Li        |  
 |    Li  Li  Li  Li  Li  Li   |  
 | Li  |   Li      Li          |  
 |     |Li      Li      Li     |  
 Li    | Li      Li            |  
 |    Li      Li      Li       |  
 |     |                       |  
 |     |                       |  
 |     |                       |  
 |     |                       |  
 |     |                       |  
 |     |                       |  
 |     .-----------------------.  
 |    /                       /   
 |   /                       /    
 |  /                       /     
 | /                       /      
 |/                       /       
 *-----------------------*        

Positions:
   0 Li     1.617037    1.617037   10.000000    ( 0.0000,  0.0000,  0.0000)
   1 Li     4.851111    1.617037   10.000000    ( 0.0000,  0.0000,  0.0000)
   2 Li     8.085185    1.617037   10.000000    ( 0.0000,  0.0000,  0.0000)
   3 Li     1.617037    4.851111   10.000000    ( 0.0000,  0.0000,  0.0000)
   4 Li     4.851111    4.851111   10.000000    ( 0.0000,  0.0000,  0.0000)
   5 Li     8.085185    4.851111   10.000000    ( 0.0000,  0.0000,  0.0000)
   6 Li     1.617037    8.085185   10.000000    ( 0.0000,  0.0000,  0.0000)
   7 Li     4.851111    8.085185   10.000000    ( 0.0000,  0.0000,  0.0000)
   8 Li     8.085185    8.085185   10.000000    ( 0.0000,  0.0000,  0.0000)
   9 Li     0.000000    0.000000   11.617037    ( 0.0000,  0.0000,  0.0000)
  10 Li     3.234074    0.000000   11.617037    ( 0.0000,  0.0000,  0.0000)
  11 Li     6.468148    0.000000   11.617037    ( 0.0000,  0.0000,  0.0000)
  12 Li     0.000000    3.234074   11.617037    ( 0.0000,  0.0000,  0.0000)
  13 Li     3.234074    3.234074   11.617037    ( 0.0000,  0.0000,  0.0000)
  14 Li     6.468148    3.234074   11.617037    ( 0.0000,  0.0000,  0.0000)
  15 Li     0.000000    6.468148   11.617037    ( 0.0000,  0.0000,  0.0000)
  16 Li     3.234074    6.468148   11.617037    ( 0.0000,  0.0000,  0.0000)
  17 Li     6.468148    6.468148   11.617037    ( 0.0000,  0.0000,  0.0000)
  18 Li     1.617135    1.617021   13.469942    ( 0.0000,  0.0000,  0.0000)
  19 Li     4.850777    1.617038   13.469345    ( 0.0000,  0.0000,  0.0000)
  20 Li     8.085303    1.617079   13.468328    ( 0.0000,  0.0000,  0.0000)
  21 Li     1.616985    4.851066   13.469920    ( 0.0000,  0.0000,  0.0000)
  22 Li     4.851238    4.850902   13.470103    ( 0.0000,  0.0000,  0.0000)
  23 Li     8.085114    4.851016   13.470081    ( 0.0000,  0.0000,  0.0000)
  24 Li     1.616886    8.085217   13.470034    ( 0.0000,  0.0000,  0.0000)
  25 Li     4.851302    8.085383   13.470111    ( 0.0000,  0.0000,  0.0000)
  26 Li     8.085154    8.085215   13.469866    ( 0.0000,  0.0000,  0.0000)
  27 Li     0.000081    0.000200   15.446389    ( 0.0000,  0.0000,  0.0000)
  28 Li     3.233779   -0.000180   15.445588    ( 0.0000,  0.0000,  0.0000)
  29 Li     6.468257    0.000424   15.445629    ( 0.0000,  0.0000,  0.0000)
  30 Li     0.000184    3.233973   15.446522    ( 0.0000,  0.0000,  0.0000)
  31 Li     3.233813    3.234277   15.445494    ( 0.0000,  0.0000,  0.0000)
  32 Li     6.468065    3.233519   15.444761    ( 0.0000,  0.0000,  0.0000)
  33 Li    -0.000183    6.468056   15.445904    ( 0.0000,  0.0000,  0.0000)
  34 Li     3.234184    6.468150   15.445906    ( 0.0000,  0.0000,  0.0000)
  35 Li     6.468214    6.468043   15.445871    ( 0.0000,  0.0000,  0.0000)
  36 O      8.098747    1.631320   18.498655    ( 0.0000,  0.0000,  0.0000)
  37 C      6.889715    2.444773   18.469438    ( 0.0000,  0.0000,  0.0000)
  38 C      5.607805    1.613311   18.447900    ( 0.0000,  0.0000,  0.0000)
  39 H      6.912785    3.116883   19.315552    ( 0.0000,  0.0000,  0.0000)
  40 H      6.975443    3.054769   17.558766    ( 0.0000,  0.0000,  0.0000)
  41 H      4.740754    2.269209   18.421470    ( 0.0000,  0.0000,  0.0000)
  42 H      5.576802    0.964617   17.566643    ( 0.0000,  0.0000,  0.0000)
  43 H      5.547869    0.985757   19.330817    ( 0.0000,  0.0000,  0.0000)
  44 H      8.048436    1.026553   19.224246    ( 0.0000,  0.0000,  0.0000)
  45 N      8.108902    1.602519   16.899489    ( 0.0000,  0.0000,  0.0000)
  46 N      6.982713    1.603574   16.871339    ( 0.0000,  0.0000,  0.0000)

Unit cell:
           periodic     x           y           z      points  spacing
  1. axis:    yes    9.702222    0.000000    0.000000    60     0.1617
  2. axis:    yes    0.000000    9.702222    0.000000    60     0.1617
  3. axis:    no     0.000000    0.000000   26.351111   164     0.1607

  Lengths:   9.702222   9.702222  26.351111
  Angles:   90.000000  90.000000  90.000000

Effective grid spacing dv^(1/3) = 0.1614

     iter     time        total  log10-change:
                         energy  eigst   dens
iter:   1 22:24:18  -300.975584  -0.78
iter:   2 22:24:33  -300.810507  -0.66  -1.47
iter:   3 22:24:40  -300.764022  -1.46  -1.62
iter:   4 22:24:47  -300.751783  -1.00  -1.99
Writing to output.gpw (mode='')

iter:   5 22:24:54  -300.747063c -1.83  -1.96
iter:   6 22:25:01  -300.836832  -1.23  -2.27
iter:   7 22:25:09  -300.774685  -1.75  -1.80
iter:   8 22:25:16  -300.735342  -1.42  -1.99
iter:   9 22:25:23  -300.734873  -1.88  -2.53
Writing to output.gpw (mode='')

iter:  10 22:25:30  -300.743772c -2.72  -2.67
iter:  11 22:25:37  -300.734437c -1.87  -2.33
iter:  12 22:25:44  -300.734846c -2.90  -2.52
iter:  13 22:25:54  -300.734781c -2.79  -2.82
iter:  14 22:26:01  -300.735644c -3.24  -2.92
Writing to output.gpw (mode='')

iter:  15 22:26:09  -300.735479c -3.46  -2.93
iter:  16 22:26:16  -300.734759c -3.36  -2.97
iter:  17 22:26:23  -300.735403c -3.66  -3.13
iter:  18 22:26:30  -300.734934c -3.61  -3.08
iter:  19 22:26:37  -300.735106c -4.09  -3.39
Writing to output.gpw (mode='')

iter:  20 22:26:44  -300.735027c -3.91  -3.45
iter:  21 22:26:51  -300.735042c -4.40  -3.66
iter:  22 22:26:59  -300.735084c -4.25  -3.75
iter:  23 22:27:06  -300.735059c -4.54  -3.82
iter:  24 22:27:13  -300.735065c -4.50  -3.91
Writing to output.gpw (mode='')

iter:  25 22:27:20  -300.735068c -4.77  -3.90
iter:  26 22:27:27  -300.735064c -4.53  -3.90
iter:  27 22:27:34  -300.735058c -4.78  -3.86
iter:  28 22:27:41  -300.735081c -5.07  -3.80
iter:  29 22:27:48  -300.735066c -5.19  -3.90
Writing to output.gpw (mode='')

iter:  30 22:27:55  -300.735061c -4.87  -3.85
iter:  31 22:28:03  -300.735071c -5.27  -3.65
iter:  32 22:28:10  -300.735102c -4.96  -3.79
iter:  33 22:28:17  -300.735111c -5.48  -3.91
iter:  34 22:28:24  -300.735110c -5.50  -3.97
Writing to output.gpw (mode='')

iter:  35 22:28:31  -300.735090c -5.67  -4.03c
iter:  36 22:28:38  -300.735103c -5.69  -4.15c
iter:  37 22:28:45  -300.735096c -5.55  -4.29c
iter:  38 22:28:52  -300.735101c -6.25  -4.29c
iter:  39 22:29:00  -300.735102c -5.85  -4.38c
Writing to output.gpw (mode='')

iter:  40 22:29:07  -300.735102c -6.45  -4.39c
iter:  41 22:29:14  -300.735103c -5.87  -4.51c
iter:  42 22:29:26  -300.735106c -6.16  -4.47c
iter:  43 22:29:36  -300.735104c -6.80  -4.80c
iter:  44 22:29:43  -300.735106c -6.71  -4.89c
Writing to output.gpw (mode='')

iter:  45 22:29:50  -300.735105c -6.32  -4.96c
iter:  46 22:29:58  -300.735106c -6.74  -4.99c
iter:  47 22:30:05  -300.735106c -6.87  -5.16c
iter:  48 22:30:12  -300.735107c -6.99  -5.20c
iter:  49 22:30:19  -300.735106c -6.99  -5.30c
Writing to output.gpw (mode='')

iter:  50 22:30:26  -300.735107c -7.07  -5.36c
iter:  51 22:30:33  -300.735106c -7.31  -5.44c
iter:  52 22:30:41  -300.735107c -7.21  -5.47c
iter:  53 22:30:48  -300.735106c -7.29  -5.47c
iter:  54 22:30:55  -300.735107c -7.27  -5.65c
Writing to output.gpw (mode='')

iter:  55 22:31:02  -300.735107c -7.78c -5.71c

Converged after 55 iterations.

Dipole moment: (-2.396487, -4.406332, 0.393066) |e|*Ang

Energy contributions relative to reference atoms: (reference = -14434.854043)

Kinetic:       +187.704276
Potential:     -167.686738
External:        +0.000000
XC:            -321.413951
Entropy (-ST):   -0.163570
Local:           +0.743092
--------------------------
Free energy:   -300.816892
Extrapolated:  -300.735107

Dipole-layer corrected work functions: 3.378480, 2.622872 eV

Showing only first 2 kpts
 Kpt  Band  Eigenvalues  Occupancy
  0    31     -3.24631    1.98540
  0    32     -3.09507    1.73702
  0    33     -2.88217    0.17096
  0    34     -2.80118    0.03633

  1    31     -3.05607    1.50344
  1    32     -3.00804    1.07356
  1    33     -2.96152    0.62733
  1    34     -2.87748    0.15684


Fermi level: -3.00068

No gap

Forces in eV/Ang:
  0 Li    0.01996   -0.00160   -0.26840
  1 Li   -0.02390   -0.00042   -0.27737
  2 Li    0.00541    0.00232   -0.28322
  3 Li    0.00196    0.00129   -0.27472
  4 Li    0.00313    0.00931   -0.27710
  5 Li   -0.00489    0.02159   -0.27091
  6 Li    0.00375    0.00367   -0.27628
  7 Li   -0.00046   -0.00620   -0.27990
  8 Li   -0.00462   -0.02453   -0.27355
  9 Li    0.00635    0.00664    0.29893
 10 Li   -0.01129    0.00072    0.23794
 11 Li    0.00323    0.01367    0.32604
 12 Li    0.00830   -0.00243    0.30267
 13 Li   -0.00996   -0.00558    0.23950
 14 Li   -0.00092   -0.00830    0.31983
 15 Li   -0.01796   -0.00158    0.24831
 16 Li    0.00775   -0.00086    0.27787
 17 Li    0.00985   -0.00322    0.23331
 18 Li    0.01492   -0.00288    0.03621
 19 Li   -0.05758    0.00046   -0.06374
 20 Li    0.02178    0.00708   -0.24273
 21 Li   -0.00983   -0.00755    0.03295
 22 Li    0.02300   -0.03710    0.06537
 23 Li   -0.01122   -0.01600    0.06011
 24 Li   -0.02573    0.00594    0.05199
 25 Li    0.03322    0.03497    0.06559
 26 Li   -0.00508    0.00542    0.02465
 27 Li    0.02615    0.02767    0.07142
 28 Li   -0.04881   -0.02986   -0.06074
 29 Li    0.00482    0.03978   -0.07922
 30 Li    0.04585   -0.00862    0.08730
 31 Li   -0.04159    0.03327   -0.07633
 32 Li   -0.01890   -0.06358   -0.22192
 33 Li   -0.03221   -0.01519   -0.00646
 34 Li    0.01850    0.00085   -0.00507
 35 Li    0.01188   -0.01656   -0.01293
 36 O     1.78894    2.51760    7.97730
 37 C    -1.74967    1.56581    2.99761
 38 C    -1.37579   -0.10774    1.67360
 39 H     0.12314    0.06211    0.92568
 40 H    -0.43682    1.61662    1.97638
 41 H    -0.19867    0.19413    0.19531
 42 H    -1.08142   -0.03797    1.26675
 43 H    -0.11323   -0.04368    0.49817
 44 H     0.24559   -1.19721    1.66150
 45 N     4.23935   -2.25702   -7.46614
 46 N    -1.33138   -2.23394  -11.44359

System changes: positions 

Initializing position-dependent things.

Density initialized from wave functions
       .-----------------------.  
      /|                       |  
     / |                       |  
    /  |                       |  
   /   |                       |  
  /    |                       |  
 *     |                       |  
 |     |                       |  
 |     |                       |  
 |     |                       |  
 |     |                       |  
 |     |                       |  
 |     |                       |  
 |     |       Li   H          |  
 |     |      HH    C H        |  
 |     |     Li C   HLi      Li|  
 |     |       H               |  
 | Li  |  LLi     LNi N   Li   |  
 |     |                       |  
 Li    |Li      LLi     Li     |  
 |   Li|     Li      Li        |  
 |    Li  Li  Li  Li  Li  Li   |  
 | Li  |   Li      Li          |  
 |     |Li      Li      Li     |  
 Li    | Li      Li            |  
 |    Li      Li      Li       |  
 |     |                       |  
 |     |                       |  
 |     |                       |  
 |     |                       |  
 |     |                       |  
 |     |                       |  
 |     .-----------------------.  
 |    /                       /   
 |   /                       /    
 |  /                       /     
 | /                       /      
 |/                       /       
 *-----------------------*        

Positions:
   0 Li     1.617037    1.617037   10.000000    ( 0.0000,  0.0000,  0.0000)
   1 Li     4.851111    1.617037   10.000000    ( 0.0000,  0.0000,  0.0000)
   2 Li     8.085185    1.617037   10.000000    ( 0.0000,  0.0000,  0.0000)
   3 Li     1.617037    4.851111   10.000000    ( 0.0000,  0.0000,  0.0000)
   4 Li     4.851111    4.851111   10.000000    ( 0.0000,  0.0000,  0.0000)
   5 Li     8.085185    4.851111   10.000000    ( 0.0000,  0.0000,  0.0000)
   6 Li     1.617037    8.085185   10.000000    ( 0.0000,  0.0000,  0.0000)
   7 Li     4.851111    8.085185   10.000000    ( 0.0000,  0.0000,  0.0000)
   8 Li     8.085185    8.085185   10.000000    ( 0.0000,  0.0000,  0.0000)
   9 Li     0.000000    0.000000   11.617037    ( 0.0000,  0.0000,  0.0000)
  10 Li     3.234074    0.000000   11.617037    ( 0.0000,  0.0000,  0.0000)
  11 Li     6.468148    0.000000   11.617037    ( 0.0000,  0.0000,  0.0000)
  12 Li     0.000000    3.234074   11.617037    ( 0.0000,  0.0000,  0.0000)
  13 Li     3.234074    3.234074   11.617037    ( 0.0000,  0.0000,  0.0000)
  14 Li     6.468148    3.234074   11.617037    ( 0.0000,  0.0000,  0.0000)
  15 Li     0.000000    6.468148   11.617037    ( 0.0000,  0.0000,  0.0000)
  16 Li     3.234074    6.468148   11.617037    ( 0.0000,  0.0000,  0.0000)
  17 Li     6.468148    6.468148   11.617037    ( 0.0000,  0.0000,  0.0000)
  18 Li     1.617201    1.617007   13.470095    ( 0.0000,  0.0000,  0.0000)
  19 Li     4.850475    1.617048   13.469023    ( 0.0000,  0.0000,  0.0000)
  20 Li     8.085416    1.617116   13.467138    ( 0.0000,  0.0000,  0.0000)
  21 Li     1.616928    4.851028   13.470084    ( 0.0000,  0.0000,  0.0000)
  22 Li     4.851367    4.850705   13.470440    ( 0.0000,  0.0000,  0.0000)
  23 Li     8.085065    4.850958   13.470348    ( 0.0000,  0.0000,  0.0000)
  24 Li     1.616757    8.085252   13.470290    ( 0.0000,  0.0000,  0.0000)
  25 Li     4.851474    8.085565   13.470431    ( 0.0000,  0.0000,  0.0000)
  26 Li     8.085133    8.085220   13.469965    ( 0.0000,  0.0000,  0.0000)
  27 Li     0.000235    0.000362   15.446829    ( 0.0000,  0.0000,  0.0000)
  28 Li     3.233555   -0.000332   15.445282    ( 0.0000,  0.0000,  0.0000)
  29 Li     6.468260    0.000426   15.445186    ( 0.0000,  0.0000,  0.0000)
  30 Li     0.000484    3.233950   15.446945    ( 0.0000,  0.0000,  0.0000)
  31 Li     3.233651    3.234445   15.445114    ( 0.0000,  0.0000,  0.0000)
  32 Li     6.468057    3.233385   15.443684    ( 0.0000,  0.0000,  0.0000)
  33 Li    -0.000332    6.467987   15.445850    ( 0.0000,  0.0000,  0.0000)
  34 Li     3.234276    6.468153   15.445881    ( 0.0000,  0.0000,  0.0000)
  35 Li     6.468254    6.467977   15.445764    ( 0.0000,  0.0000,  0.0000)
  36 O      8.098685    1.646322   18.519359    ( 0.0000,  0.0000,  0.0000)
  37 C      6.888217    2.447734   18.479339    ( 0.0000,  0.0000,  0.0000)
  38 C      5.606863    1.613300   18.450869    ( 0.0000,  0.0000,  0.0000)
  39 H      6.911983    3.119088   19.321037    ( 0.0000,  0.0000,  0.0000)
  40 H      6.973916    3.058365   17.568927    ( 0.0000,  0.0000,  0.0000)
  41 H      4.739014    2.270412   18.422369    ( 0.0000,  0.0000,  0.0000)
  42 H      5.573039    0.965112   17.572367    ( 0.0000,  0.0000,  0.0000)
  43 H      5.546920    0.984725   19.334257    ( 0.0000,  0.0000,  0.0000)
  44 H      8.047266    1.020381   19.232936    ( 0.0000,  0.0000,  0.0000)
  45 N      8.114725    1.594847   16.870887    ( 0.0000,  0.0000,  0.0000)
  46 N      6.989758    1.593501   16.833274    ( 0.0000,  0.0000,  0.0000)

Unit cell:
           periodic     x           y           z      points  spacing
  1. axis:    yes    9.702222    0.000000    0.000000    60     0.1617
  2. axis:    yes    0.000000    9.702222    0.000000    60     0.1617
  3. axis:    no     0.000000    0.000000   26.351111   164     0.1607

  Lengths:   9.702222   9.702222  26.351111
  Angles:   90.000000  90.000000  90.000000

Effective grid spacing dv^(1/3) = 0.1614

     iter     time        total  log10-change:
                         energy  eigst   dens
iter:   1 22:31:11  -301.828608  -0.82
iter:   2 22:31:18  -301.747784  -0.89  -1.59
iter:   3 22:31:25  -301.718376  -1.71  -1.70
iter:   4 22:31:32  -301.725924c -1.93  -2.10
Writing to output.gpw (mode='')

iter:   5 22:31:39  -301.721707c -1.38  -2.06
iter:   6 22:31:47  -301.726306c -1.95  -1.89
iter:   7 22:31:54  -301.704010c -2.24  -1.87
iter:   8 22:32:01  -301.701258c -2.38  -2.18
iter:   9 22:32:08  -301.702075c -2.30  -2.33
Writing to output.gpw (mode='')

iter:  10 22:32:15  -301.702084c -2.48  -2.61
iter:  11 22:32:22  -301.700443c -3.06  -2.64
iter:  12 22:32:30  -301.700105c -3.39  -2.88
iter:  13 22:32:37  -301.700500c -3.62  -2.89
iter:  14 22:32:44  -301.700522c -3.69  -3.03
Writing to output.gpw (mode='')

iter:  15 22:32:51  -301.700162c -3.51  -3.13
iter:  16 22:32:58  -301.700330c -3.73  -3.32
iter:  17 22:33:06  -301.700363c -4.31  -3.25
iter:  18 22:33:13  -301.700251c -4.15  -3.57
iter:  19 22:33:20  -301.700213c -4.56  -3.68
Writing to output.gpw (mode='')

iter:  20 22:33:27  -301.700293c -4.65  -3.81
iter:  21 22:33:34  -301.700240c -5.00  -3.87
iter:  22 22:33:41  -301.700258c -5.08  -4.04c
iter:  23 22:33:49  -301.700256c -5.06  -4.09c
iter:  24 22:33:56  -301.700260c -5.23  -4.19c
Writing to output.gpw (mode='')

iter:  25 22:34:03  -301.700246c -5.50  -4.23c
iter:  26 22:34:10  -301.700257c -5.52  -4.30c
iter:  27 22:34:17  -301.700260c -5.69  -4.31c
iter:  28 22:34:31  -301.700266c -5.70  -4.34c
iter:  29 22:34:39  -301.700258c -5.88  -4.55c
Writing to output.gpw (mode='')

iter:  30 22:34:46  -301.700260c -6.22  -4.57c
iter:  31 22:34:53  -301.700261c -5.95  -4.66c
iter:  32 22:35:00  -301.700264c -6.02  -4.71c
iter:  33 22:35:07  -301.700266c -6.34  -4.78c
iter:  34 22:35:15  -301.700262c -6.22  -4.82c
Writing to output.gpw (mode='')

iter:  35 22:35:22  -301.700266c -6.37  -4.70c
iter:  36 22:35:29  -301.700266c -6.17  -4.99c
iter:  37 22:35:36  -301.700267c -6.63  -4.90c
iter:  38 22:35:43  -301.700266c -6.54  -4.86c
iter:  39 22:35:50  -301.700266c -6.76  -4.95c
Writing to output.gpw (mode='')

iter:  40 22:35:58  -301.700265c -6.92  -4.89c
iter:  41 22:36:05  -301.700267c -6.78  -4.95c
iter:  42 22:36:12  -301.700266c -6.95  -4.87c
iter:  43 22:36:19  -301.700267c -7.05  -4.95c
iter:  44 22:36:27  -301.700268c -7.01  -4.99c
Writing to output.gpw (mode='')

iter:  45 22:36:34  -301.700268c -7.01  -4.91c
iter:  46 22:36:41  -301.700268c -7.30  -4.95c
iter:  47 22:36:48  -301.700267c -7.30  -4.93c
iter:  48 22:36:56  -301.700267c -7.60c -5.07c

Converged after 48 iterations.

Dipole moment: (-2.437243, -4.386589, 0.393532) |e|*Ang

Energy contributions relative to reference atoms: (reference = -14434.854043)

Kinetic:       +184.336244
Potential:     -165.735632
External:        +0.000000
XC:            -320.964488
Entropy (-ST):   -0.165556
Local:           +0.746386
--------------------------
Free energy:   -301.783045
Extrapolated:  -301.700267

Dipole-layer corrected work functions: 3.379614, 2.623110 eV

Showing only first 2 kpts
 Kpt  Band  Eigenvalues  Occupancy
  0    31     -3.24696    1.98539
  0    32     -3.09172    1.71806
  0    33     -2.88803    0.18786
  0    34     -2.79881    0.03421

  1    31     -3.05665    1.50269
  1    32     -3.00880    1.07424
  1    33     -2.96348    0.63833
  1    34     -2.87844    0.15764


Fermi level: -3.00136

No gap
Writing to output.gpw (mode='')


Forces in eV/Ang:
  0 Li    0.02004   -0.00133   -0.26864
  1 Li   -0.02357   -0.00028   -0.27733
  2 Li    0.00535    0.00229   -0.28341
  3 Li    0.00183    0.00157   -0.27533
  4 Li    0.00293    0.00962   -0.27704
  5 Li   -0.00501    0.02205   -0.27141
  6 Li    0.00346    0.00308   -0.27622
  7 Li   -0.00054   -0.00674   -0.28054
  8 Li   -0.00498   -0.02507   -0.27413
  9 Li    0.00550    0.00696    0.30015
 10 Li   -0.01097    0.00105    0.23819
 11 Li    0.00334    0.01384    0.32753
 12 Li    0.00725   -0.00300    0.30343
 13 Li   -0.01048   -0.00562    0.23904
 14 Li   -0.00063   -0.00861    0.32030
 15 Li   -0.01770   -0.00157    0.24735
 16 Li    0.00836   -0.00121    0.27773
 17 Li    0.00980   -0.00303    0.23266
 18 Li    0.01428   -0.00283    0.03437
 19 Li   -0.05823    0.00118   -0.06393
 20 Li    0.02219    0.00730   -0.24254
 21 Li   -0.01022   -0.00773    0.03325
 22 Li    0.02398   -0.03778    0.06594
 23 Li   -0.01043   -0.01467    0.05791
 24 Li   -0.02604    0.00652    0.05210
 25 Li    0.03373    0.03509    0.06509
 26 Li   -0.00454    0.00410    0.02343
 27 Li    0.03096    0.02798    0.07500
 28 Li   -0.04821   -0.03011   -0.06134
 29 Li   -0.00514    0.01598   -0.09117
 30 Li    0.05305   -0.00594    0.08449
 31 Li   -0.03809    0.03301   -0.07596
 32 Li   -0.01525   -0.04229   -0.22025
 33 Li   -0.03170   -0.01443   -0.00791
 34 Li    0.01825    0.00098   -0.00527
 35 Li    0.01088   -0.01510   -0.01595
 36 O     1.42928    2.17164    7.16092
 37 C    -1.45468    1.34696    2.72536
 38 C    -1.16177   -0.03924    1.54332
 39 H     0.01750    0.15021    0.91158
 40 H    -0.38062    1.35690    1.89558
 41 H    -0.14688    0.15106    0.18600
 42 H    -0.95701   -0.04376    1.13345
 43 H    -0.11891   -0.02970    0.45122
 44 H     0.12389   -0.87694    1.28954
 45 N     3.80265   -2.11138   -6.74791
 46 N    -1.09863   -2.04280  -10.25529

System changes: positions 

Initializing position-dependent things.

Density initialized from wave functions
       .-----------------------.  
      /|                       |  
     / |                       |  
    /  |                       |  
   /   |                       |  
  /    |                       |  
 *     |                       |  
 |     |                       |  
 |     |                       |  
 |     |                       |  
 |     |                       |  
 |     |                       |  
 |     |                       |  
 |     |       Li   H          |  
 |     |      HH    C H        |  
 |     |     Li C   HLi      Li|  
 |     |       H               |  
 | Li  |  LLi     LNi N   Li   |  
 |     |                       |  
 Li    |Li      LLi     Li     |  
 |   Li|     Li      Li        |  
 |    Li  Li  Li  Li  Li  Li   |  
 | Li  |   Li      Li          |  
 |     |Li      Li      Li     |  
 Li    | Li      Li            |  
 |    Li      Li      Li       |  
 |     |                       |  
 |     |                       |  
 |     |                       |  
 |     |                       |  
 |     |                       |  
 |     |                       |  
 |     .-----------------------.  
 |    /                       /   
 |   /                       /    
 |  /                       /     
 | /                       /      
 |/                       /       
 *-----------------------*        

Positions:
   0 Li     1.617037    1.617037   10.000000    ( 0.0000,  0.0000,  0.0000)
   1 Li     4.851111    1.617037   10.000000    ( 0.0000,  0.0000,  0.0000)
   2 Li     8.085185    1.617037   10.000000    ( 0.0000,  0.0000,  0.0000)
   3 Li     1.617037    4.851111   10.000000    ( 0.0000,  0.0000,  0.0000)
   4 Li     4.851111    4.851111   10.000000    ( 0.0000,  0.0000,  0.0000)
   5 Li     8.085185    4.851111   10.000000    ( 0.0000,  0.0000,  0.0000)
   6 Li     1.617037    8.085185   10.000000    ( 0.0000,  0.0000,  0.0000)
   7 Li     4.851111    8.085185   10.000000    ( 0.0000,  0.0000,  0.0000)
   8 Li     8.085185    8.085185   10.000000    ( 0.0000,  0.0000,  0.0000)
   9 Li     0.000000    0.000000   11.617037    ( 0.0000,  0.0000,  0.0000)
  10 Li     3.234074    0.000000   11.617037    ( 0.0000,  0.0000,  0.0000)
  11 Li     6.468148    0.000000   11.617037    ( 0.0000,  0.0000,  0.0000)
  12 Li     0.000000    3.234074   11.617037    ( 0.0000,  0.0000,  0.0000)
  13 Li     3.234074    3.234074   11.617037    ( 0.0000,  0.0000,  0.0000)
  14 Li     6.468148    3.234074   11.617037    ( 0.0000,  0.0000,  0.0000)
  15 Li     0.000000    6.468148   11.617037    ( 0.0000,  0.0000,  0.0000)
  16 Li     3.234074    6.468148   11.617037    ( 0.0000,  0.0000,  0.0000)
  17 Li     6.468148    6.468148   11.617037    ( 0.0000,  0.0000,  0.0000)
  18 Li     1.617280    1.616991   13.470275    ( 0.0000,  0.0000,  0.0000)
  19 Li     4.850079    1.617070   13.468604    ( 0.0000,  0.0000,  0.0000)
  20 Li     8.085568    1.617167   13.465590    ( 0.0000,  0.0000,  0.0000)
  21 Li     1.616851    4.850975   13.470302    ( 0.0000,  0.0000,  0.0000)
  22 Li     4.851545    4.850444   13.470883    ( 0.0000,  0.0000,  0.0000)
  23 Li     8.085011    4.850895   13.470673    ( 0.0000,  0.0000,  0.0000)
  24 Li     1.616585    8.085305   13.470625    ( 0.0000,  0.0000,  0.0000)
  25 Li     4.851702    8.085799   13.470841    ( 0.0000,  0.0000,  0.0000)
  26 Li     8.085112    8.085214   13.470083    ( 0.0000,  0.0000,  0.0000)
  27 Li     0.000500    0.000568   15.447425    ( 0.0000,  0.0000,  0.0000)
  28 Li     3.233267   -0.000532   15.444877    ( 0.0000,  0.0000,  0.0000)
  29 Li     6.468120    0.000132   15.444445    ( 0.0000,  0.0000,  0.0000)
  30 Li     0.000960    3.233953   15.447454    ( 0.0000,  0.0000,  0.0000)
  31 Li     3.233480    3.234659   15.444628    ( 0.0000,  0.0000,  0.0000)
  32 Li     6.468072    3.233473   15.442302    ( 0.0000,  0.0000,  0.0000)
  33 Li    -0.000521    6.467907   15.445765    ( 0.0000,  0.0000,  0.0000)
  34 Li     3.234391    6.468159   15.445845    ( 0.0000,  0.0000,  0.0000)
  35 Li     6.468297    6.467909   15.445594    ( 0.0000,  0.0000,  0.0000)
  36 O      8.096183    1.659691   18.540283    ( 0.0000,  0.0000,  0.0000)
  37 C      6.888309    2.449891   18.489758    ( 0.0000,  0.0000,  0.0000)
  38 C      5.606892    1.614149   18.454561    ( 0.0000,  0.0000,  0.0000)
  39 H      6.909815    3.122647   19.327643    ( 0.0000,  0.0000,  0.0000)
  40 H      6.972568    3.060595   17.580778    ( 0.0000,  0.0000,  0.0000)
  41 H      4.737798    2.271237   18.423420    ( 0.0000,  0.0000,  0.0000)
  42 H      5.569496    0.965435   17.577966    ( 0.0000,  0.0000,  0.0000)
  43 H      5.545733    0.983874   19.337683    ( 0.0000,  0.0000,  0.0000)
  44 H      8.044710    1.017315   19.238414    ( 0.0000,  0.0000,  0.0000)
  45 N      8.120879    1.585893   16.841771    ( 0.0000,  0.0000,  0.0000)
  46 N      6.997746    1.582977   16.795519    ( 0.0000,  0.0000,  0.0000)

Unit cell:
           periodic     x           y           z      points  spacing
  1. axis:    yes    9.702222    0.000000    0.000000    60     0.1617
  2. axis:    yes    0.000000    9.702222    0.000000    60     0.1617
  3. axis:    no     0.000000    0.000000   26.351111   164     0.1607

  Lengths:   9.702222   9.702222  26.351111
  Angles:   90.000000  90.000000  90.000000

Effective grid spacing dv^(1/3) = 0.1614

     iter     time        total  log10-change:
                         energy  eigst   dens
iter:   1 22:37:04  -302.716492  -0.83
iter:   2 22:37:12  -302.609070  -0.84  -1.54
iter:   3 22:37:19  -302.572947  -1.76  -1.67
iter:   4 22:37:26  -302.582828  -1.99  -2.09
Writing to output.gpw (mode='')

iter:   5 22:37:33  -302.582364c -1.32  -2.04
iter:   6 22:37:40  -302.591404c -1.85  -1.84
iter:   7 22:37:48  -302.560690c -2.34  -1.79
iter:   8 22:37:55  -302.555338  -2.37  -2.10
iter:   9 22:38:02  -302.557187c -2.22  -2.31
Writing to output.gpw (mode='')

iter:  10 22:38:09  -302.557405c -2.47  -2.58
iter:  11 22:38:16  -302.555332c -3.11  -2.59
iter:  12 22:38:23  -302.554364c -3.31  -2.79
iter:  13 22:38:30  -302.554567c -3.60  -2.90
iter:  14 22:38:38  -302.554616c -3.68  -3.02
Writing to output.gpw (mode='')

iter:  15 22:38:45  -302.554403c -3.52  -3.14
iter:  16 22:38:52  -302.554662c -3.63  -3.28
iter:  17 22:38:59  -302.554592c -4.31  -3.22
iter:  18 22:39:06  -302.554553c -4.04  -3.58
iter:  19 22:39:13  -302.554560c -4.67  -3.69
Writing to output.gpw (mode='')

iter:  20 22:39:20  -302.554582c -4.98  -3.85
iter:  21 22:39:33  -302.554569c -4.89  -3.91
iter:  22 22:39:40  -302.554605c -4.98  -3.95
iter:  23 22:39:47  -302.554568c -5.10  -3.97
iter:  24 22:39:54  -302.554586c -5.34  -4.21c
Writing to output.gpw (mode='')

iter:  25 22:40:01  -302.554578c -5.48  -4.29c
iter:  26 22:40:09  -302.554577c -5.68  -4.41c
iter:  27 22:40:16  -302.554580c -5.61  -4.39c
iter:  28 22:40:23  -302.554576c -5.62  -4.49c
iter:  29 22:40:31  -302.554577c -5.67  -4.39c
Writing to output.gpw (mode='')

iter:  30 22:40:38  -302.554580c -5.87  -4.39c
iter:  31 22:40:45  -302.554579c -6.07  -4.40c
iter:  32 22:40:52  -302.554582c -6.01  -4.43c
iter:  33 22:40:59  -302.554596c -5.99  -4.44c
iter:  34 22:41:06  -302.554590c -6.47  -4.41c
Writing to output.gpw (mode='')

iter:  35 22:41:13  -302.554584c -6.26  -4.46c
iter:  36 22:41:21  -302.554578c -6.56  -4.30c
iter:  37 22:41:28  -302.554592c -6.48  -4.28c
iter:  38 22:41:35  -302.554592c -6.75  -4.52c
iter:  39 22:41:42  -302.554591c -6.57  -4.55c
Writing to output.gpw (mode='')

iter:  40 22:41:49  -302.554590c -6.23  -4.64c
iter:  41 22:41:56  -302.554591c -6.73  -4.57c
iter:  42 22:42:04  -302.554589c -6.69  -4.74c
iter:  43 22:42:11  -302.554590c -6.87  -4.81c
iter:  44 22:42:18  -302.554591c -6.76  -4.88c
Writing to output.gpw (mode='')

iter:  45 22:42:26  -302.554590c -6.99  -5.02c
iter:  46 22:42:33  -302.554590c -7.06  -5.12c
iter:  47 22:42:40  -302.554590c -7.13  -5.14c
iter:  48 22:42:47  -302.554590c -7.37  -5.22c
iter:  49 22:42:54  -302.554591c -7.23  -5.37c
Writing to output.gpw (mode='')

iter:  50 22:43:01  -302.554590c -7.67c -5.51c

Converged after 50 iterations.

Dipole moment: (-2.480168, -4.361811, 0.389789) |e|*Ang

Energy contributions relative to reference atoms: (reference = -14434.854043)

Kinetic:       +181.689284
Potential:     -164.238053
External:        +0.000000
XC:            -320.671922
Entropy (-ST):   -0.167367
Local:           +0.749784
--------------------------
Free energy:   -302.638274
Extrapolated:  -302.554590

Dipole-layer corrected work functions: 3.380791, 2.631484 eV

Showing only first 2 kpts
 Kpt  Band  Eigenvalues  Occupancy
  0    31     -3.25184    1.98542
  0    32     -3.09260    1.69866
  0    33     -2.89757    0.20470
  0    34     -2.80006    0.03192

  1    31     -3.06255    1.51106
  1    32     -3.01384    1.07688
  1    33     -2.96897    0.64458
  1    34     -2.88286    0.15663


Fermi level: -3.00614

No gap

Forces in eV/Ang:
  0 Li    0.02007   -0.00109   -0.26895
  1 Li   -0.02320   -0.00019   -0.27741
  2 Li    0.00526    0.00223   -0.28370
  3 Li    0.00163    0.00179   -0.27595
  4 Li    0.00281    0.00990   -0.27705
  5 Li   -0.00518    0.02243   -0.27206
  6 Li    0.00315    0.00262   -0.27625
  7 Li   -0.00057   -0.00719   -0.28119
  8 Li   -0.00539   -0.02550   -0.27468
  9 Li    0.00480    0.00728    0.30118
 10 Li   -0.01066    0.00125    0.23850
 11 Li    0.00335    0.01396    0.32879
 12 Li    0.00626   -0.00357    0.30414
 13 Li   -0.01099   -0.00558    0.23869
 14 Li   -0.00043   -0.00884    0.32074
 15 Li   -0.01734   -0.00162    0.24658
 16 Li    0.00890   -0.00153    0.27759
 17 Li    0.00978   -0.00285    0.23214
 18 Li    0.01366   -0.00277    0.03250
 19 Li   -0.05840    0.00184   -0.06418
 20 Li    0.02251    0.00737   -0.24149
 21 Li   -0.01048   -0.00792    0.03360
 22 Li    0.02471   -0.03804    0.06585
 23 Li   -0.00944   -0.01323    0.05528
 24 Li   -0.02634    0.00716    0.05205
 25 Li    0.03401    0.03482    0.06430
 26 Li   -0.00387    0.00286    0.02224
 27 Li    0.03586    0.02852    0.07842
 28 Li   -0.04764   -0.03046   -0.06157
 29 Li   -0.01792   -0.01280   -0.10581
 30 Li    0.06006   -0.00322    0.08174
 31 Li   -0.03521    0.03276   -0.07521
 32 Li   -0.01323   -0.01956   -0.21582
 33 Li   -0.03112   -0.01348   -0.00907
 34 Li    0.01787    0.00120   -0.00541
 35 Li    0.00994   -0.01374   -0.01856
 36 O     1.24218    1.95662    6.19114
 37 C    -1.27881    1.15449    2.48802
 38 C    -0.99550   -0.00778    1.40584
 39 H    -0.07211    0.21838    0.87556
 40 H    -0.31574    1.15320    1.74637
 41 H    -0.10524    0.12285    0.18223
 42 H    -0.83204   -0.03116    1.02674
 43 H    -0.12217   -0.01755    0.41230
 44 H     0.01710   -0.77843    1.15173
 45 N     3.62333   -1.83468   -6.01158
 46 N    -1.07786   -1.88245   -9.09461

System changes: positions 

Initializing position-dependent things.

Density initialized from wave functions
       .-----------------------.  
      /|                       |  
     / |                       |  
    /  |                       |  
   /   |                       |  
  /    |                       |  
 *     |                       |  
 |     |                       |  
 |     |                       |  
 |     |                       |  
 |     |                       |  
 |     |                       |  
 |     |                       |  
 |     |       Li   H  Li      |  
 |     |      HH    C H        |  
 |     |     Li C   HLi      Li|  
 |     |       H               |  
 | Li  |  LLi     LNi N   Li   |  
 |     |                       |  
 Li    |Li      Li      Li     |  
 |   Li|     Li      Li        |  
 |    Li  Li  Li  Li  Li  Li   |  
 | Li  |   Li      Li          |  
 |     |Li      Li      Li     |  
 Li    | Li      Li            |  
 |    Li      Li      Li       |  
 |     |                       |  
 |     |                       |  
 |     |                       |  
 |     |                       |  
 |     |                       |  
 |     |                       |  
 |     .-----------------------.  
 |    /                       /   
 |   /                       /    
 |  /                       /     
 | /                       /      
 |/                       /       
 *-----------------------*        

Positions:
   0 Li     1.617037    1.617037   10.000000    ( 0.0000,  0.0000,  0.0000)
   1 Li     4.851111    1.617037   10.000000    ( 0.0000,  0.0000,  0.0000)
   2 Li     8.085185    1.617037   10.000000    ( 0.0000,  0.0000,  0.0000)
   3 Li     1.617037    4.851111   10.000000    ( 0.0000,  0.0000,  0.0000)
   4 Li     4.851111    4.851111   10.000000    ( 0.0000,  0.0000,  0.0000)
   5 Li     8.085185    4.851111   10.000000    ( 0.0000,  0.0000,  0.0000)
   6 Li     1.617037    8.085185   10.000000    ( 0.0000,  0.0000,  0.0000)
   7 Li     4.851111    8.085185   10.000000    ( 0.0000,  0.0000,  0.0000)
   8 Li     8.085185    8.085185   10.000000    ( 0.0000,  0.0000,  0.0000)
   9 Li     0.000000    0.000000   11.617037    ( 0.0000,  0.0000,  0.0000)
  10 Li     3.234074    0.000000   11.617037    ( 0.0000,  0.0000,  0.0000)
  11 Li     6.468148    0.000000   11.617037    ( 0.0000,  0.0000,  0.0000)
  12 Li     0.000000    3.234074   11.617037    ( 0.0000,  0.0000,  0.0000)
  13 Li     3.234074    3.234074   11.617037    ( 0.0000,  0.0000,  0.0000)
  14 Li     6.468148    3.234074   11.617037    ( 0.0000,  0.0000,  0.0000)
  15 Li     0.000000    6.468148   11.617037    ( 0.0000,  0.0000,  0.0000)
  16 Li     3.234074    6.468148   11.617037    ( 0.0000,  0.0000,  0.0000)
  17 Li     6.468148    6.468148   11.617037    ( 0.0000,  0.0000,  0.0000)
  18 Li     1.617375    1.616970   13.470483    ( 0.0000,  0.0000,  0.0000)
  19 Li     4.849582    1.617103   13.468071    ( 0.0000,  0.0000,  0.0000)
  20 Li     8.085761    1.617231   13.463654    ( 0.0000,  0.0000,  0.0000)
  21 Li     1.616754    4.850907   13.470580    ( 0.0000,  0.0000,  0.0000)
  22 Li     4.851773    4.850117   13.471434    ( 0.0000,  0.0000,  0.0000)
  23 Li     8.084955    4.850830   13.471053    ( 0.0000,  0.0000,  0.0000)
  24 Li     1.616364    8.085378   13.471048    ( 0.0000,  0.0000,  0.0000)
  25 Li     4.851991    8.086089   13.471348    ( 0.0000,  0.0000,  0.0000)
  26 Li     8.085094    8.085195   13.470220    ( 0.0000,  0.0000,  0.0000)
  27 Li     0.000882    0.000839   15.448211    ( 0.0000,  0.0000,  0.0000)
  28 Li     3.232905   -0.000789   15.444366    ( 0.0000,  0.0000,  0.0000)
  29 Li     6.467787   -0.000555   15.443349    ( 0.0000,  0.0000,  0.0000)
  30 Li     0.001621    3.233981   15.448077    ( 0.0000,  0.0000,  0.0000)
  31 Li     3.233286    3.234925   15.444024    ( 0.0000,  0.0000,  0.0000)
  32 Li     6.468103    3.233816   15.440642    ( 0.0000,  0.0000,  0.0000)
  33 Li    -0.000753    6.467817   15.445649    ( 0.0000,  0.0000,  0.0000)
  34 Li     3.234531    6.468170   15.445797    ( 0.0000,  0.0000,  0.0000)
  35 Li     6.468343    6.467835   15.445357    ( 0.0000,  0.0000,  0.0000)
  36 O      8.093316    1.673490   18.558368    ( 0.0000,  0.0000,  0.0000)
  37 C      6.888511    2.451426   18.501154    ( 0.0000,  0.0000,  0.0000)
  38 C      5.607337    1.615396   18.458889    ( 0.0000,  0.0000,  0.0000)
  39 H      6.906341    3.127463   19.335231    ( 0.0000,  0.0000,  0.0000)
  40 H      6.971585    3.062069   17.593488    ( 0.0000,  0.0000,  0.0000)
  41 H      4.736986    2.271889   18.424734    ( 0.0000,  0.0000,  0.0000)
  42 H      5.566222    0.965861   17.583870    ( 0.0000,  0.0000,  0.0000)
  43 H      5.544303    0.983176   19.341257    ( 0.0000,  0.0000,  0.0000)
  44 H      8.040767    1.014140   19.244080    ( 0.0000,  0.0000,  0.0000)
  45 N      8.129686    1.577629   16.812588    ( 0.0000,  0.0000,  0.0000)
  46 N      7.005354    1.571463   16.757975    ( 0.0000,  0.0000,  0.0000)

Unit cell:
           periodic     x           y           z      points  spacing
  1. axis:    yes    9.702222    0.000000    0.000000    60     0.1617
  2. axis:    yes    0.000000    9.702222    0.000000    60     0.1617
  3. axis:    no     0.000000    0.000000   26.351111   164     0.1607

  Lengths:   9.702222   9.702222  26.351111
  Angles:   90.000000  90.000000  90.000000

Effective grid spacing dv^(1/3) = 0.1614

     iter     time        total  log10-change:
                         energy  eigst   dens
iter:   1 22:43:10  -303.418640  -0.87
iter:   2 22:43:18  -303.358335  -1.01  -1.61
iter:   3 22:43:25  -303.323245  -1.90  -1.69
iter:   4 22:43:32  -303.323980  -2.17  -2.22
Writing to output.gpw (mode='')

iter:   5 22:43:39  -303.329870c -2.19  -2.23
iter:   6 22:43:46  -303.313803c -1.87  -2.15
iter:   7 22:43:54  -303.315353c -2.39  -2.22
iter:   8 22:44:01  -303.319365c -2.51  -2.47
iter:   9 22:44:08  -303.311813c -2.45  -2.35
Writing to output.gpw (mode='')

iter:  10 22:44:16  -303.311703c -3.02  -2.75
iter:  11 22:44:28  -303.311676c -2.98  -2.96
iter:  12 22:44:37  -303.311905c -3.71  -3.10
iter:  13 22:44:46  -303.311977c -3.86  -3.19
iter:  14 22:44:55  -303.311828c -3.63  -3.20
Writing to output.gpw (mode='')

iter:  15 22:45:07  -303.311805c -4.22  -3.23
iter:  16 22:45:16  -303.311897c -4.04  -3.35
iter:  17 22:45:24  -303.311896c -4.07  -3.57
iter:  18 22:45:31  -303.311928c -4.47  -3.76
iter:  19 22:45:38  -303.311912c -4.49  -3.82
Writing to output.gpw (mode='')

iter:  20 22:45:45  -303.311917c -4.92  -3.92
iter:  21 22:45:53  -303.311921c -4.87  -3.97
iter:  22 22:46:00  -303.311932c -5.10  -4.05c
iter:  23 22:46:07  -303.311926c -5.18  -4.10c
iter:  24 22:46:14  -303.311925c -5.33  -4.09c
Writing to output.gpw (mode='')

iter:  25 22:46:21  -303.311914c -5.36  -4.11c
iter:  26 22:46:29  -303.311924c -5.64  -4.26c
iter:  27 22:46:36  -303.311925c -5.86  -4.33c
iter:  28 22:46:43  -303.311929c -5.70  -4.41c
iter:  29 22:46:50  -303.311928c -6.08  -4.46c
Writing to output.gpw (mode='')

iter:  30 22:46:57  -303.311935c -5.87  -4.55c
iter:  31 22:47:05  -303.311933c -6.19  -4.70c
iter:  32 22:47:12  -303.311934c -6.18  -4.75c
iter:  33 22:47:19  -303.311934c -6.37  -4.87c
iter:  34 22:47:26  -303.311934c -6.37  -4.88c
Writing to output.gpw (mode='')

iter:  35 22:47:33  -303.311932c -6.23  -4.87c
iter:  36 22:47:41  -303.311932c -6.54  -4.73c
iter:  37 22:47:48  -303.311933c -6.56  -4.83c
iter:  38 22:47:55  -303.311932c -6.55  -4.83c
iter:  39 22:48:02  -303.311933c -6.41  -4.86c
Writing to output.gpw (mode='')

iter:  40 22:48:09  -303.311934c -6.92  -4.93c
iter:  41 22:48:17  -303.311936c -7.11  -4.96c
iter:  42 22:48:24  -303.311933c -7.15  -5.01c
iter:  43 22:48:31  -303.311937c -7.13  -5.05c
iter:  44 22:48:38  -303.311936c -7.48c -5.33c

Converged after 44 iterations.

Dipole moment: (-2.530164, -4.320724, 0.380402) |e|*Ang

Energy contributions relative to reference atoms: (reference = -14434.854043)

Kinetic:       +178.876226
Potential:     -162.519098
External:        +0.000000
XC:            -320.336318
Entropy (-ST):   -0.169437
Local:           +0.751973
--------------------------
Free energy:   -303.396654
Extrapolated:  -303.311936

Dipole-layer corrected work functions: 3.382040, 2.650777 eV

Showing only first 2 kpts
 Kpt  Band  Eigenvalues  Occupancy
  0    31     -3.26222    1.98545
  0    32     -3.09847    1.67543
  0    33     -2.91443    0.23023
  0    34     -2.80666    0.02969

  1    31     -3.07566    1.53169
  1    32     -3.02372    1.07302
  1    33     -2.97887    0.64134
  1    34     -2.89173    0.15263


Fermi level: -3.01641

No gap
Writing to output.gpw (mode='')


Forces in eV/Ang:
  0 Li    0.01993   -0.00090   -0.26930
  1 Li   -0.02263   -0.00013   -0.27763
  2 Li    0.00510    0.00214   -0.28405
  3 Li    0.00156    0.00215   -0.27648
  4 Li    0.00264    0.01035   -0.27719
  5 Li   -0.00536    0.02266   -0.27279
  6 Li    0.00299    0.00211   -0.27630
  7 Li   -0.00066   -0.00774   -0.28193
  8 Li   -0.00580   -0.02575   -0.27531
  9 Li    0.00416    0.00774    0.30247
 10 Li   -0.01028    0.00126    0.23902
 11 Li    0.00329    0.01399    0.32992
 12 Li    0.00529   -0.00419    0.30525
 13 Li   -0.01137   -0.00542    0.23855
 14 Li   -0.00028   -0.00897    0.32133
 15 Li   -0.01681   -0.00171    0.24600
 16 Li    0.00922   -0.00186    0.27736
 17 Li    0.00972   -0.00270    0.23185
 18 Li    0.01342   -0.00271    0.03011
 19 Li   -0.05843    0.00258   -0.06540
 20 Li    0.02222    0.00736   -0.23780
 21 Li   -0.01075   -0.00830    0.03392
 22 Li    0.02521   -0.03784    0.06487
 23 Li   -0.00826   -0.01115    0.05158
 24 Li   -0.02685    0.00795    0.05197
 25 Li    0.03403    0.03398    0.06284
 26 Li   -0.00292    0.00100    0.01983
 27 Li    0.03772    0.03167    0.08504
 28 Li   -0.04759   -0.03128   -0.06156
 29 Li   -0.03045   -0.03993   -0.11662
 30 Li    0.06274   -0.00418    0.08388
 31 Li   -0.03303    0.03303   -0.07440
 32 Li   -0.00816   -0.00322   -0.20158
 33 Li   -0.02997   -0.01259   -0.01045
 34 Li    0.01736    0.00143   -0.00571
 35 Li    0.00866   -0.01251   -0.02128
 36 O     1.15508    1.67024    5.45158
 37 C    -1.17309    1.01888    2.18278
 38 C    -0.86950    0.00302    1.27908
 39 H    -0.14833    0.26856    0.84407
 40 H    -0.26340    0.98192    1.57056
 41 H    -0.07445    0.10719    0.18549
 42 H    -0.70914   -0.01342    0.93137
 43 H    -0.12675   -0.01106    0.38362
 44 H    -0.04244   -0.60669    0.91268
 45 N     3.24186   -1.63972   -5.40165
 46 N    -0.89694   -1.75276   -8.06711

System changes: positions 

Initializing position-dependent things.

Density initialized from wave functions
       .-----------------------.  
      /|                       |  
     / |                       |  
    /  |                       |  
   /   |                       |  
  /    |                       |  
 *     |                       |  
 |     |                       |  
 |     |                       |  
 |     |                       |  
 |     |                       |  
 |     |                       |  
 |     |                       |  
 |     |       Li   H  Li      |  
 |     |      HH    C H        |  
 |     |     Li C   HLi      Li|  
 |     |       H               |  
 | Li  |  LLi     LNi N   Li   |  
 |     |                       |  
 Li    |Li      Li      Li     |  
 |   Li|     Li      Li        |  
 |    Li  Li  Li  Li  Li  Li   |  
 | Li  |   Li      Li          |  
 |     |Li      Li      Li     |  
 Li    | Li      Li            |  
 |    Li      Li      Li       |  
 |     |                       |  
 |     |                       |  
 |     |                       |  
 |     |                       |  
 |     |                       |  
 |     |                       |  
 |     .-----------------------.  
 |    /                       /   
 |   /                       /    
 |  /                       /     
 | /                       /      
 |/                       /       
 *-----------------------*        

Positions:
   0 Li     1.617037    1.617037   10.000000    ( 0.0000,  0.0000,  0.0000)
   1 Li     4.851111    1.617037   10.000000    ( 0.0000,  0.0000,  0.0000)
   2 Li     8.085185    1.617037   10.000000    ( 0.0000,  0.0000,  0.0000)
   3 Li     1.617037    4.851111   10.000000    ( 0.0000,  0.0000,  0.0000)
   4 Li     4.851111    4.851111   10.000000    ( 0.0000,  0.0000,  0.0000)
   5 Li     8.085185    4.851111   10.000000    ( 0.0000,  0.0000,  0.0000)
   6 Li     1.617037    8.085185   10.000000    ( 0.0000,  0.0000,  0.0000)
   7 Li     4.851111    8.085185   10.000000    ( 0.0000,  0.0000,  0.0000)
   8 Li     8.085185    8.085185   10.000000    ( 0.0000,  0.0000,  0.0000)
   9 Li     0.000000    0.000000   11.617037    ( 0.0000,  0.0000,  0.0000)
  10 Li     3.234074    0.000000   11.617037    ( 0.0000,  0.0000,  0.0000)
  11 Li     6.468148    0.000000   11.617037    ( 0.0000,  0.0000,  0.0000)
  12 Li     0.000000    3.234074   11.617037    ( 0.0000,  0.0000,  0.0000)
  13 Li     3.234074    3.234074   11.617037    ( 0.0000,  0.0000,  0.0000)
  14 Li     6.468148    3.234074   11.617037    ( 0.0000,  0.0000,  0.0000)
  15 Li     0.000000    6.468148   11.617037    ( 0.0000,  0.0000,  0.0000)
  16 Li     3.234074    6.468148   11.617037    ( 0.0000,  0.0000,  0.0000)
  17 Li     6.468148    6.468148   11.617037    ( 0.0000,  0.0000,  0.0000)
  18 Li     1.617489    1.616946   13.470708    ( 0.0000,  0.0000,  0.0000)
  19 Li     4.848989    1.617151   13.467414    ( 0.0000,  0.0000,  0.0000)
  20 Li     8.085986    1.617307   13.461380    ( 0.0000,  0.0000,  0.0000)
[...]

iter:  15 04:38:03  -309.938610c -6.60  -4.27c
iter:  16 04:38:10  -309.938610c -6.14  -4.33c
iter:  17 04:38:17  -309.938610c -6.83  -4.54c
iter:  18 04:38:25  -309.938609c -6.87  -4.64c
iter:  19 04:38:32  -309.938609c -6.76  -4.80c
Writing to output.gpw (mode='')

iter:  20 04:38:40  -309.938608c -7.30  -4.83c
iter:  21 04:38:47  -309.938607c -7.19  -4.97c
iter:  22 04:38:54  -309.938608c -7.78c -5.00c

Converged after 22 iterations.

Dipole moment: (-1.882424, -2.863269, 0.274224) |e|*Ang

Energy contributions relative to reference atoms: (reference = -14434.854043)

Kinetic:       +148.671746
Potential:     -140.838785
External:        +0.000000
XC:            -318.470254
Entropy (-ST):   -0.161690
Local:           +0.779530
--------------------------
Free energy:   -310.019452
Extrapolated:  -309.938608

Dipole-layer corrected work functions: 3.401793, 2.874641 eV

Showing only first 2 kpts
 Kpt  Band  Eigenvalues  Occupancy
  0    31     -3.38252    1.98501
  0    32     -3.16815    1.29070
  0    33     -3.10439    0.67405
  0    34     -2.92994    0.03057

  1    31     -3.37424    1.98234
  1    32     -3.27878    1.88656
  1    33     -3.08365    0.50270
  1    34     -2.89122    0.01421


Fermi level: -3.13822

No gap
Writing to output.gpw (mode='')


Forces in eV/Ang:
  0 Li   -0.01110    0.01041   -0.28966
  1 Li    0.00804   -0.01087   -0.29389
  2 Li    0.00158   -0.00105   -0.24787
  3 Li    0.00860    0.00697   -0.29259
  4 Li   -0.01505    0.01633   -0.28616
  5 Li    0.01120   -0.00907   -0.29190
  6 Li    0.01560   -0.01545   -0.28579
  7 Li   -0.00829   -0.00862   -0.29138
  8 Li   -0.00990    0.00984   -0.29219
  9 Li   -0.01345    0.01894    0.22625
 10 Li   -0.02622    0.01186    0.27652
 11 Li    0.03102    0.01302    0.30839
 12 Li   -0.01227   -0.01742    0.29448
 13 Li   -0.00092   -0.01420    0.28731
 14 Li    0.03523   -0.02714    0.26959
 15 Li   -0.01068    0.01741    0.26733
 16 Li   -0.01273    0.00175    0.27458
 17 Li    0.02524   -0.00489    0.28619
 18 Li    0.00007    0.00291    0.00347
 19 Li    0.00078    0.00487   -0.00065
 20 Li   -0.01515    0.00227    0.00934
 21 Li   -0.00448   -0.00379   -0.00119
 22 Li   -0.00055    0.00310   -0.00104
 23 Li    0.00267   -0.00045   -0.00055
 24 Li    0.00231    0.00519    0.00205
 25 Li   -0.00765   -0.01021   -0.00489
 26 Li   -0.00031   -0.00723   -0.00483
 27 Li   -0.00501    0.00509    0.00340
 28 Li    0.00346    0.00037   -0.00311
 29 Li    0.00891    0.01145   -0.00200
 30 Li   -0.00864   -0.00898   -0.00573
 31 Li   -0.00811   -0.00442    0.00419
 32 Li   -0.00523    0.00348    0.00216
 33 Li   -0.00079   -0.00653    0.00302
 34 Li    0.00076    0.00169    0.00258
 35 Li   -0.00061    0.00616   -0.00038
 36 O     0.04347    0.03456   -0.04401
 37 C    -0.03811   -0.00527    0.00320
 38 C    -0.02321   -0.01645    0.01368
 39 H     0.00590    0.00865    0.00898
 40 H     0.00708   -0.01331   -0.00786
 41 H     0.01626    0.00471    0.01809
 42 H     0.01401    0.01895    0.01970
 43 H     0.02088    0.01054    0.01280
 44 H    -0.02428   -0.03011    0.04117
 45 N     0.02574   -0.03022    0.00279
 46 N    -0.01147    0.03672   -0.00427

System changes: positions 

Initializing position-dependent things.

Density initialized from wave functions
       .-----------------------.  
      /|                       |  
     / |                       |  
    /  |                       |  
   /   |                       |  
  /    |                       |  
 *     |                       |  
 |     |                       |  
 |     |                       |  
 |     |                       |  
 |     |                       |  
 |     |                       |  
 |     |            H          |  
 |     |       Hi  C  HLi      |  
 |     |      H C   H O        |  
 |   Li|     Li H    Li        |  
 |     |                       |  
 | Li  |  LLi     LLi     Li   |  
 |     |             N N       |  
 |     |Li      Li      LLi    |  
 |   Li|     Li      Li        |  
 |    Li  Li  Li  Li  Li  Li   |  
 | Li  |   Li      Li          |  
 |     |Li      Li      Li     |  
 Li    | Li      Li            |  
 |    Li      Li      Li       |  
 |     |                       |  
 |     |                       |  
 |     |                       |  
 |     |                       |  
 |     |                       |  
 |     |                       |  
 |     .-----------------------.  
 |    /                       /   
 |   /                       /    
 |  /                       /     
 | /                       /      
 |/                       /       
 *-----------------------*        

Positions:
   0 Li     1.617037    1.617037   10.000000    ( 0.0000,  0.0000,  0.0000)
   1 Li     4.851111    1.617037   10.000000    ( 0.0000,  0.0000,  0.0000)
   2 Li     8.085185    1.617037   10.000000    ( 0.0000,  0.0000,  0.0000)
   3 Li     1.617037    4.851111   10.000000    ( 0.0000,  0.0000,  0.0000)
   4 Li     4.851111    4.851111   10.000000    ( 0.0000,  0.0000,  0.0000)
   5 Li     8.085185    4.851111   10.000000    ( 0.0000,  0.0000,  0.0000)
   6 Li     1.617037    8.085185   10.000000    ( 0.0000,  0.0000,  0.0000)
   7 Li     4.851111    8.085185   10.000000    ( 0.0000,  0.0000,  0.0000)
   8 Li     8.085185    8.085185   10.000000    ( 0.0000,  0.0000,  0.0000)
   9 Li     0.000000    0.000000   11.617037    ( 0.0000,  0.0000,  0.0000)
  10 Li     3.234074    0.000000   11.617037    ( 0.0000,  0.0000,  0.0000)
  11 Li     6.468148    0.000000   11.617037    ( 0.0000,  0.0000,  0.0000)
  12 Li     0.000000    3.234074   11.617037    ( 0.0000,  0.0000,  0.0000)
  13 Li     3.234074    3.234074   11.617037    ( 0.0000,  0.0000,  0.0000)
  14 Li     6.468148    3.234074   11.617037    ( 0.0000,  0.0000,  0.0000)
  15 Li     0.000000    6.468148   11.617037    ( 0.0000,  0.0000,  0.0000)
  16 Li     3.234074    6.468148   11.617037    ( 0.0000,  0.0000,  0.0000)
  17 Li     6.468148    6.468148   11.617037    ( 0.0000,  0.0000,  0.0000)
  18 Li     1.593810    1.660614   13.505444    ( 0.0000,  0.0000,  0.0000)
  19 Li     4.849733    1.558205   13.475167    ( 0.0000,  0.0000,  0.0000)
  20 Li     8.127274    1.598888   13.508366    ( 0.0000,  0.0000,  0.0000)
  21 Li     1.646077    4.903297   13.483019    ( 0.0000,  0.0000,  0.0000)
  22 Li     4.909563    4.792692   13.468508    ( 0.0000,  0.0000,  0.0000)
  23 Li     8.144935    4.849861   13.492414    ( 0.0000,  0.0000,  0.0000)
  24 Li     1.546946    8.151190   13.485805    ( 0.0000,  0.0000,  0.0000)
  25 Li     4.806510    8.043673   13.471110    ( 0.0000,  0.0000,  0.0000)
  26 Li     8.061902    8.102138   13.496338    ( 0.0000,  0.0000,  0.0000)
  27 Li    -0.262469    0.282015   15.648107    ( 0.0000,  0.0000,  0.0000)
  28 Li     3.069340   -0.061191   15.418044    ( 0.0000,  0.0000,  0.0000)
  29 Li     6.358024   -0.141142   15.407939    ( 0.0000,  0.0000,  0.0000)
  30 Li     0.102019    3.377684   15.513218    ( 0.0000,  0.0000,  0.0000)
  31 Li     3.363024    3.297134   15.380500    ( 0.0000,  0.0000,  0.0000)
  32 Li     6.690885    2.996305   15.430774    ( 0.0000,  0.0000,  0.0000)
  33 Li     0.059775    6.644460   15.439485    ( 0.0000,  0.0000,  0.0000)
  34 Li     3.245245    6.464115   15.428350    ( 0.0000,  0.0000,  0.0000)
  35 Li     6.422067    6.316994   15.408431    ( 0.0000,  0.0000,  0.0000)
  36 O      8.036902    1.819845   19.031360    ( 0.0000,  0.0000,  0.0000)
  37 C      6.824918    2.589121   18.994302    ( 0.0000,  0.0000,  0.0000)
  38 C      5.574562    1.729618   18.856598    ( 0.0000,  0.0000,  0.0000)
  39 H      6.751390    3.231451   19.881757    ( 0.0000,  0.0000,  0.0000)
  40 H      6.937513    3.251494   18.130959    ( 0.0000,  0.0000,  0.0000)
  41 H      4.688198    2.359574   18.735622    ( 0.0000,  0.0000,  0.0000)
  42 H      5.646181    1.076318   17.984336    ( 0.0000,  0.0000,  0.0000)
  43 H      5.422073    1.105364   19.741964    ( 0.0000,  0.0000,  0.0000)
  44 H      8.038652    1.303577   19.845823    ( 0.0000,  0.0000,  0.0000)
  45 N      8.500691    2.082254   15.530470    ( 0.0000,  0.0000,  0.0000)
  46 N      7.624184    1.184889   15.510201    ( 0.0000,  0.0000,  0.0000)

Unit cell:
           periodic     x           y           z      points  spacing
  1. axis:    yes    9.702222    0.000000    0.000000    60     0.1617
  2. axis:    yes    0.000000    9.702222    0.000000    60     0.1617
  3. axis:    no     0.000000    0.000000   26.351111   164     0.1607

  Lengths:   9.702222   9.702222  26.351111
  Angles:   90.000000  90.000000  90.000000

Effective grid spacing dv^(1/3) = 0.1614

     iter     time        total  log10-change:
                         energy  eigst   dens
iter:   1 04:39:03  -309.940296  -2.28
iter:   2 04:39:11  -309.939749  -3.01  -2.49
iter:   3 04:39:18  -309.939293c -3.72  -2.70
iter:   4 04:39:32  -309.939153c -4.10  -2.98
Writing to output.gpw (mode='')

iter:   5 04:39:40  -309.938882c -3.44  -3.10
iter:   6 04:39:47  -309.938872c -3.35  -3.25
iter:   7 04:39:54  -309.938909c -4.46  -3.16
iter:   8 04:40:01  -309.938928c -4.39  -3.53
iter:   9 04:40:09  -309.938904c -4.94  -3.58
Writing to output.gpw (mode='')

iter:  10 04:40:16  -309.938906c -4.75  -3.66
iter:  11 04:40:23  -309.938910c -4.98  -3.85
iter:  12 04:40:30  -309.938902c -5.77  -3.89
iter:  13 04:40:37  -309.938904c -5.57  -4.12c
iter:  14 04:40:45  -309.938900c -5.89  -4.16c
Writing to output.gpw (mode='')

iter:  15 04:40:52  -309.938898c -6.36  -4.35c
iter:  16 04:40:59  -309.938898c -6.46  -4.48c
iter:  17 04:41:06  -309.938898c -6.64  -4.59c
iter:  18 04:41:13  -309.938898c -6.84  -4.72c
iter:  19 04:41:20  -309.938899c -7.19  -4.82c
Writing to output.gpw (mode='')

iter:  20 04:41:27  -309.938898c -7.57c -5.01c

Converged after 20 iterations.

Dipole moment: (-1.856971, -2.898531, 0.275975) |e|*Ang

Energy contributions relative to reference atoms: (reference = -14434.854043)

Kinetic:       +148.692776
Potential:     -140.856661
External:        +0.000000
XC:            -318.474014
Entropy (-ST):   -0.161684
Local:           +0.779842
--------------------------
Free energy:   -310.019740
Extrapolated:  -309.938898

Dipole-layer corrected work functions: 3.401896, 2.871378 eV

Showing only first 2 kpts
 Kpt  Band  Eigenvalues  Occupancy
  0    31     -3.38077    1.98496
  0    32     -3.16667    1.29157
  0    33     -3.10277    0.67371
  0    34     -2.92839    0.03059

  1    31     -3.37254    1.98229
  1    32     -3.27755    1.88730
  1    33     -3.08186    0.50113
  1    34     -2.88943    0.01415


Fermi level: -3.13664

No gap

Forces in eV/Ang:
  0 Li   -0.01116    0.01037   -0.28973
  1 Li    0.00800   -0.01095   -0.29402
  2 Li    0.00160   -0.00107   -0.24786
  3 Li    0.00864    0.00692   -0.29270
  4 Li   -0.01503    0.01623   -0.28622
  5 Li    0.01124   -0.00921   -0.29200
  6 Li    0.01553   -0.01544   -0.28575
  7 Li   -0.00824   -0.00856   -0.29134
  8 Li   -0.00992    0.00979   -0.29225
  9 Li   -0.01342    0.01936    0.22593
 10 Li   -0.02628    0.01210    0.27664
 11 Li    0.03168    0.01372    0.30859
 12 Li   -0.01204   -0.01706    0.29471
 13 Li   -0.00118   -0.01479    0.28778
 14 Li    0.03512   -0.02696    0.26964
 15 Li   -0.01107    0.01746    0.26794
 16 Li   -0.01250    0.00233    0.27492
 17 Li    0.02527   -0.00480    0.28691
 18 Li    0.00073    0.00389    0.00267
 19 Li    0.00050    0.00568   -0.00019
 20 Li   -0.01648    0.00082    0.00554
 21 Li   -0.00545   -0.00403   -0.00042
 22 Li    0.00032    0.00338   -0.00090
 23 Li    0.00341    0.00091   -0.00179
 24 Li    0.00253    0.00497    0.00202
 25 Li   -0.00772   -0.01048   -0.00485
 26 Li   -0.00072   -0.00705   -0.00428
 27 Li    0.00060   -0.00370    0.00389
 28 Li    0.00296   -0.00008   -0.00275
 29 Li   -0.00037    0.00210   -0.00382
 30 Li    0.00125   -0.00125   -0.00583
 31 Li   -0.00762   -0.00457    0.00409
 32 Li   -0.00280    0.00332    0.00192
 33 Li   -0.00099   -0.00651    0.00280
 34 Li    0.00095    0.00174    0.00233
 35 Li   -0.00084    0.00502   -0.00031
 36 O     0.03313    0.03290   -0.01488
 37 C    -0.01812   -0.01429   -0.00120
 38 C    -0.01760   -0.00872    0.01791
 39 H     0.01062    0.00350   -0.00865
 40 H     0.00556   -0.01132    0.00939
 41 H     0.00330    0.01076    0.01275
 42 H     0.01371    0.01526    0.01946
 43 H     0.02006    0.00162    0.01649
 44 H    -0.02212   -0.02045    0.01546
 45 N     0.02338   -0.00967    0.00270
 46 N    -0.01562    0.01622    0.00079

Timing:                                      incl.     excl.
-------------------------------------------------------------------
Density initialized from wave functions:     7.247     7.245   0.0% |
 Symmetrize density:                         0.002     0.002   0.0% |
Forces:                                     39.650    39.650   0.2% |
Hamiltonian:                               518.982     0.012   0.0% |
 Atomic:                                     0.020     0.020   0.0% |
  XC Correction:                             0.000     0.000   0.0% |
 Calculate atomic Hamiltonians:              0.035     0.035   0.0% |
 Communicate:                                6.289     6.289   0.0% |
 Hartree integrate/restrict:                 1.787     1.787   0.0% |
 Initialize Hamiltonian:                     0.000     0.000   0.0% |
 Poisson:                                   24.464     9.111   0.0% |
  Communicate from 1D:                       2.407     2.407   0.0% |
  Communicate from 2D:                       2.413     2.413   0.0% |
  Communicate to 1D:                         1.314     1.314   0.0% |
  Communicate to 2D:                         2.915     2.915   0.0% |
  FFT 1D:                                    3.189     3.189   0.0% |
  FFT 2D:                                    3.115     3.115   0.0% |
 XC 3D grid:                               485.967    75.974   0.3% |
  VdW-DF integral:                         409.993     3.435   0.0% |
   Convolution:                             38.054    38.054   0.2% |
   FFT:                                     16.070    16.070   0.1% |
   gather:                                 141.232   141.232   0.6% |
   hmm1:                                    13.280    13.280   0.1% |
   hmm2:                                    17.470    17.470   0.1% |
   iFFT:                                    16.706    16.706   0.1% |
   potential:                              160.148     4.300   0.0% |
    collect:                                25.335    25.335   0.1% |
    p1:                                     71.817    71.817   0.3% |
    p2:                                     26.876    26.876   0.1% |
    sum:                                    31.820    31.820   0.1% |
   splines:                                  3.598     3.598   0.0% |
 vbar:                                       0.408     0.408   0.0% |
LCAO initialization:                         1.155     0.182   0.0% |
 LCAO eigensolver:                           0.282     0.000   0.0% |
  Calculate projections:                     0.000     0.000   0.0% |
  DenseAtomicCorrection:                     0.000     0.000   0.0% |
  Distribute overlap matrix:                 0.228     0.228   0.0% |
  Orbital Layouts:                           0.051     0.051   0.0% |
  Potential matrix:                          0.001     0.001   0.0% |
  Sum over cells:                            0.002     0.002   0.0% |
 LCAO to grid:                               0.556     0.556   0.0% |
 Set positions (LCAO WFS):                   0.134     0.079   0.0% |
  Basic WFS set positions:                   0.001     0.001   0.0% |
  Basis functions set positions:             0.000     0.000   0.0% |
  P tci:                                     0.000     0.000   0.0% |
  ST tci:                                    0.023     0.023   0.0% |
  mktci:                                     0.030     0.030   0.0% |
Redistribute:                                0.061     0.061   0.0% |
SCF-cycle:                               23271.205   385.436   1.6% ||
 Davidson:                                5857.986  1730.916   7.2% |--|
  Apply hamiltonian:                       363.355   363.355   1.5% ||
  Subspace diag:                          1094.556     0.372   0.0% |
   calc_h_matrix:                          528.997   163.649   0.7% |
    Apply hamiltonian:                     365.348   365.348   1.5% ||
   diagonalize:                             63.560    63.560   0.3% |
   rotate_psi:                             501.627   501.627   2.1% ||
  calc. matrices:                         1850.430   925.873   3.9% |-|
   Apply hamiltonian:                      924.556   924.556   3.9% |-|
  diagonalize:                              16.086    16.086   0.1% |
  rotate_psi:                              802.644   802.644   3.4% ||
 Density:                                  114.117     0.069   0.0% |
  Atomic density matrices:                  13.086    13.086   0.1% |
  Mix:                                      48.940    48.940   0.2% |
  Multipole moments:                         5.973     5.973   0.0% |
  Pseudo density:                           46.050    45.988   0.2% |
   Symmetrize density:                       0.062     0.062   0.0% |
 Hamiltonian:                            16896.915     0.391   0.0% |
  Atomic:                                    0.703     0.695   0.0% |
   XC Correction:                            0.008     0.008   0.0% |
  Calculate atomic Hamiltonians:             1.094     1.094   0.0% |
  Communicate:                             254.846   254.846   1.1% |
  Hartree integrate/restrict:               60.201    60.201   0.3% |
  Poisson:                                 795.366   291.819   1.2% |
   Communicate from 1D:                     79.194    79.194   0.3% |
   Communicate from 2D:                     80.632    80.632   0.3% |
   Communicate to 1D:                       43.719    43.719   0.2% |
   Communicate to 2D:                       93.946    93.946   0.4% |
   FFT 1D:                                 104.664   104.664   0.4% |
   FFT 2D:                                 101.392   101.392   0.4% |
  XC 3D grid:                            15769.541  2417.492  10.1% |---|
   VdW-DF integral:                      13352.049   112.483   0.5% |
    Convolution:                          1248.404  1248.404   5.2% |-|
    FFT:                                   527.511   527.511   2.2% ||
    gather:                               4644.957  4644.957  19.4% |-------|
    hmm1:                                  433.804   433.804   1.8% ||
    hmm2:                                  573.558   573.558   2.4% ||
    iFFT:                                  548.235   548.235   2.3% ||
    potential:                            5263.069   143.265   0.6% |
     collect:                              807.087   807.087   3.4% ||
     p1:                                  2356.418  2356.418   9.8% |---|
     p2:                                   886.044   886.044   3.7% ||
     sum:                                 1070.255  1070.255   4.5% |-|
    splines:                                 0.029     0.029   0.0% |
  vbar:                                     14.773    14.773   0.1% |
 Orthonormalize:                            16.751     0.013   0.0% |
  calc_s_matrix:                             2.273     2.273   0.0% |
  inverse-cholesky:                          5.482     5.482   0.0% |
  projections:                               0.002     0.002   0.0% |
  rotate_psi_s:                              8.981     8.981   0.0% |
Set symmetry:                                0.018     0.018   0.0% |
Other:                                     105.718   105.718   0.4% |
-------------------------------------------------------------------
Total:                                             23944.037 100.0%

Memory usage: 1.11 GiB
Date: Thu Mar  9 04:41:28 2023
