
  ___ ___ ___ _ _ _  
 |   |   |_  | | | | 
 | | | | | . | | | | 
 |__ |  _|___|_____|  22.8.0
 |___|_|             

User:   vazumah@r327.ib.bridges2.psc.edu
Date:   Fri Mar 10 21:52:26 2023
Arch:   x86_64
Pid:    8223
CWD:    /jet/home/vazumah/Calcs/LiMEAS/proton_donors/propanediol13_z/bridge/8.085_1.617/N2_z
Python: 3.11.0
gpaw:   /jet/home/vazumah/.conda/envs/GPAW_mpich/lib/python3.11/site-packages/gpaw
_gpaw:  /jet/home/vazumah/.conda/envs/GPAW_mpich/lib/python3.11/site-packages/
        _gpaw.cpython-311-x86_64-linux-gnu.so
ase:    /jet/home/vazumah/.conda/envs/GPAW_mpich/lib/python3.11/site-packages/ase (version 3.22.1)
numpy:  /jet/home/vazumah/.conda/envs/GPAW_mpich/lib/python3.11/site-packages/numpy (version 1.24.2)
scipy:  /jet/home/vazumah/.conda/envs/GPAW_mpich/lib/python3.11/site-packages/scipy (version 1.10.1)
libxc:  5.2.3
units:  Angstrom and eV
cores: 128
OpenMP: True
OMP_NUM_THREADS: 1

Input parameters:
  h: 0.16
  kpts: {size: [4, 4, 1]}
  occupations: {name: fermi-dirac,
                width: 0.05}
  poissonsolver: {dipolelayer: xy}
  xc: BEEF-vdW

System changes: positions, numbers, cell, pbc, initial_charges, initial_magmoms 

Initialize ...

species:
  Li:
    name: Lithium
    id: 830b4218f175192f93f959cfc0aad614
    Z: 3.0
    valence: 1
    core: 2
    charge: 0.0
    file: /jet/home/vazumah/datasets/gpaw-setups-0.9.20000/Li.PBE.gz
    compensation charges: {type: gauss,
                           rc: 0.33,
                           lmax: 2}
    cutoffs: {filter: 1.91,
              core: 2.55}
    valence states:
      #              energy  rcut
      - 2s(1.00)    -2.874   1.058
      - 2p(0.00)    -1.090   1.058
      -  s          24.337   1.058
  
    # Using partial waves for Li as LCAO basis

  O:
    name: Oxygen
    id: 32ecd46bf208036f09c70b0ec9a88b78
    Z: 8.0
    valence: 6
    core: 2
    charge: 0.0
    file: /jet/home/vazumah/datasets/gpaw-setups-0.9.20000/O.PBE.gz
    compensation charges: {type: gauss,
                           rc: 0.21,
                           lmax: 2}
    cutoffs: {filter: 1.17,
              core: 0.83}
    valence states:
      #              energy  rcut
      - 2s(2.00)   -23.961   0.688
      - 2p(4.00)    -9.029   0.598
      -  s           3.251   0.688
      -  p          18.182   0.598
      -  d           0.000   0.619
  
    # Using partial waves for O as LCAO basis

  C:
    name: Carbon
    id: 4aa54d4b901d75f77cc0ea3eec22967b
    Z: 6.0
    valence: 4
    core: 2
    charge: 0.0
    file: /jet/home/vazumah/datasets/gpaw-setups-0.9.20000/C.PBE.gz
    compensation charges: {type: gauss,
                           rc: 0.20,
                           lmax: 2}
    cutoffs: {filter: 1.14,
              core: 1.14}
    valence states:
      #              energy  rcut
      - 2s(2.00)   -13.751   0.635
      - 2p(2.00)    -5.284   0.635
      -  s          13.461   0.635
      -  p          21.927   0.635
      -  d           0.000   0.635
  
    # Using partial waves for C as LCAO basis

  H:
    name: Hydrogen
    id: d65de229564ff8ea4db303e23b6d1ecf
    Z: 1.0
    valence: 1
    core: 0
    charge: 0.0
    file: /jet/home/vazumah/datasets/gpaw-setups-0.9.20000/H.PBE.gz
    compensation charges: {type: gauss,
                           rc: 0.15,
                           lmax: 2}
    cutoffs: {filter: 0.85,
              core: 0.53}
    valence states:
      #              energy  rcut
      - 1s(1.00)    -6.494   0.476
      -  s          20.717   0.476
      -  p           0.000   0.476
  
    # Using partial waves for H as LCAO basis

  N:
    name: Nitrogen
    id: f7500608b86eaa90eef8b1d9a670dc53
    Z: 7.0
    valence: 5
    core: 2
    charge: 0.0
    file: /jet/home/vazumah/datasets/gpaw-setups-0.9.20000/N.PBE.gz
    compensation charges: {type: gauss,
                           rc: 0.18,
                           lmax: 2}
    cutoffs: {filter: 1.11,
              core: 0.96}
    valence states:
      #              energy  rcut
      - 2s(2.00)   -18.583   0.603
      - 2p(3.00)    -7.089   0.529
      -  s           8.629   0.603
      -  p          20.123   0.529
      -  d           0.000   0.577
  
    # Using partial waves for N as LCAO basis

Reference energy: -17528.314784  # eV

Spin-paired calculation

Convergence criteria:
 Maximum [total energy] change in last 3 cyles: 0.0005 eV / electron
 Maximum integral of absolute [dens]ity change: 0.0001 electrons / valence electron
 Maximum integral of absolute [eigenst]ate change: 4e-08 eV^2 / valence electron
 Maximum number of scf [iter]ations: 333
 (Square brackets indicate name in SCF output, whereas a 'c' in
 the SCF output indicates the quantity has converged.)

Symmetries present (total): 1

  ( 1  0  0)
  ( 0  1  0)
  ( 0  0  1)

16 k-points: 4 x 4 x 1 Monkhorst-Pack grid
8 k-points in the irreducible part of the Brillouin zone
       k-points in crystal coordinates                weights
   0:     0.12500000   -0.37500000    0.00000000          2/16
   1:     0.12500000   -0.12500000    0.00000000          2/16
   2:     0.12500000    0.12500000    0.00000000          2/16
   3:     0.12500000    0.37500000    0.00000000          2/16
   4:     0.37500000   -0.37500000    0.00000000          2/16
   5:     0.37500000   -0.12500000    0.00000000          2/16
   6:     0.37500000    0.12500000    0.00000000          2/16
   7:     0.37500000    0.37500000    0.00000000          2/16

Wave functions: Uniform real-space grid
  Kinetic energy operator: 6*3+1=19 point O(h^6) finite-difference Laplacian
  ScaLapack parameters: grid=1x1, blocksize=None
  Wavefunction extrapolation:
    Improved wavefunction reuse through dual PAW basis 

Occupation numbers: Fermi-Dirac:
  width: 0.0500  # eV
 

Eigensolver
   Davidson(niter=2) 

Densities:
  Coarse grid: 60*60*180 grid
  Fine grid: 120*120*360 grid
  Total Charge: 0.000000 

Density mixing:
  Method: separate
  Backend: pulay
  Linear mixing parameter: 0.05
  old densities: 5
  Damping of long wavelength oscillations: 50 

Hamiltonian:
  XC and Coulomb potentials evaluated on a 120*120*360 grid
  Using the BEEF-vdW Exchange-Correlation functional
  Interpolation: tri-quintic (5. degree polynomial)
  Poisson solver: FastPoissonSolver using
    Stencil: 6*3+1=19 point O(h^6) finite-difference Laplacian
    FFT axes: [0, 1]
    FST axes: [2]

Dipole correction along z-axis 

XC parameters: BEEF-vdW with 2 nearest neighbor stencil

Memory estimate:
  Process memory now: 130.73 MiB
  Calculator: 95.77 MiB
    Density: 23.82 MiB
      Arrays: 7.94 MiB
      Localized functions: 12.86 MiB
      Mixer: 3.02 MiB
    Hamiltonian: 6.21 MiB
      Arrays: 5.19 MiB
      XC: 0.00 MiB
      Poisson: 0.00 MiB
      vbar: 1.02 MiB
    Wavefunctions: 65.74 MiB
      Arrays psit_nG: 30.82 MiB
      Eigensolver: 34.24 MiB
      Projections: 0.02 MiB
      Projectors: 0.67 MiB

Total number of cores used: 128
Parallelization over k-points: 8
Domain decomposition: 2 x 2 x 4

Number of atoms: 51
Number of atomic orbitals: 180
Number of bands in calculation: 51
Number of valence electrons: 78
Bands to converge: occupied

... initialized

Initializing position-dependent things.

Density initialized from atomic densities
Creating initial wave functions:
  51 bands from LCAO basis set

       .-----------------------.  
      /|                       |  
     / |                       |  
    /  |                       |  
   /   |                       |  
  /    |                       |  
 *     |                       |  
 |     |                       |  
 |     |                       |  
 |     |                       |  
 |     |              O H      |  
 |     |                       |  
 |     |           H  CH       |  
 |     |            H C  H     |  
 |     |                       |  
 |     |             C H       |  
 |     |           H  O        |  
 |     |              H        |  
 |   Li|     Li      LN        |  
 |     |              N        |  
 | Li  |  LLi     LLi     Li   |  
 |     |                       |  
 Li    |LLi     LLi     Li     |  
 |   Li|     Li      Li        |  
 |    Li  Li  Li  Li  Li  Li   |  
 | Li  |   Li      Li          |  
 |     |Li      Li      Li     |  
 Li    | Li      Li            |  
 |    Li      Li      Li       |  
 |     |                       |  
 |     |                       |  
 |     |                       |  
 |     |                       |  
 |     |                       |  
 |     |                       |  
 |     .-----------------------.  
 |    /                       /   
 |   /                       /    
 |  /                       /     
 | /                       /      
 |/                       /       
 *-----------------------*        

Positions:
   0 Li     1.617037    1.617037   10.000000    ( 0.0000,  0.0000,  0.0000)
   1 Li     4.851111    1.617037   10.000000    ( 0.0000,  0.0000,  0.0000)
   2 Li     8.085185    1.617037   10.000000    ( 0.0000,  0.0000,  0.0000)
   3 Li     1.617037    4.851111   10.000000    ( 0.0000,  0.0000,  0.0000)
   4 Li     4.851111    4.851111   10.000000    ( 0.0000,  0.0000,  0.0000)
   5 Li     8.085185    4.851111   10.000000    ( 0.0000,  0.0000,  0.0000)
   6 Li     1.617037    8.085185   10.000000    ( 0.0000,  0.0000,  0.0000)
   7 Li     4.851111    8.085185   10.000000    ( 0.0000,  0.0000,  0.0000)
   8 Li     8.085185    8.085185   10.000000    ( 0.0000,  0.0000,  0.0000)
   9 Li     0.000000    0.000000   11.617037    ( 0.0000,  0.0000,  0.0000)
  10 Li     3.234074    0.000000   11.617037    ( 0.0000,  0.0000,  0.0000)
  11 Li     6.468148    0.000000   11.617037    ( 0.0000,  0.0000,  0.0000)
  12 Li     0.000000    3.234074   11.617037    ( 0.0000,  0.0000,  0.0000)
  13 Li     3.234074    3.234074   11.617037    ( 0.0000,  0.0000,  0.0000)
  14 Li     6.468148    3.234074   11.617037    ( 0.0000,  0.0000,  0.0000)
  15 Li     0.000000    6.468148   11.617037    ( 0.0000,  0.0000,  0.0000)
  16 Li     3.234074    6.468148   11.617037    ( 0.0000,  0.0000,  0.0000)
  17 Li     6.468148    6.468148   11.617037    ( 0.0000,  0.0000,  0.0000)
  18 Li     1.617038    1.617038   13.469728    ( 0.0000,  0.0000,  0.0000)
  19 Li     4.851111    1.617038   13.469729    ( 0.0000,  0.0000,  0.0000)
  20 Li     8.085184    1.617038   13.469728    ( 0.0000,  0.0000,  0.0000)
  21 Li     1.617038    4.851111   13.469729    ( 0.0000,  0.0000,  0.0000)
  22 Li     4.851111    4.851111   13.469730    ( 0.0000,  0.0000,  0.0000)
  23 Li     8.085184    4.851111   13.469729    ( 0.0000,  0.0000,  0.0000)
  24 Li     1.617038    8.085184   13.469728    ( 0.0000,  0.0000,  0.0000)
  25 Li     4.851111    8.085184   13.469729    ( 0.0000,  0.0000,  0.0000)
  26 Li     8.085184    8.085184   13.469728    ( 0.0000,  0.0000,  0.0000)
  27 Li    -0.000000   -0.000000   15.445939    ( 0.0000,  0.0000,  0.0000)
  28 Li     3.234074    0.000000   15.445939    ( 0.0000,  0.0000,  0.0000)
  29 Li     6.468148    0.000000   15.445939    ( 0.0000,  0.0000,  0.0000)
  30 Li     0.000000    3.234074   15.445939    ( 0.0000,  0.0000,  0.0000)
  31 Li     3.234076    3.234076   15.445938    ( 0.0000,  0.0000,  0.0000)
  32 Li     6.468146    3.234076   15.445938    ( 0.0000,  0.0000,  0.0000)
  33 Li     0.000000    6.468148   15.445939    ( 0.0000,  0.0000,  0.0000)
  34 Li     3.234076    6.468146   15.445938    ( 0.0000,  0.0000,  0.0000)
  35 Li     6.468146    6.468146   15.445938    ( 0.0000,  0.0000,  0.0000)
  36 O      8.085185    1.617037   19.645939    ( 0.0000,  0.0000,  0.0000)
  37 O      8.091295    1.596708   24.508281    ( 0.0000,  0.0000,  0.0000)
  38 C      8.070738    1.615492   22.041854    ( 0.0000,  0.0000,  0.0000)
  39 C      8.082307    0.749217   20.790809    ( 0.0000,  0.0000,  0.0000)
  40 C      8.094667    0.785225   23.324471    ( 0.0000,  0.0000,  0.0000)
  41 H      8.945398    2.275999   22.019771    ( 0.0000,  0.0000,  0.0000)
  42 H      7.182733    2.252603   22.041713    ( 0.0000,  0.0000,  0.0000)
  43 H      8.975854    0.108959   20.785879    ( 0.0000,  0.0000,  0.0000)
  44 H      7.195621    0.100540   20.777267    ( 0.0000,  0.0000,  0.0000)
  45 H      8.961990    0.109659   23.325172    ( 0.0000,  0.0000,  0.0000)
  46 H      7.194564    0.169134   23.401319    ( 0.0000,  0.0000,  0.0000)
  47 H      8.090052    1.072680   18.850414    ( 0.0000,  0.0000,  0.0000)
  48 H      8.865812    2.171748   24.475699    ( 0.0000,  0.0000,  0.0000)
  49 N      8.085000    1.617000   17.195939    ( 0.0000,  0.0000,  0.0000)
  50 N      8.085000    1.617000   18.292561    ( 0.0000,  0.0000,  0.0000)

Unit cell:
           periodic     x           y           z      points  spacing
  1. axis:    yes    9.702222    0.000000    0.000000    60     0.1617
  2. axis:    yes    0.000000    9.702222    0.000000    60     0.1617
  3. axis:    no     0.000000    0.000000   28.601111   180     0.1589

  Lengths:   9.702222   9.702222  28.601111
  Angles:   90.000000  90.000000  90.000000

Effective grid spacing dv^(1/3) = 0.1608

     iter     time        total  log10-change:
                         energy  eigst   dens
iter:   1 21:52:42  -944.072826
iter:   2 21:52:50   321.327048  +2.78  +0.08
iter:   3 21:52:58   588.587264  +3.52  -0.06
iter:   4 21:53:06  -227.982579  +3.70  -0.12
Writing to output.gpw (mode='')

iter:   5 21:53:15  -447.001739  +3.17  -0.11
iter:   6 21:53:23  -213.315591  +2.71  -0.16
iter:   7 21:53:31  -282.402006  +2.46  -0.43
iter:   8 21:53:39  -563.704886  +2.66  -0.46
iter:   9 21:53:47  -892.283190  +3.14  -0.18
Writing to output.gpw (mode='')

iter:  10 21:53:55  -399.275188  +2.28  -0.06
iter:  11 21:54:03  -290.880140  +2.92  -0.27
iter:  12 21:54:11  -341.529337  +2.40  -0.69
iter:  13 21:54:19  -419.152820  +1.36  -0.66
iter:  14 21:54:28  -349.112883  +1.99  -0.35
Writing to output.gpw (mode='')

iter:  15 21:54:36  -352.936877  +1.58  -0.69
iter:  16 21:54:44  -371.813714  +1.30  -0.56
iter:  17 21:54:52  -340.213214  +0.81  -0.43
iter:  18 21:55:00  -339.268059  +1.52  -0.77
iter:  19 21:55:08  -338.843897  +0.93  -0.85
Writing to output.gpw (mode='')

iter:  20 21:55:16  -338.906535  +0.59  -0.86
iter:  21 21:55:24  -340.384060  +0.76  -0.86
iter:  22 21:55:32  -348.468338  +1.15  -0.89
iter:  23 21:55:40  -340.556944  +0.09  -0.65
iter:  24 21:55:48  -340.739621  -0.05  -0.79
Writing to output.gpw (mode='')

iter:  25 21:56:04  -337.527256  +0.95  -0.79
iter:  26 21:56:13  -337.819580  +0.27  -1.10
iter:  27 21:56:21  -337.101720  -0.25  -1.15
iter:  28 21:56:29  -336.535134  -0.23  -1.16
iter:  29 21:56:37  -336.705317  -0.38  -1.26
Writing to output.gpw (mode='')

iter:  30 21:56:46  -336.766552  -0.53  -1.29
iter:  31 21:56:58  -336.485014  -0.35  -1.31
iter:  32 21:57:12  -336.429048  -0.84  -1.37
iter:  33 21:57:20  -336.477935  -0.88  -1.42
iter:  34 21:57:28  -336.515432  -0.67  -1.41
Writing to output.gpw (mode='')

iter:  35 21:57:36  -336.438211  -0.88  -1.57
iter:  36 21:57:45  -336.380649  -1.00  -1.62
iter:  37 21:57:53  -336.353607  -1.21  -1.66
iter:  38 21:58:01  -336.327510  -1.28  -1.71
iter:  39 21:58:09  -336.302976  -1.28  -1.71
Writing to output.gpw (mode='')

iter:  40 21:58:17  -336.305963c -1.53  -1.86
iter:  41 21:58:25  -336.300213c -1.32  -1.88
iter:  42 21:58:33  -336.310064c -1.13  -2.00
iter:  43 21:58:41  -336.302707c -1.68  -1.97
iter:  44 21:58:49  -336.305705c -1.81  -2.22
Writing to output.gpw (mode='')

iter:  45 21:58:58  -336.302197c -1.89  -2.21
iter:  46 21:59:06  -336.304881c -2.08  -2.45
iter:  47 21:59:14  -336.308981c -2.13  -2.51
iter:  48 21:59:22  -336.310424c -2.39  -2.66
iter:  49 21:59:30  -336.311644c -2.31  -2.75
Writing to output.gpw (mode='')

iter:  50 21:59:38  -336.313552c -2.40  -2.78
iter:  51 21:59:46  -336.313710c -2.66  -2.98
iter:  52 21:59:54  -336.314171c -2.78  -2.86
iter:  53 22:00:02  -336.315064c -2.74  -2.86
iter:  54 22:00:10  -336.315164c -2.72  -2.98
Writing to output.gpw (mode='')

iter:  55 22:00:18  -336.315554c -2.58  -3.04
iter:  56 22:00:27  -336.315905c -3.01  -3.02
iter:  57 22:00:35  -336.316078c -3.05  -3.11
iter:  58 22:00:43  -336.316436c -3.12  -3.23
iter:  59 22:00:51  -336.316670c -3.27  -3.36
Writing to output.gpw (mode='')

iter:  60 22:01:04  -336.316809c -3.36  -3.46
iter:  61 22:01:13  -336.316907c -3.36  -3.41
iter:  62 22:01:21  -336.317038c -3.26  -3.27
iter:  63 22:01:29  -336.317144c -3.43  -3.20
iter:  64 22:01:37  -336.317237c -3.60  -3.23
Writing to output.gpw (mode='')

iter:  65 22:01:45  -336.317315c -3.38  -3.24
iter:  66 22:01:53  -336.317314c -3.58  -3.20
iter:  67 22:02:01  -336.317348c -3.28  -3.24
iter:  68 22:02:09  -336.317441c -3.83  -3.26
iter:  69 22:02:17  -336.317465c -3.78  -3.45
Writing to output.gpw (mode='')

iter:  70 22:02:25  -336.317508c -3.74  -3.59
iter:  71 22:02:34  -336.317534c -3.81  -3.61
iter:  72 22:02:42  -336.317578c -4.06  -3.59
iter:  73 22:02:50  -336.317600c -4.14  -3.62
iter:  74 22:02:58  -336.317600c -4.11  -3.60
Writing to output.gpw (mode='')

iter:  75 22:03:06  -336.317597c -4.08  -3.58
iter:  76 22:03:14  -336.317624c -4.31  -3.57
iter:  77 22:03:22  -336.317635c -4.43  -3.56
iter:  78 22:03:30  -336.317632c -4.11  -3.60
iter:  79 22:03:41  -336.317636c -4.35  -3.71
Writing to output.gpw (mode='')

iter:  80 22:03:49  -336.317626c -4.40  -3.84
iter:  81 22:03:58  -336.317622c -4.47  -3.78
iter:  82 22:04:06  -336.317635c -4.55  -4.03c
iter:  83 22:04:14  -336.317639c -4.71  -3.98
iter:  84 22:04:22  -336.317648c -4.63  -3.95
Writing to output.gpw (mode='')

iter:  85 22:04:30  -336.317652c -4.74  -3.99
iter:  86 22:04:38  -336.317654c -4.90  -4.06c
iter:  87 22:04:46  -336.317658c -5.06  -4.04c
iter:  88 22:04:54  -336.317668c -4.57  -3.98
iter:  89 22:05:02  -336.317666c -4.89  -3.92
Writing to output.gpw (mode='')

iter:  90 22:05:11  -336.317669c -5.19  -3.98
iter:  91 22:05:19  -336.317669c -5.10  -4.02c
iter:  92 22:05:27  -336.317669c -5.28  -4.09c
iter:  93 22:05:35  -336.317671c -5.16  -4.15c
iter:  94 22:05:43  -336.317673c -4.98  -4.14c
Writing to output.gpw (mode='')

iter:  95 22:05:51  -336.317674c -5.32  -4.20c
iter:  96 22:06:06  -336.317666c -5.28  -4.21c
iter:  97 22:06:14  -336.317667c -5.37  -4.45c
iter:  98 22:06:22  -336.317669c -5.35  -4.53c
iter:  99 22:06:30  -336.317670c -5.42  -4.56c
Writing to output.gpw (mode='')

iter: 100 22:06:38  -336.317670c -5.56  -4.62c
iter: 101 22:06:46  -336.317670c -5.70  -4.68c
iter: 102 22:06:55  -336.317670c -5.75  -4.70c
iter: 103 22:07:03  -336.317670c -6.00  -4.77c
iter: 104 22:07:11  -336.317670c -6.03  -4.92c
Writing to output.gpw (mode='')

iter: 105 22:07:19  -336.317670c -6.06  -5.02c
iter: 106 22:07:27  -336.317670c -6.10  -5.11c
iter: 107 22:07:35  -336.317670c -6.19  -5.13c
iter: 108 22:07:43  -336.317670c -6.30  -5.39c
iter: 109 22:07:51  -336.317670c -6.34  -5.44c
Writing to output.gpw (mode='')

iter: 110 22:07:59  -336.317671c -6.30  -5.46c
iter: 111 22:08:07  -336.317671c -6.31  -5.48c
iter: 112 22:08:16  -336.317671c -6.41  -5.51c
iter: 113 22:08:24  -336.317671c -6.46  -5.57c
iter: 114 22:08:32  -336.317671c -6.46  -5.69c
Writing to output.gpw (mode='')

iter: 115 22:08:40  -336.317671c -6.49  -5.76c
iter: 116 22:08:48  -336.317671c -6.47  -5.75c
iter: 117 22:08:56  -336.317671c -6.62  -5.69c
iter: 118 22:09:04  -336.317671c -6.68  -5.68c
iter: 119 22:09:13  -336.317671c -6.74  -5.66c
Writing to output.gpw (mode='')

iter: 120 22:09:21  -336.317671c -6.83  -5.64c
iter: 121 22:09:29  -336.317671c -6.85  -5.57c
iter: 122 22:09:37  -336.317671c -6.93  -5.70c
iter: 123 22:09:45  -336.317671c -6.83  -5.70c
iter: 124 22:09:53  -336.317671c -6.94  -5.71c
Writing to output.gpw (mode='')

iter: 125 22:10:01  -336.317671c -6.99  -5.65c
iter: 126 22:10:09  -336.317671c -6.99  -5.77c
iter: 127 22:10:17  -336.317671c -7.12  -5.86c
iter: 128 22:10:26  -336.317671c -7.13  -5.93c
iter: 129 22:10:34  -336.317671c -7.02  -6.19c
Writing to output.gpw (mode='')

iter: 130 22:10:42  -336.317671c -7.06  -6.21c
iter: 131 22:10:50  -336.317671c -7.34  -6.35c
iter: 132 22:11:03  -336.317671c -7.29  -6.33c
iter: 133 22:11:12  -336.317671c -7.43c -6.31c

Converged after 133 iterations.

Dipole moment: (0.080668, -17.097871, 0.009911) |e|*Ang

Energy contributions relative to reference atoms: (reference = -17528.314784)

Kinetic:       +239.219056
Potential:     -210.171001
External:        +0.000000
XC:            -366.419704
Entropy (-ST):   -0.173424
Local:           +1.140690
--------------------------
Free energy:   -336.404383
Extrapolated:  -336.317671

Dipole-layer corrected work functions: 3.384089, 3.365038 eV

Showing only first 2 kpts
 Kpt  Band  Eigenvalues  Occupancy
  0    37     -3.56266    1.95458
  0    38     -3.48029    1.78461
  0    39     -3.27569    0.24319
  0    40     -3.15539    0.02466

  1    37     -3.44999    1.63771
  1    38     -3.37132    0.96761
  1    39     -3.34365    0.70033
  1    40     -3.25623    0.17151


Fermi level: -3.37456

No gap
Writing to output.gpw (mode='')


Forces in eV/Ang:
  0 Li    0.02142    0.00162   -0.27498
  1 Li   -0.02143    0.00156   -0.27510
  2 Li    0.00002   -0.00581   -0.28342
  3 Li    0.00836   -0.00083   -0.27545
  4 Li   -0.00832   -0.00077   -0.27552
  5 Li    0.00003    0.01628   -0.26932
  6 Li    0.00205    0.00060   -0.27774
  7 Li   -0.00201    0.00054   -0.27765
  8 Li   -0.00003   -0.01281   -0.26650
  9 Li    0.00275   -0.00508    0.28532
 10 Li   -0.00008    0.00931    0.25225
 11 Li   -0.00263   -0.00505    0.28534
 12 Li   -0.00610   -0.00287    0.30252
 13 Li   -0.00008    0.00220    0.23635
 14 Li    0.00616   -0.00285    0.30269
 15 Li   -0.00503    0.01025    0.25928
 16 Li   -0.00006   -0.01194    0.25441
 17 Li    0.00503    0.01025    0.25922
 18 Li    0.00264    0.00611    0.02929
 19 Li   -0.00281    0.00614    0.02861
 20 Li   -0.00002   -0.00995   -0.14831
 21 Li   -0.01341   -0.01374    0.04668
 22 Li    0.01336   -0.01372    0.04649
 23 Li   -0.00007    0.01309    0.00257
 24 Li    0.00042    0.00682    0.03691
 25 Li   -0.00038    0.00689    0.03698
 26 Li   -0.00004    0.00755    0.04471
 27 Li   -0.04377   -0.01895    0.06342
 28 Li   -0.00026    0.01412   -0.02262
 29 Li    0.04372   -0.01855    0.06326
 30 Li   -0.09775   -0.02486    0.13960
 31 Li   -0.00038   -0.01109   -0.02754
 32 Li    0.09886   -0.02645    0.14203
 33 Li   -0.00144    0.01266   -0.01792
 34 Li    0.00001   -0.00286   -0.02338
 35 Li    0.00147    0.01278   -0.01785
 36 O    -0.09912   11.34256   26.51706
 37 O     0.00039   -0.05334    0.04349
 38 C     0.02198   -0.12971    0.30266
 39 C    -0.02716   -0.98016    3.02076
 40 C     0.00619   -0.01311    0.16059
 41 H    -0.01423   -0.03822   -0.02265
 42 H     0.01250   -0.01413   -0.03213
 43 H    -0.00618    0.10546   -0.25165
 44 H    -0.00860    0.09009   -0.26001
 45 H    -0.01501    0.00749    0.01019
 46 H     0.03454    0.01282   -0.00206
 47 H     0.24736  -25.01681    6.49333
 48 H     0.00040   -0.01988    0.02795
 49 N    -0.05889    3.97190  -13.78960
 50 N    -0.07354   10.69227  -22.53782

System changes: positions 

Initializing position-dependent things.

Density initialized from wave functions
       .-----------------------.  
      /|                       |  
     / |                       |  
    /  |                       |  
   /   |                       |  
  /    |                       |  
 *     |                       |  
 |     |                       |  
 |     |                       |  
 |     |                       |  
 |     |              O H      |  
 |     |                       |  
 |     |           H  CH       |  
 |     |            H C  H     |  
 |     |                       |  
 |     |             C H       |  
 |     |           H  OLi      Li 
 |     |              H        |  
 |     |     Li      LN      Li|  
 |     |              N        |  
 |     |  LLi     LLi     LLi  |  
 |     |                       |  
 |     |LLi     Li      Li     |  
 |   Li|     Li      Li        |  
 |    Li  Li  Li  Li  Li  Li   |  
 | Li  |   Li      Li          |  
 |     |Li      Li      Li     |  
 Li    | Li      Li            |  
 |    Li      Li      Li       |  
 |     |                       |  
 |     |                       |  
 |     |                       |  
 |     |                       |  
 |     |                       |  
 |     |                       |  
 |     .-----------------------.  
 |    /                       /   
 |   /                       /    
 |  /                       /     
 | /                       /      
 |/                       /       
 *-----------------------*        

Positions:
   0 Li     1.617037    1.617037   10.000000    ( 0.0000,  0.0000,  0.0000)
   1 Li     4.851111    1.617037   10.000000    ( 0.0000,  0.0000,  0.0000)
   2 Li     8.085185    1.617037   10.000000    ( 0.0000,  0.0000,  0.0000)
   3 Li     1.617037    4.851111   10.000000    ( 0.0000,  0.0000,  0.0000)
   4 Li     4.851111    4.851111   10.000000    ( 0.0000,  0.0000,  0.0000)
   5 Li     8.085185    4.851111   10.000000    ( 0.0000,  0.0000,  0.0000)
   6 Li     1.617037    8.085185   10.000000    ( 0.0000,  0.0000,  0.0000)
   7 Li     4.851111    8.085185   10.000000    ( 0.0000,  0.0000,  0.0000)
   8 Li     8.085185    8.085185   10.000000    ( 0.0000,  0.0000,  0.0000)
   9 Li     0.000000    0.000000   11.617037    ( 0.0000,  0.0000,  0.0000)
  10 Li     3.234074    0.000000   11.617037    ( 0.0000,  0.0000,  0.0000)
  11 Li     6.468148    0.000000   11.617037    ( 0.0000,  0.0000,  0.0000)
  12 Li     0.000000    3.234074   11.617037    ( 0.0000,  0.0000,  0.0000)
  13 Li     3.234074    3.234074   11.617037    ( 0.0000,  0.0000,  0.0000)
  14 Li     6.468148    3.234074   11.617037    ( 0.0000,  0.0000,  0.0000)
  15 Li     0.000000    6.468148   11.617037    ( 0.0000,  0.0000,  0.0000)
  16 Li     3.234074    6.468148   11.617037    ( 0.0000,  0.0000,  0.0000)
  17 Li     6.468148    6.468148   11.617037    ( 0.0000,  0.0000,  0.0000)
  18 Li     1.617042    1.617047   13.469768    ( 0.0000,  0.0000,  0.0000)
  19 Li     4.851107    1.617047   13.469769    ( 0.0000,  0.0000,  0.0000)
  20 Li     8.085184    1.617024   13.469522    ( 0.0000,  0.0000,  0.0000)
  21 Li     1.617020    4.851092   13.469794    ( 0.0000,  0.0000,  0.0000)
  22 Li     4.851130    4.851092   13.469795    ( 0.0000,  0.0000,  0.0000)
  23 Li     8.085183    4.851129   13.469733    ( 0.0000,  0.0000,  0.0000)
  24 Li     1.617039    8.085193   13.469779    ( 0.0000,  0.0000,  0.0000)
  25 Li     4.851110    8.085193   13.469781    ( 0.0000,  0.0000,  0.0000)
  26 Li     8.085184    8.085194   13.469790    ( 0.0000,  0.0000,  0.0000)
  27 Li    -0.000061   -0.000026   15.446027    ( 0.0000,  0.0000,  0.0000)
  28 Li     3.234073    0.000020   15.445907    ( 0.0000,  0.0000,  0.0000)
  29 Li     6.468209   -0.000026   15.446027    ( 0.0000,  0.0000,  0.0000)
  30 Li    -0.000136    3.234039   15.446132    ( 0.0000,  0.0000,  0.0000)
  31 Li     3.234076    3.234061   15.445900    ( 0.0000,  0.0000,  0.0000)
  32 Li     6.468283    3.234040   15.446135    ( 0.0000,  0.0000,  0.0000)
  33 Li    -0.000002    6.468166   15.445914    ( 0.0000,  0.0000,  0.0000)
  34 Li     3.234076    6.468142   15.445906    ( 0.0000,  0.0000,  0.0000)
  35 Li     6.468148    6.468163   15.445913    ( 0.0000,  0.0000,  0.0000)
  36 O      8.085048    1.632768   19.682716    ( 0.0000,  0.0000,  0.0000)
  37 O      8.091296    1.596634   24.508342    ( 0.0000,  0.0000,  0.0000)
  38 C      8.070769    1.615312   22.042274    ( 0.0000,  0.0000,  0.0000)
  39 C      8.082269    0.747858   20.794999    ( 0.0000,  0.0000,  0.0000)
  40 C      8.094676    0.785207   23.324693    ( 0.0000,  0.0000,  0.0000)
  41 H      8.945379    2.275946   22.019740    ( 0.0000,  0.0000,  0.0000)
  42 H      7.182750    2.252584   22.041668    ( 0.0000,  0.0000,  0.0000)
  43 H      8.975845    0.109105   20.785530    ( 0.0000,  0.0000,  0.0000)
  44 H      7.195609    0.100665   20.776907    ( 0.0000,  0.0000,  0.0000)
  45 H      8.961969    0.109670   23.325186    ( 0.0000,  0.0000,  0.0000)
  46 H      7.194612    0.169152   23.401316    ( 0.0000,  0.0000,  0.0000)
  47 H      8.090395    1.037984   18.859420    ( 0.0000,  0.0000,  0.0000)
  48 H      8.865813    2.171720   24.475737    ( 0.0000,  0.0000,  0.0000)
  49 N      8.084918    1.622509   17.176815    ( 0.0000,  0.0000,  0.0000)
  50 N      8.084898    1.631829   18.261303    ( 0.0000,  0.0000,  0.0000)

Unit cell:
           periodic     x           y           z      points  spacing
  1. axis:    yes    9.702222    0.000000    0.000000    60     0.1617
  2. axis:    yes    0.000000    9.702222    0.000000    60     0.1617
  3. axis:    no     0.000000    0.000000   28.601111   180     0.1589

  Lengths:   9.702222   9.702222  28.601111
  Angles:   90.000000  90.000000  90.000000

Effective grid spacing dv^(1/3) = 0.1608

     iter     time        total  log10-change:
                         energy  eigst   dens
iter:   1 22:11:22  -339.837163  -0.41
iter:   2 22:11:30  -339.719367  -0.76  -1.50
iter:   3 22:11:38  -339.351249  -0.96  -1.34
iter:   4 22:11:46  -339.273225  -1.17  -1.76
Writing to output.gpw (mode='')

iter:   5 22:11:54  -339.184210  -0.76  -1.75
iter:   6 22:12:03  -339.175987  -1.34  -2.12
iter:   7 22:12:11  -339.179791c -1.60  -2.21
iter:   8 22:12:19  -339.172503c -1.82  -2.23
iter:   9 22:12:27  -339.165796c -2.04  -2.23
Writing to output.gpw (mode='')

iter:  10 22:12:35  -339.165708c -2.56  -2.53
iter:  11 22:12:44  -339.165106c -2.49  -2.55
iter:  12 22:12:52  -339.164860c -2.79  -2.72
iter:  13 22:13:00  -339.165050c -3.08  -2.83
iter:  14 22:13:08  -339.165174c -3.26  -2.93
Writing to output.gpw (mode='')

iter:  15 22:13:16  -339.165411c -3.34  -3.00
iter:  16 22:13:25  -339.165174c -3.30  -2.96
iter:  17 22:13:33  -339.165221c -3.84  -3.21
iter:  18 22:13:41  -339.165244c -3.76  -3.26
iter:  19 22:13:49  -339.165247c -4.18  -3.56
Writing to output.gpw (mode='')

iter:  20 22:13:57  -339.165268c -4.33  -3.59
iter:  21 22:14:06  -339.165284c -4.37  -3.63
iter:  22 22:14:14  -339.165287c -4.52  -3.70
iter:  23 22:14:22  -339.165291c -4.84  -3.80
iter:  24 22:14:30  -339.165277c -4.92  -3.82
Writing to output.gpw (mode='')

iter:  25 22:14:38  -339.165284c -5.13  -3.84
iter:  26 22:14:47  -339.165306c -5.28  -3.86
iter:  27 22:14:55  -339.165310c -5.43  -4.02c
iter:  28 22:15:03  -339.165315c -5.34  -4.08c
iter:  29 22:15:11  -339.165325c -5.25  -4.12c
Writing to output.gpw (mode='')

iter:  30 22:15:19  -339.165314c -5.73  -4.20c
iter:  31 22:15:28  -339.165316c -5.85  -4.38c
iter:  32 22:15:36  -339.165313c -5.90  -4.48c
iter:  33 22:15:44  -339.165318c -5.78  -4.61c
iter:  34 22:15:52  -339.165317c -5.87  -4.83c
Writing to output.gpw (mode='')

iter:  35 22:16:07  -339.165317c -6.20  -4.90c
iter:  36 22:16:15  -339.165317c -6.25  -4.93c
iter:  37 22:16:23  -339.165317c -6.39  -5.07c
iter:  38 22:16:32  -339.165318c -6.55  -5.11c
iter:  39 22:16:40  -339.165317c -6.60  -5.12c
Writing to output.gpw (mode='')

iter:  40 22:16:48  -339.165318c -6.53  -5.13c
iter:  41 22:16:56  -339.165318c -6.79  -5.43c
iter:  42 22:17:04  -339.165318c -6.84  -5.47c
iter:  43 22:17:13  -339.165318c -6.89  -5.66c
iter:  44 22:17:21  -339.165318c -6.97  -5.68c
Writing to output.gpw (mode='')

iter:  45 22:17:29  -339.165318c -7.02  -5.72c
iter:  46 22:17:37  -339.165318c -7.08  -5.75c
iter:  47 22:17:45  -339.165318c -7.08  -5.80c
iter:  48 22:17:54  -339.165318c -7.26  -5.87c
iter:  49 22:18:02  -339.165318c -7.31  -5.90c
Writing to output.gpw (mode='')

iter:  50 22:18:10  -339.165318c -7.37  -6.04c
iter:  51 22:18:18  -339.165318c -7.47c -6.10c

Converged after 51 iterations.

Dipole moment: (-0.048169, -17.077309, -0.198251) |e|*Ang

Energy contributions relative to reference atoms: (reference = -17528.314784)

Kinetic:       +235.904712
Potential:     -210.427395
External:        +0.000000
XC:            -365.678500
Entropy (-ST):   -0.169133
Local:           +1.120431
--------------------------
Free energy:   -339.249885
Extrapolated:  -339.165318

Dipole-layer corrected work functions: 3.392948, 3.774054 eV

Showing only first 2 kpts
 Kpt  Band  Eigenvalues  Occupancy
  0    37     -3.78381    1.96425
  0    38     -3.68618    1.77262
  0    39     -3.47557    0.20707
  0    40     -3.36330    0.02416

  1    37     -3.67584    1.72751
  1    38     -3.57633    0.92845
  1    39     -3.55192    0.69425
  1    40     -3.45895    0.15299


Fermi level: -3.58350

No gap
Writing to output.gpw (mode='')


Forces in eV/Ang:
  0 Li    0.02576    0.00104   -0.27573
  1 Li   -0.02577    0.00103   -0.27583
  2 Li    0.00003   -0.00423   -0.28281
  3 Li    0.00588   -0.00101   -0.27680
  4 Li   -0.00587   -0.00096   -0.27687
  5 Li    0.00001    0.02016   -0.26876
  6 Li    0.00180    0.00144   -0.27855
  7 Li   -0.00178    0.00139   -0.27845
  8 Li   -0.00001   -0.01771   -0.26732
  9 Li    0.00203   -0.00269    0.28688
 10 Li   -0.00011    0.00766    0.24767
 11 Li   -0.00192   -0.00265    0.28695
 12 Li   -0.00428   -0.00254    0.29935
 13 Li   -0.00006    0.00001    0.23633
 14 Li    0.00433   -0.00256    0.29950
 15 Li   -0.00818    0.00723    0.25629
 16 Li   -0.00000   -0.00886    0.25481
 17 Li    0.00815    0.00719    0.25621
 18 Li    0.00546    0.00418    0.02949
 19 Li   -0.00565    0.00417    0.02889
 20 Li    0.00002   -0.00757   -0.15008
 21 Li   -0.01312   -0.01389    0.04601
 22 Li    0.01309   -0.01389    0.04581
 23 Li   -0.00005    0.00614    0.01730
 24 Li   -0.00339    0.00835    0.03927
 25 Li    0.00347    0.00847    0.03943
 26 Li   -0.00007    0.00857    0.04682
 27 Li   -0.01921   -0.03071    0.03617
 28 Li   -0.00021    0.01597   -0.02325
 29 Li    0.01948   -0.03013    0.03643
 30 Li   -0.05762   -0.00322    0.09748
 31 Li   -0.00031   -0.01451   -0.02631
 32 Li    0.05840   -0.00436    0.09929
 33 Li   -0.00893    0.00876   -0.01481
 34 Li   -0.00000   -0.00076   -0.02149
 35 Li    0.00896    0.00887   -0.01472
 36 O    -0.06530    5.90571   23.04518
 37 O     0.00518   -0.05687    0.12308
 38 C     0.02362   -0.41243    0.70173
 39 C    -0.02497   -0.19033    3.16661
 40 C     0.00235    0.11951    0.15206
 41 H    -0.00379   -0.04632   -0.03944
 42 H     0.00486   -0.02248   -0.04750
 43 H     0.03841    0.05630   -0.18767
 44 H    -0.05487    0.04111   -0.19872
 45 H    -0.00660    0.00053    0.01018
 46 H     0.02678    0.00800   -0.00060
 47 H     0.15996  -15.24987    4.95588
 48 H    -0.00739   -0.02556    0.02180
 49 N    -0.05338    2.75190  -13.40986
 50 N    -0.03004    7.13024  -18.49002

System changes: positions 

Initializing position-dependent things.

Density initialized from wave functions
       .-----------------------.  
      /|                       |  
     / |                       |  
    /  |                       |  
   /   |                       |  
  /    |                       |  
 *     |                       |  
 |     |                       |  
 |     |                       |  
 |     |                       |  
 |     |              O H      |  
 |     |                       |  
 |     |           H  CH       |  
 |     |            H C  H     |  
 |     |                       |  
 |     |             C H       |  
 |     |           H  OLi      Li 
 |     |              H        |  
 |     |     Li      LN      Li|  
 |     |              N        |  
 |     |  LLi     LLi     LLi  |  
 |     |                       |  
 |     |LLi     Li      Li     |  
 |   Li|     Li      Li        |  
 |    Li  Li  Li  Li  Li  Li   |  
 | Li  |   Li      Li          |  
 |     |Li      Li      Li     |  
 Li    | Li      Li            |  
 |    Li      Li      Li       |  
 |     |                       |  
 |     |                       |  
 |     |                       |  
 |     |                       |  
 |     |                       |  
 |     |                       |  
 |     .-----------------------.  
 |    /                       /   
 |   /                       /    
 |  /                       /     
 | /                       /      
 |/                       /       
 *-----------------------*        

Positions:
   0 Li     1.617037    1.617037   10.000000    ( 0.0000,  0.0000,  0.0000)
   1 Li     4.851111    1.617037   10.000000    ( 0.0000,  0.0000,  0.0000)
   2 Li     8.085185    1.617037   10.000000    ( 0.0000,  0.0000,  0.0000)
   3 Li     1.617037    4.851111   10.000000    ( 0.0000,  0.0000,  0.0000)
   4 Li     4.851111    4.851111   10.000000    ( 0.0000,  0.0000,  0.0000)
   5 Li     8.085185    4.851111   10.000000    ( 0.0000,  0.0000,  0.0000)
   6 Li     1.617037    8.085185   10.000000    ( 0.0000,  0.0000,  0.0000)
   7 Li     4.851111    8.085185   10.000000    ( 0.0000,  0.0000,  0.0000)
   8 Li     8.085185    8.085185   10.000000    ( 0.0000,  0.0000,  0.0000)
   9 Li     0.000000    0.000000   11.617037    ( 0.0000,  0.0000,  0.0000)
  10 Li     3.234074    0.000000   11.617037    ( 0.0000,  0.0000,  0.0000)
  11 Li     6.468148    0.000000   11.617037    ( 0.0000,  0.0000,  0.0000)
  12 Li     0.000000    3.234074   11.617037    ( 0.0000,  0.0000,  0.0000)
  13 Li     3.234074    3.234074   11.617037    ( 0.0000,  0.0000,  0.0000)
  14 Li     6.468148    3.234074   11.617037    ( 0.0000,  0.0000,  0.0000)
  15 Li     0.000000    6.468148   11.617037    ( 0.0000,  0.0000,  0.0000)
  16 Li     3.234074    6.468148   11.617037    ( 0.0000,  0.0000,  0.0000)
  17 Li     6.468148    6.468148   11.617037    ( 0.0000,  0.0000,  0.0000)
  18 Li     1.617064    1.617049   13.469836    ( 0.0000,  0.0000,  0.0000)
  19 Li     4.851084    1.617049   13.469835    ( 0.0000,  0.0000,  0.0000)
  20 Li     8.085184    1.617016   13.469178    ( 0.0000,  0.0000,  0.0000)
  21 Li     1.616991    4.851060   13.469895    ( 0.0000,  0.0000,  0.0000)
  22 Li     4.851158    4.851060   13.469896    ( 0.0000,  0.0000,  0.0000)
  23 Li     8.085183    4.851118   13.469825    ( 0.0000,  0.0000,  0.0000)
  24 Li     1.617017    8.085218   13.469876    ( 0.0000,  0.0000,  0.0000)
  25 Li     4.851132    8.085218   13.469878    ( 0.0000,  0.0000,  0.0000)
  26 Li     8.085184    8.085217   13.469903    ( 0.0000,  0.0000,  0.0000)
  27 Li    -0.000016   -0.000138   15.446011    ( 0.0000,  0.0000,  0.0000)
  28 Li     3.234073    0.000062   15.445853    ( 0.0000,  0.0000,  0.0000)
  29 Li     6.468166   -0.000135   15.446013    ( 0.0000,  0.0000,  0.0000)
  30 Li    -0.000122    3.234109   15.446202    ( 0.0000,  0.0000,  0.0000)
  31 Li     3.234075    3.234016   15.445845    ( 0.0000,  0.0000,  0.0000)
  32 Li     6.468270    3.234109   15.446206    ( 0.0000,  0.0000,  0.0000)
  33 Li    -0.000049    6.468172   15.445892    ( 0.0000,  0.0000,  0.0000)
  34 Li     3.234076    6.468147   15.445864    ( 0.0000,  0.0000,  0.0000)
  35 Li     6.468195    6.468169   15.445891    ( 0.0000,  0.0000,  0.0000)
  36 O      8.085021    1.626635   19.722243    ( 0.0000,  0.0000,  0.0000)
  37 O      8.091325    1.596493   24.508904    ( 0.0000,  0.0000,  0.0000)
  38 C      8.070828    1.613372   22.045283    ( 0.0000,  0.0000,  0.0000)
  39 C      8.082220    0.750254   20.802658    ( 0.0000,  0.0000,  0.0000)
  40 C      8.094667    0.785950   23.325006    ( 0.0000,  0.0000,  0.0000)
  41 H      8.945408    2.275812   22.019591    ( 0.0000,  0.0000,  0.0000)
  42 H      7.182734    2.252503   22.041506    ( 0.0000,  0.0000,  0.0000)
  43 H      8.976091    0.109056   20.785336    ( 0.0000,  0.0000,  0.0000)
  44 H      7.195320    0.100582   20.776678    ( 0.0000,  0.0000,  0.0000)
  45 H      8.961985    0.109646   23.325209    ( 0.0000,  0.0000,  0.0000)
  46 H      7.194645    0.169153   23.401320    ( 0.0000,  0.0000,  0.0000)
  47 H      8.090443    1.038541   18.865092    ( 0.0000,  0.0000,  0.0000)
  48 H      8.865768    2.171642   24.475764    ( 0.0000,  0.0000,  0.0000)
  49 N      8.084818    1.624348   17.147947    ( 0.0000,  0.0000,  0.0000)
  50 N      8.084986    1.635161   18.234104    ( 0.0000,  0.0000,  0.0000)

Unit cell:
           periodic     x           y           z      points  spacing
  1. axis:    yes    9.702222    0.000000    0.000000    60     0.1617
  2. axis:    yes    0.000000    9.702222    0.000000    60     0.1617
  3. axis:    no     0.000000    0.000000   28.601111   180     0.1589

  Lengths:   9.702222   9.702222  28.601111
  Angles:   90.000000  90.000000  90.000000

Effective grid spacing dv^(1/3) = 0.1608

     iter     time        total  log10-change:
                         energy  eigst   dens
iter:   1 22:18:28  -341.030252  -0.65
iter:   2 22:18:36  -341.023670  -1.19  -2.01
iter:   3 22:18:45  -341.011621c -1.49  -1.94
iter:   4 22:18:53  -341.018275c -1.35  -2.03
Writing to output.gpw (mode='')

iter:   5 22:19:01  -340.981141c -1.86  -1.90
iter:   6 22:19:09  -340.985852c -1.75  -2.31
iter:   7 22:19:17  -340.977856c -2.47  -2.14
iter:   8 22:19:26  -340.976172c -2.46  -2.32
iter:   9 22:19:34  -340.975693c -2.72  -2.65
Writing to output.gpw (mode='')

iter:  10 22:19:45  -340.975743c -3.16  -2.79
iter:  11 22:19:53  -340.975215c -3.10  -2.83
iter:  12 22:20:01  -340.975642c -3.51  -2.94
iter:  13 22:20:09  -340.975627c -3.89  -3.06
iter:  14 22:20:18  -340.975551c -4.11  -3.19
Writing to output.gpw (mode='')

iter:  15 22:20:26  -340.975340c -3.97  -3.28
iter:  16 22:20:34  -340.975507c -4.29  -3.32
iter:  17 22:20:42  -340.975462c -4.58  -3.56
iter:  18 22:20:50  -340.975432c -4.68  -3.66
iter:  19 22:21:03  -340.975436c -4.93  -3.75
Writing to output.gpw (mode='')

iter:  20 22:21:12  -340.975469c -5.41  -3.79
iter:  21 22:21:21  -340.975419c -5.26  -3.81
iter:  22 22:21:29  -340.975440c -5.57  -3.92
iter:  23 22:21:37  -340.975444c -5.57  -4.12c
iter:  24 22:21:45  -340.975451c -5.82  -4.20c
Writing to output.gpw (mode='')

iter:  25 22:21:53  -340.975449c -6.04  -4.45c
iter:  26 22:22:02  -340.975452c -5.90  -4.55c
iter:  27 22:22:10  -340.975451c -6.35  -4.71c
iter:  28 22:22:18  -340.975451c -6.45  -4.87c
iter:  29 22:22:26  -340.975450c -6.75  -4.91c
Writing to output.gpw (mode='')

iter:  30 22:22:34  -340.975451c -6.80  -4.94c
iter:  31 22:22:43  -340.975451c -6.77  -5.13c
iter:  32 22:22:51  -340.975451c -7.08  -5.20c
iter:  33 22:22:59  -340.975451c -7.10  -5.24c
iter:  34 22:23:07  -340.975451c -7.27  -5.29c
Writing to output.gpw (mode='')

iter:  35 22:23:15  -340.975450c -7.22  -5.36c
iter:  36 22:23:24  -340.975451c -7.50c -5.41c

Converged after 36 iterations.

Dipole moment: (-0.143466, -17.010025, -0.349518) |e|*Ang

Energy contributions relative to reference atoms: (reference = -17528.314784)

Kinetic:       +234.375033
Potential:     -210.738260
External:        +0.000000
XC:            -365.648875
Entropy (-ST):   -0.157247
Local:           +1.115275
--------------------------
Free energy:   -341.054074
Extrapolated:  -340.975451

Dipole-layer corrected work functions: 3.397761, 4.069654 eV

Showing only first 2 kpts
 Kpt  Band  Eigenvalues  Occupancy
  0    37     -3.97222    1.98319
  0    38     -3.85303    1.83157
  0    39     -3.60298    0.13642
  0    40     -3.51402    0.02441

  1    37     -3.81987    1.69708
  1    38     -3.72531    0.91620
  1    39     -3.70356    0.70738
  1    40     -3.60869    0.15166


Fermi level: -3.73371

No gap
Writing to output.gpw (mode='')


Forces in eV/Ang:
  0 Li    0.02853    0.00053   -0.27592
  1 Li   -0.02854    0.00054   -0.27598
  2 Li    0.00003   -0.00259   -0.28177
  3 Li    0.00248   -0.00177   -0.27686
  4 Li   -0.00249   -0.00173   -0.27692
  5 Li   -0.00000    0.02348   -0.26886
  6 Li    0.00064    0.00266   -0.27823
  7 Li   -0.00063    0.00263   -0.27813
  8 Li   -0.00000   -0.02204   -0.26881
  9 Li    0.00089   -0.00045    0.28788
 10 Li   -0.00012    0.00627    0.24445
 11 Li   -0.00081   -0.00040    0.28797
 12 Li   -0.00269   -0.00215    0.29537
 13 Li   -0.00005   -0.00229    0.23756
 14 Li    0.00274   -0.00220    0.29550
 15 Li   -0.00973    0.00421    0.25267
 16 Li    0.00004   -0.00579    0.25860
 17 Li    0.00968    0.00416    0.25257
 18 Li    0.00551    0.00226    0.03142
 19 Li   -0.00573    0.00221    0.03091
 20 Li    0.00005   -0.00508   -0.15793
 21 Li   -0.01297   -0.01396    0.04576
 22 Li    0.01296   -0.01400    0.04560
 23 Li   -0.00003   -0.00005    0.02960
 24 Li   -0.00720    0.00998    0.04187
 25 Li    0.00729    0.01014    0.04205
 26 Li   -0.00007    0.00851    0.04669
 27 Li   -0.00479   -0.03545    0.01952
 28 Li   -0.00015    0.01835   -0.02317
 29 Li    0.00524   -0.03481    0.02000
 30 Li   -0.02600    0.01163    0.06609
 31 Li   -0.00023   -0.01852   -0.02470
 32 Li    0.02663    0.01076    0.06752
 33 Li   -0.01539    0.00537   -0.01419
 34 Li   -0.00002    0.00123   -0.01954
 35 Li    0.01542    0.00545   -0.01408
 36 O    -0.04340    2.07596   20.11042
 37 O     0.01052   -0.06041    0.17812
 38 C     0.02067   -0.46617    1.04704
 39 C    -0.01890    0.08565    3.21911
 40 C    -0.00046    0.16729    0.19370
 41 H    -0.01186   -0.06836   -0.03939
 42 H     0.01649   -0.04451   -0.04618
 43 H     0.04465    0.01499   -0.06865
 44 H    -0.06110    0.00180   -0.08177
 45 H    -0.01069    0.00425    0.01278
 46 H     0.03002    0.01132    0.00250
 47 H     0.12353  -11.24774    6.34735
 48 H    -0.01302   -0.02691    0.02007
 49 N    -0.04755    1.45338  -11.41750
 50 N    -0.02296    8.09065  -19.68468

System changes: positions 

Initializing position-dependent things.

Density initialized from wave functions
       .-----------------------.  
      /|                       |  
     / |                       |  
    /  |                       |  
   /   |                       |  
  /    |                       |  
 *     |                       |  
 |     |                       |  
 |     |                       |  
 |     |                       |  
 |     |              O H      |  
 |     |                       |  
 |     |           H  CH       |  
 |     |            H C  H     |  
 |     |                       |  
 |     |             C H       |  
 |     Li          H  OLi      |  
 |     |              H        |  
 |     |     Li      LN      Li|  
 |     |              N        |  
 |     |  LLi     LLi     LLi  |  
 |     |                       |  
 |     |LLi     Li      Li     |  
 |   Li|     Li      Li        |  
 |    Li  Li  Li  Li  Li  Li   |  
 | Li  |   Li      Li          |  
 |     |Li      Li      Li     |  
 Li    | Li      Li            |  
 |    Li      Li      Li       |  
 |     |                       |  
 |     |                       |  
 |     |                       |  
 |     |                       |  
 |     |                       |  
 |     |                       |  
 |     .-----------------------.  
 |    /                       /   
 |   /                       /    
 |  /                       /     
 | /                       /      
 |/                       /       
 *-----------------------*        

Positions:
   0 Li     1.617037    1.617037   10.000000    ( 0.0000,  0.0000,  0.0000)
   1 Li     4.851111    1.617037   10.000000    ( 0.0000,  0.0000,  0.0000)
   2 Li     8.085185    1.617037   10.000000    ( 0.0000,  0.0000,  0.0000)
   3 Li     1.617037    4.851111   10.000000    ( 0.0000,  0.0000,  0.0000)
   4 Li     4.851111    4.851111   10.000000    ( 0.0000,  0.0000,  0.0000)
   5 Li     8.085185    4.851111   10.000000    ( 0.0000,  0.0000,  0.0000)
   6 Li     1.617037    8.085185   10.000000    ( 0.0000,  0.0000,  0.0000)
   7 Li     4.851111    8.085185   10.000000    ( 0.0000,  0.0000,  0.0000)
   8 Li     8.085185    8.085185   10.000000    ( 0.0000,  0.0000,  0.0000)
   9 Li     0.000000    0.000000   11.617037    ( 0.0000,  0.0000,  0.0000)
  10 Li     3.234074    0.000000   11.617037    ( 0.0000,  0.0000,  0.0000)
  11 Li     6.468148    0.000000   11.617037    ( 0.0000,  0.0000,  0.0000)
  12 Li     0.000000    3.234074   11.617037    ( 0.0000,  0.0000,  0.0000)
  13 Li     3.234074    3.234074   11.617037    ( 0.0000,  0.0000,  0.0000)
  14 Li     6.468148    3.234074   11.617037    ( 0.0000,  0.0000,  0.0000)
  15 Li     0.000000    6.468148   11.617037    ( 0.0000,  0.0000,  0.0000)
  16 Li     3.234074    6.468148   11.617037    ( 0.0000,  0.0000,  0.0000)
  17 Li     6.468148    6.468148   11.617037    ( 0.0000,  0.0000,  0.0000)
  18 Li     1.617087    1.617048   13.469915    ( 0.0000,  0.0000,  0.0000)
  19 Li     4.851061    1.617048   13.469914    ( 0.0000,  0.0000,  0.0000)
  20 Li     8.085184    1.617012   13.468778    ( 0.0000,  0.0000,  0.0000)
  21 Li     1.616960    4.851025   13.470007    ( 0.0000,  0.0000,  0.0000)
  22 Li     4.851189    4.851025   13.470006    ( 0.0000,  0.0000,  0.0000)
  23 Li     8.085183    4.851094   13.469950    ( 0.0000,  0.0000,  0.0000)
  24 Li     1.616986    8.085248   13.469988    ( 0.0000,  0.0000,  0.0000)
  25 Li     4.851164    8.085249   13.469991    ( 0.0000,  0.0000,  0.0000)
  26 Li     8.085183    8.085242   13.470025    ( 0.0000,  0.0000,  0.0000)
  27 Li     0.000055   -0.000264   15.445967    ( 0.0000,  0.0000,  0.0000)
  28 Li     3.234073    0.000114   15.445793    ( 0.0000,  0.0000,  0.0000)
  29 Li     6.468097   -0.000260   15.445971    ( 0.0000,  0.0000,  0.0000)
  30 Li    -0.000047    3.234212   15.446219    ( 0.0000,  0.0000,  0.0000)
  31 Li     3.234075    3.233958   15.445788    ( 0.0000,  0.0000,  0.0000)
  32 Li     6.468195    3.234211   15.446225    ( 0.0000,  0.0000,  0.0000)
  33 Li    -0.000113    6.468171   15.445867    ( 0.0000,  0.0000,  0.0000)
  34 Li     3.234076    6.468158   15.445822    ( 0.0000,  0.0000,  0.0000)
  35 Li     6.468259    6.468169   15.445867    ( 0.0000,  0.0000,  0.0000)
  36 O      8.085030    1.613060   19.759869    ( 0.0000,  0.0000,  0.0000)
  37 O      8.091368    1.596331   24.509618    ( 0.0000,  0.0000,  0.0000)
  38 C      8.070883    1.611308   22.049277    ( 0.0000,  0.0000,  0.0000)
  39 C      8.082183    0.753062   20.811108    ( 0.0000,  0.0000,  0.0000)
  40 C      8.094653    0.786801   23.325477    ( 0.0000,  0.0000,  0.0000)
  41 H      8.945407    2.275608   22.019441    ( 0.0000,  0.0000,  0.0000)
  42 H      7.182756    2.252357   22.041344    ( 0.0000,  0.0000,  0.0000)
  43 H      8.976344    0.108921   20.785419    ( 0.0000,  0.0000,  0.0000)
  44 H      7.195021    0.100416   20.776719    ( 0.0000,  0.0000,  0.0000)
  45 H      8.961983    0.109636   23.325241    ( 0.0000,  0.0000,  0.0000)
  46 H      7.194696    0.169167   23.401332    ( 0.0000,  0.0000,  0.0000)
  47 H      8.090459    1.043054   18.876597    ( 0.0000,  0.0000,  0.0000)
  48 H      8.865709    2.171557   24.475794    ( 0.0000,  0.0000,  0.0000)
  49 N      8.084720    1.623555   17.121740    ( 0.0000,  0.0000,  0.0000)
  50 N      8.085068    1.644449   18.197531    ( 0.0000,  0.0000,  0.0000)

Unit cell:
           periodic     x           y           z      points  spacing
  1. axis:    yes    9.702222    0.000000    0.000000    60     0.1617
  2. axis:    yes    0.000000    9.702222    0.000000    60     0.1617
  3. axis:    no     0.000000    0.000000   28.601111   180     0.1589

  Lengths:   9.702222   9.702222  28.601111
  Angles:   90.000000  90.000000  90.000000

Effective grid spacing dv^(1/3) = 0.1608

     iter     time        total  log10-change:
                         energy  eigst   dens
iter:   1 22:23:34  -342.924361  -0.70
iter:   2 22:23:42  -342.823223  -0.90  -1.64
iter:   3 22:23:50  -342.787514  -1.38  -1.70
iter:   4 22:23:58  -342.816828c -0.86  -2.01
Writing to output.gpw (mode='')

iter:   5 22:24:07  -342.819987c -1.52  -1.83
iter:   6 22:24:15  -343.009200  -0.90  -1.83
iter:   7 22:24:23  -342.810017  -1.94  -1.55
iter:   8 22:24:31  -342.761576  -1.38  -1.85
iter:   9 22:24:39  -342.761249  -1.97  -2.28
Writing to output.gpw (mode='')

iter:  10 22:24:48  -342.763149c -2.65  -2.30
iter:  11 22:24:56  -342.767763c -2.63  -2.25
iter:  12 22:25:04  -342.761554c -2.42  -2.19
iter:  13 22:25:12  -342.760716c -2.96  -2.30
iter:  14 22:25:21  -342.758104c -2.06  -2.32
Writing to output.gpw (mode='')

iter:  15 22:25:29  -342.756460c -2.89  -2.56
iter:  16 22:25:37  -342.756544c -3.25  -2.84
iter:  17 22:25:45  -342.756527c -3.32  -2.88
iter:  18 22:25:54  -342.756522c -3.11  -3.00
iter:  19 22:26:07  -342.756439c -3.65  -3.12
Writing to output.gpw (mode='')

iter:  20 22:26:15  -342.756488c -4.19  -3.16
iter:  21 22:26:23  -342.756415c -3.88  -3.29
iter:  22 22:26:32  -342.756439c -4.18  -3.30
iter:  23 22:26:40  -342.756431c -4.93  -3.53
iter:  24 22:26:49  -342.756443c -4.61  -3.59
Writing to output.gpw (mode='')

iter:  25 22:27:03  -342.756435c -5.32  -3.80
iter:  26 22:27:13  -342.756428c -4.99  -3.85
iter:  27 22:27:21  -342.756425c -4.90  -3.86
iter:  28 22:27:29  -342.756424c -5.60  -3.91
iter:  29 22:27:37  -342.756421c -5.49  -4.06c
Writing to output.gpw (mode='')

iter:  30 22:27:46  -342.756429c -5.79  -4.22c
iter:  31 22:27:54  -342.756428c -5.89  -4.30c
iter:  32 22:28:02  -342.756427c -6.13  -4.36c
iter:  33 22:28:10  -342.756424c -6.33  -4.49c
iter:  34 22:28:19  -342.756425c -6.25  -4.65c
Writing to output.gpw (mode='')

iter:  35 22:28:27  -342.756424c -6.57  -4.71c
iter:  36 22:28:35  -342.756425c -6.56  -4.81c
iter:  37 22:28:43  -342.756424c -6.79  -5.02c
iter:  38 22:28:51  -342.756425c -6.85  -5.12c
iter:  39 22:29:00  -342.756424c -6.84  -5.17c
Writing to output.gpw (mode='')

iter:  40 22:29:08  -342.756425c -7.02  -5.25c
iter:  41 22:29:16  -342.756424c -6.84  -5.26c
iter:  42 22:29:24  -342.756424c -7.10  -5.28c
iter:  43 22:29:33  -342.756423c -7.57c -5.33c

Converged after 43 iterations.

Dipole moment: (-0.126744, -17.027815, -0.386333) |e|*Ang

Energy contributions relative to reference atoms: (reference = -17528.314784)

Kinetic:       +232.642494
Potential:     -210.718867
External:        +0.000000
XC:            -365.721422
Entropy (-ST):   -0.152304
Local:           +1.117523
--------------------------
Free energy:   -342.832575
Extrapolated:  -342.756423

Dipole-layer corrected work functions: 3.396265, 4.138929 eV

Showing only first 2 kpts
 Kpt  Band  Eigenvalues  Occupancy
  0    37     -4.01347    1.98547
  0    38     -3.89590    1.85728
  0    39     -3.61702    0.09382
  0    40     -3.55108    0.02598

  1    37     -3.84487    1.64851
  1    38     -3.76167    0.94079
  1    39     -3.74121    0.74212
  1    40     -3.64647    0.16294


Fermi level: -3.76760

No gap
Writing to output.gpw (mode='')


Forces in eV/Ang:
  0 Li    0.02936    0.00039   -0.27553
  1 Li   -0.02936    0.00041   -0.27557
  2 Li    0.00002   -0.00107   -0.28074
  3 Li   -0.00002   -0.00316   -0.27618
  4 Li    0.00001   -0.00314   -0.27624
  5 Li   -0.00001    0.02503   -0.26914
  6 Li   -0.00101    0.00340   -0.27690
  7 Li    0.00102    0.00339   -0.27681
  8 Li    0.00000   -0.02434   -0.26979
  9 Li   -0.00084    0.00096    0.28791
 10 Li   -0.00011    0.00497    0.24367
 11 Li    0.00090    0.00100    0.28799
 12 Li   -0.00103   -0.00167    0.29016
 13 Li   -0.00002   -0.00414    0.24039
 14 Li    0.00106   -0.00172    0.29024
 15 Li   -0.00989    0.00135    0.25143
 16 Li    0.00004   -0.00181    0.26179
 17 Li    0.00985    0.00129    0.25135
 18 Li    0.00225    0.00078    0.03632
 19 Li   -0.00243    0.00072    0.03595
 20 Li    0.00007   -0.00082   -0.16717
 21 Li   -0.01094   -0.01227    0.04455
 22 Li    0.01092   -0.01229    0.04438
 23 Li   -0.00001   -0.00704    0.03961
 24 Li   -0.00947    0.01066    0.04382
 25 Li    0.00957    0.01080    0.04400
 26 Li   -0.00007    0.00839    0.04823
 27 Li    0.01188   -0.04574   -0.00524
 28 Li   -0.00010    0.02191   -0.02076
 29 Li   -0.01135   -0.04515   -0.00469
 30 Li    0.00558    0.03472    0.02768
 31 Li   -0.00017   -0.02290   -0.02164
 32 Li   -0.00514    0.03419    0.02874
 33 Li   -0.02073    0.00493   -0.01286
 34 Li   -0.00005    0.00151   -0.01868
 35 Li    0.02077    0.00501   -0.01274
 36 O    -0.02581   -0.04960   15.87045
 37 O     0.01323   -0.06320    0.18149
 38 C     0.01477   -0.33908    1.21587
 39 C    -0.01054   -0.28922    3.28855
 40 C    -0.00042    0.13206    0.26078
 41 H    -0.02513   -0.08628   -0.02625
 42 H     0.03226   -0.06247   -0.03211
 43 H     0.03563   -0.03999    0.08242
 44 H    -0.05124   -0.05009    0.06755
 45 H    -0.02085    0.01443    0.01611
 46 H     0.03785    0.01835    0.00582
 47 H     0.08590   -7.65724    6.62899
 48 H    -0.01397   -0.02497    0.02307
 49 N    -0.03174    0.18397  -11.48911
 50 N    -0.01869    8.20817  -16.09372

System changes: positions 

Initializing position-dependent things.

Density initialized from wave functions
       .-----------------------.  
      /|                       |  
     / |                       |  
    /  |                       |  
   /   |                       |  
  /    |                       |  
 *     |                       |  
 |     |                       |  
 |     |                       |  
 |     |                       |  
 |     |              O H      |  
 |     |                       |  
 |     |           H  CH       |  
 |     |            H C  H     |  
 |     |                       |  
 |     |             C H       |  
 |     Li          H  OLi      |  
 |     |              H        |  
 |     |     Li      LN      Li|  
 |     |              N        |  
 | Li  |  LLi     LLi     Li   |  
 |     |                       |  
 |     |LLi     Li      Li     |  
 |   Li|     Li      Li        |  
 |    Li  Li  Li  Li  Li  Li   |  
 | Li  |   Li      Li          |  
 |     |Li      Li      Li     |  
 Li    | Li      Li            |  
 |    Li      Li      Li       |  
 |     |                       |  
 |     |                       |  
 |     |                       |  
 |     |                       |  
 |     |                       |  
 |     |                       |  
 |     .-----------------------.  
 |    /                       /   
 |   /                       /    
 |  /                       /     
 | /                       /      
 |/                       /       
 *-----------------------*        

Positions:
   0 Li     1.617037    1.617037   10.000000    ( 0.0000,  0.0000,  0.0000)
   1 Li     4.851111    1.617037   10.000000    ( 0.0000,  0.0000,  0.0000)
   2 Li     8.085185    1.617037   10.000000    ( 0.0000,  0.0000,  0.0000)
   3 Li     1.617037    4.851111   10.000000    ( 0.0000,  0.0000,  0.0000)
   4 Li     4.851111    4.851111   10.000000    ( 0.0000,  0.0000,  0.0000)
   5 Li     8.085185    4.851111   10.000000    ( 0.0000,  0.0000,  0.0000)
   6 Li     1.617037    8.085185   10.000000    ( 0.0000,  0.0000,  0.0000)
   7 Li     4.851111    8.085185   10.000000    ( 0.0000,  0.0000,  0.0000)
   8 Li     8.085185    8.085185   10.000000    ( 0.0000,  0.0000,  0.0000)
   9 Li     0.000000    0.000000   11.617037    ( 0.0000,  0.0000,  0.0000)
  10 Li     3.234074    0.000000   11.617037    ( 0.0000,  0.0000,  0.0000)
  11 Li     6.468148    0.000000   11.617037    ( 0.0000,  0.0000,  0.0000)
  12 Li     0.000000    3.234074   11.617037    ( 0.0000,  0.0000,  0.0000)
  13 Li     3.234074    3.234074   11.617037    ( 0.0000,  0.0000,  0.0000)
  14 Li     6.468148    3.234074   11.617037    ( 0.0000,  0.0000,  0.0000)
  15 Li     0.000000    6.468148   11.617037    ( 0.0000,  0.0000,  0.0000)
  16 Li     3.234074    6.468148   11.617037    ( 0.0000,  0.0000,  0.0000)
  17 Li     6.468148    6.468148   11.617037    ( 0.0000,  0.0000,  0.0000)
  18 Li     1.617082    1.617042   13.470052    ( 0.0000,  0.0000,  0.0000)
  19 Li     4.851065    1.617042   13.470050    ( 0.0000,  0.0000,  0.0000)
  20 Li     8.085185    1.617031   13.468213    ( 0.0000,  0.0000,  0.0000)
  21 Li     1.616936    4.850995   13.470140    ( 0.0000,  0.0000,  0.0000)
  22 Li     4.851213    4.850995   13.470139    ( 0.0000,  0.0000,  0.0000)
  23 Li     8.085184    4.851033   13.470132    ( 0.0000,  0.0000,  0.0000)
  24 Li     1.616944    8.085285   13.470136    ( 0.0000,  0.0000,  0.0000)
  25 Li     4.851206    8.085286   13.470140    ( 0.0000,  0.0000,  0.0000)
  26 Li     8.085183    8.085270   13.470190    ( 0.0000,  0.0000,  0.0000)
  27 Li     0.000200   -0.000476   15.445800    ( 0.0000,  0.0000,  0.0000)
  28 Li     3.234073    0.000201   15.445739    ( 0.0000,  0.0000,  0.0000)
  29 Li     6.467955   -0.000469   15.445807    ( 0.0000,  0.0000,  0.0000)
  30 Li     0.000154    3.234456   15.446084    ( 0.0000,  0.0000,  0.0000)
  31 Li     3.234075    3.233864   15.445735    ( 0.0000,  0.0000,  0.0000)
  32 Li     6.467994    3.234456   15.446091    ( 0.0000,  0.0000,  0.0000)
  33 Li    -0.000209    6.468183   15.445838    ( 0.0000,  0.0000,  0.0000)
  34 Li     3.234076    6.468164   15.445768    ( 0.0000,  0.0000,  0.0000)
  35 Li     6.468355    6.468181   15.445838    ( 0.0000,  0.0000,  0.0000)
  36 O      8.085064    1.598464   19.786683    ( 0.0000,  0.0000,  0.0000)
  37 O      8.091423    1.596117   24.510260    ( 0.0000,  0.0000,  0.0000)
  38 C      8.070907    1.610454   22.054124    ( 0.0000,  0.0000,  0.0000)
  39 C      8.082186    0.751211   20.822033    ( 0.0000,  0.0000,  0.0000)
  40 C      8.094650    0.787202   23.326556    ( 0.0000,  0.0000,  0.0000)
  41 H      8.945294    2.275267   22.019394    ( 0.0000,  0.0000,  0.0000)
  42 H      7.182904    2.252091   22.041284    ( 0.0000,  0.0000,  0.0000)
  43 H      8.976484    0.108491   20.786368    ( 0.0000,  0.0000,  0.0000)
  44 H      7.194833    0.099967   20.777611    ( 0.0000,  0.0000,  0.0000)
  45 H      8.961888    0.109714   23.325305    ( 0.0000,  0.0000,  0.0000)
  46 H      7.194836    0.169246   23.401365    ( 0.0000,  0.0000,  0.0000)
  47 H      8.090434    1.048894   18.893502    ( 0.0000,  0.0000,  0.0000)
  48 H      8.865656    2.171480   24.475874    ( 0.0000,  0.0000,  0.0000)
  49 N      8.084702    1.617586   17.082188    ( 0.0000,  0.0000,  0.0000)
  50 N      8.085102    1.662401   18.175287    ( 0.0000,  0.0000,  0.0000)

Unit cell:
           periodic     x           y           z      points  spacing
  1. axis:    yes    9.702222    0.000000    0.000000    60     0.1617
  2. axis:    yes    0.000000    9.702222    0.000000    60     0.1617
  3. axis:    no     0.000000    0.000000   28.601111   180     0.1589

  Lengths:   9.702222   9.702222  28.601111
  Angles:   90.000000  90.000000  90.000000

Effective grid spacing dv^(1/3) = 0.1608

     iter     time        total  log10-change:
                         energy  eigst   dens
iter:   1 22:29:43  -344.253411  -0.75
iter:   2 22:29:51  -344.222701  -1.36  -1.87
iter:   3 22:29:59  -344.185415  -1.58  -1.86
iter:   4 22:30:07  -344.159026  -1.40  -1.97
Writing to output.gpw (mode='')

iter:   5 22:30:16  -344.146964c -1.96  -2.11
iter:   6 22:30:24  -344.146993c -1.78  -2.42
iter:   7 22:30:32  -344.144921c -2.27  -2.36
iter:   8 22:30:40  -344.144743c -2.46  -2.51
iter:   9 22:30:48  -344.144266c -2.83  -2.80
Writing to output.gpw (mode='')

iter:  10 22:31:02  -344.144087c -3.24  -2.91
iter:  11 22:31:11  -344.143918c -3.12  -2.98
iter:  12 22:31:19  -344.144209c -3.43  -3.19
iter:  13 22:31:27  -344.144225c -3.99  -3.23
iter:  14 22:31:35  -344.144090c -3.79  -3.24
Writing to output.gpw (mode='')

iter:  15 22:31:44  -344.144027c -4.14  -3.41
iter:  16 22:31:52  -344.144093c -4.29  -3.53
iter:  17 22:32:00  -344.144068c -4.28  -3.55
iter:  18 22:32:08  -344.144001c -4.47  -3.63
iter:  19 22:32:16  -344.144020c -4.94  -3.74
Writing to output.gpw (mode='')

iter:  20 22:32:25  -344.144033c -4.89  -3.91
iter:  21 22:32:33  -344.144031c -5.24  -4.01c
iter:  22 22:32:41  -344.144026c -5.58  -4.08c
iter:  23 22:32:49  -344.144034c -5.39  -4.17c
iter:  24 22:32:57  -344.144032c -5.66  -4.30c
Writing to output.gpw (mode='')

iter:  25 22:33:06  -344.144030c -5.89  -4.38c
iter:  26 22:33:14  -344.144032c -6.11  -4.53c
iter:  27 22:33:22  -344.144037c -6.03  -4.69c
iter:  28 22:33:30  -344.144035c -6.46  -4.80c
iter:  29 22:33:38  -344.144036c -6.51  -4.86c
Writing to output.gpw (mode='')

iter:  30 22:33:46  -344.144034c -6.45  -4.89c
iter:  31 22:33:55  -344.144036c -6.72  -4.97c
iter:  32 22:34:03  -344.144036c -6.98  -5.02c
iter:  33 22:34:11  -344.144037c -7.16  -5.04c
iter:  34 22:34:19  -344.144035c -7.06  -5.19c
Writing to output.gpw (mode='')

iter:  35 22:34:27  -344.144036c -7.23  -5.31c
iter:  36 22:34:36  -344.144036c -7.46c -5.43c

Converged after 36 iterations.

Dipole moment: (-0.157867, -17.018831, -0.383557) |e|*Ang

Energy contributions relative to reference atoms: (reference = -17528.314784)

Kinetic:       +226.804646
Potential:     -206.975360
External:        +0.000000
XC:            -365.016867
Entropy (-ST):   -0.152701
Local:           +1.119895
--------------------------
Free energy:   -344.220386
Extrapolated:  -344.144036

Dipole-layer corrected work functions: 3.395857, 4.133185 eV

Showing only first 2 kpts
 Kpt  Band  Eigenvalues  Occupancy
  0    37     -4.01067    1.98555
  0    38     -3.89106    1.85255
  0    39     -3.61611    0.09777
  0    40     -3.54996    0.02701

  1    37     -3.84071    1.64219
  1    38     -3.75919    0.94671
  1    39     -3.73853    0.74581
  1    40     -3.64073    0.15515


Fermi level: -3.76452

No gap
Writing to output.gpw (mode='')


Forces in eV/Ang:
  0 Li    0.02947    0.00044   -0.27561
  1 Li   -0.02947    0.00046   -0.27564
  2 Li    0.00002   -0.00024   -0.28087
  3 Li   -0.00008   -0.00353   -0.27654
  4 Li    0.00006   -0.00351   -0.27660
  5 Li   -0.00001    0.02534   -0.26924
  6 Li   -0.00110    0.00267   -0.27659
  7 Li    0.00111    0.00267   -0.27649
  8 Li    0.00001   -0.02494   -0.27046
  9 Li   -0.00260    0.00189    0.29084
 10 Li   -0.00010    0.00434    0.24269
 11 Li    0.00264    0.00192    0.29091
 12 Li   -0.00023   -0.00165    0.28919
 13 Li   -0.00001   -0.00518    0.24146
 14 Li    0.00026   -0.00169    0.28926
 15 Li   -0.00983   -0.00062    0.25087
 16 Li    0.00004    0.00134    0.26163
 17 Li    0.00980   -0.00069    0.25081
 18 Li    0.00244   -0.00006    0.03538
 19 Li   -0.00260   -0.00013    0.03505
 20 Li    0.00006    0.00333   -0.16678
 21 Li   -0.01019   -0.01155    0.04403
 22 Li    0.01017   -0.01155    0.04384
 23 Li   -0.00000   -0.00885    0.03998
 24 Li   -0.01089    0.01223    0.04506
 25 Li    0.01099    0.01236    0.04524
 26 Li   -0.00007    0.00521    0.04499
 27 Li    0.00220   -0.03523    0.00601
 28 Li   -0.00008    0.02173   -0.02119
 29 Li   -0.00162   -0.03461    0.00658
 30 Li    0.00464    0.03442    0.02965
 31 Li   -0.00016   -0.02300   -0.02163
 32 Li   -0.00430    0.03399    0.03059
 33 Li   -0.02029    0.00615   -0.01405
 34 Li   -0.00005    0.00085   -0.01876
 35 Li    0.02034    0.00624   -0.01392
 36 O    -0.01875   -0.39413   12.69217
 37 O     0.01510   -0.05995    0.18586
 38 C     0.01030   -0.22832    1.22366
 39 C    -0.01010   -0.80697    3.25975
 40 C     0.00286    0.09165    0.32448
 41 H    -0.02877   -0.09152   -0.00906
 42 H     0.03587   -0.06746   -0.01425
 43 H     0.05665   -0.12818    0.21962
 44 H    -0.06986   -0.13522    0.20389
 45 H    -0.02481    0.01857    0.02094
 46 H     0.03854    0.01928    0.01114
 47 H     0.06311   -5.69745    5.79794
 48 H    -0.01441   -0.02384    0.02708
 49 N    -0.03172   -0.42366   -8.32416
 50 N    -0.01451    7.80297  -15.61843

System changes: positions 

Initializing position-dependent things.

Density initialized from wave functions
       .-----------------------.  
      /|                       |  
     / |                       |  
    /  |                       |  
   /   |                       |  
  /    |                       |  
 *     |                       |  
 |     |                       |  
 |     |                       |  
 |     |                       |  
 |     |              O H      |  
 |     |                       |  
 |     |           H  CH       |  
 |     |            H C  H     |  
 |     |                       |  
 |     |             C H       |  
 |     Li          H  OLi      |  
 |     |              H        |  
 |     |     Li      LN      Li|  
 |     |              N        |  
 | Li  |  LLi     LLi     Li   |  
 |     |                       |  
 |     |LLi     Li      Li     |  
 |   Li|     Li      Li        |  
 |    Li  Li  Li  Li  Li  Li   |  
 | Li  |   Li      Li          |  
 |     |Li      Li      Li     |  
 Li    | Li      Li            |  
 |    Li      Li      Li       |  
 |     |                       |  
 |     |                       |  
 |     |                       |  
 |     |                       |  
 |     |                       |  
 |     |                       |  
 |     .-----------------------.  
 |    /                       /   
 |   /                       /    
 |  /                       /     
 | /                       /      
 |/                       /       
 *-----------------------*        

Positions:
   0 Li     1.617037    1.617037   10.000000    ( 0.0000,  0.0000,  0.0000)
   1 Li     4.851111    1.617037   10.000000    ( 0.0000,  0.0000,  0.0000)
   2 Li     8.085185    1.617037   10.000000    ( 0.0000,  0.0000,  0.0000)
   3 Li     1.617037    4.851111   10.000000    ( 0.0000,  0.0000,  0.0000)
   4 Li     4.851111    4.851111   10.000000    ( 0.0000,  0.0000,  0.0000)
   5 Li     8.085185    4.851111   10.000000    ( 0.0000,  0.0000,  0.0000)
   6 Li     1.617037    8.085185   10.000000    ( 0.0000,  0.0000,  0.0000)
   7 Li     4.851111    8.085185   10.000000    ( 0.0000,  0.0000,  0.0000)
   8 Li     8.085185    8.085185   10.000000    ( 0.0000,  0.0000,  0.0000)
   9 Li     0.000000    0.000000   11.617037    ( 0.0000,  0.0000,  0.0000)
  10 Li     3.234074    0.000000   11.617037    ( 0.0000,  0.0000,  0.0000)
  11 Li     6.468148    0.000000   11.617037    ( 0.0000,  0.0000,  0.0000)
  12 Li     0.000000    3.234074   11.617037    ( 0.0000,  0.0000,  0.0000)
  13 Li     3.234074    3.234074   11.617037    ( 0.0000,  0.0000,  0.0000)
  14 Li     6.468148    3.234074   11.617037    ( 0.0000,  0.0000,  0.0000)
  15 Li     0.000000    6.468148   11.617037    ( 0.0000,  0.0000,  0.0000)
  16 Li     3.234074    6.468148   11.617037    ( 0.0000,  0.0000,  0.0000)
  17 Li     6.468148    6.468148   11.617037    ( 0.0000,  0.0000,  0.0000)
  18 Li     1.617082    1.617034   13.470241    ( 0.0000,  0.0000,  0.0000)
  19 Li     4.851065    1.617033   13.470238    ( 0.0000,  0.0000,  0.0000)
  20 Li     8.085185    1.617097   13.467368    ( 0.0000,  0.0000,  0.0000)
  21 Li     1.616904    4.850953   13.470349    ( 0.0000,  0.0000,  0.0000)
  22 Li     4.851245    4.850953   13.470347    ( 0.0000,  0.0000,  0.0000)
  23 Li     8.085184    4.850952   13.470358    ( 0.0000,  0.0000,  0.0000)
  24 Li     1.616879    8.085356   13.470373    ( 0.0000,  0.0000,  0.0000)
  25 Li     4.851272    8.085358   13.470378    ( 0.0000,  0.0000,  0.0000)
  26 Li     8.085183    8.085274   13.470406    ( 0.0000,  0.0000,  0.0000)
  27 Li     0.000214   -0.000637   15.445796    ( 0.0000,  0.0000,  0.0000)
  28 Li     3.234073    0.000321   15.445643    ( 0.0000,  0.0000,  0.0000)
  29 Li     6.467944   -0.000628   15.445805    ( 0.0000,  0.0000,  0.0000)
  30 Li     0.000272    3.234733   15.446096    ( 0.0000,  0.0000,  0.0000)
  31 Li     3.234074    3.233737   15.445639    ( 0.0000,  0.0000,  0.0000)
  32 Li     6.467876    3.234733   15.446105    ( 0.0000,  0.0000,  0.0000)
  33 Li    -0.000319    6.468232   15.445771    ( 0.0000,  0.0000,  0.0000)
  34 Li     3.234076    6.468158   15.445671    ( 0.0000,  0.0000,  0.0000)
  35 Li     6.468466    6.468231   15.445772    ( 0.0000,  0.0000,  0.0000)
  36 O      8.085084    1.590666   19.808952    ( 0.0000,  0.0000,  0.0000)
  37 O      8.091509    1.595837   24.511104    ( 0.0000,  0.0000,  0.0000)
  38 C      8.070911    1.610557   22.060218    ( 0.0000,  0.0000,  0.0000)
  39 C      8.082159    0.741171   20.838622    ( 0.0000,  0.0000,  0.0000)
  40 C      8.094697    0.787174   23.328801    ( 0.0000,  0.0000,  0.0000)
  41 H      8.945117    2.274775   22.019518    ( 0.0000,  0.0000,  0.0000)
  42 H      7.183116    2.251721   22.041389    ( 0.0000,  0.0000,  0.0000)
  43 H      8.976948    0.106965   20.788874    ( 0.0000,  0.0000,  0.0000)
  44 H      7.194322    0.098436   20.780027    ( 0.0000,  0.0000,  0.0000)
  45 H      8.961717    0.109861   23.325451    ( 0.0000,  0.0000,  0.0000)
  46 H      7.195042    0.169360   23.401467    ( 0.0000,  0.0000,  0.0000)
  47 H      8.090343    1.057938   18.905091    ( 0.0000,  0.0000,  0.0000)
  48 H      8.865589    2.171375   24.476054    ( 0.0000,  0.0000,  0.0000)
  49 N      8.084619    1.607925   17.052526    ( 0.0000,  0.0000,  0.0000)
  50 N      8.085157    1.683703   18.141431    ( 0.0000,  0.0000,  0.0000)

Unit cell:
           periodic     x           y           z      points  spacing
  1. axis:    yes    9.702222    0.000000    0.000000    60     0.1617
  2. axis:    yes    0.000000    9.702222    0.000000    60     0.1617
  3. axis:    no     0.000000    0.000000   28.601111   180     0.1589

  Lengths:   9.702222   9.702222  28.601111
  Angles:   90.000000  90.000000  90.000000

Effective grid spacing dv^(1/3) = 0.1608

     iter     time        total  log10-change:
                         energy  eigst   dens
iter:   1 22:34:46  -345.456634  -0.89
iter:   2 22:34:54  -345.396320  -1.16  -1.78
iter:   3 22:35:02  -345.376420  -1.79  -1.87
iter:   4 22:35:10  -345.380721c -1.16  -2.22
Writing to output.gpw (mode='')

iter:   5 22:35:19  -345.387709c -1.76  -2.08
iter:   6 22:35:27  -345.397661c -1.75  -2.02
iter:   7 22:35:37  -345.365613c -2.12  -1.97
iter:   8 22:35:45  -345.365614c -2.85  -2.47
iter:   9 22:35:53  -345.365934c -3.19  -2.51
Writing to output.gpw (mode='')

iter:  10 22:36:06  -345.362856c -3.05  -2.48
iter:  11 22:36:14  -345.366234c -2.28  -2.60
iter:  12 22:36:23  -345.363469c -2.30  -2.38
iter:  13 22:36:31  -345.362584c -3.34  -2.67
iter:  14 22:36:39  -345.362137c -3.26  -2.86
Writing to output.gpw (mode='')

iter:  15 22:36:47  -345.362260c -3.19  -2.95
iter:  16 22:36:55  -345.362368c -3.51  -3.03
iter:  17 22:37:04  -345.362281c -4.21  -3.10
iter:  18 22:37:12  -345.362215c -4.06  -3.19
iter:  19 22:37:20  -345.362194c -4.29  -3.51
Writing to output.gpw (mode='')

iter:  20 22:37:28  -345.362225c -4.87  -3.60
iter:  21 22:37:37  -345.362147c -4.87  -3.54
iter:  22 22:37:45  -345.362150c -4.85  -3.84
iter:  23 22:37:53  -345.362166c -5.22  -3.93
iter:  24 22:38:01  -345.362172c -5.50  -4.00
Writing to output.gpw (mode='')

iter:  25 22:38:10  -345.362180c -5.57  -4.06c
iter:  26 22:38:18  -345.362169c -5.37  -4.08c
iter:  27 22:38:26  -345.362185c -5.81  -4.06c
iter:  28 22:38:34  -345.362174c -6.26  -4.36c
iter:  29 22:38:43  -345.362175c -6.45  -4.54c
Writing to output.gpw (mode='')

iter:  30 22:38:51  -345.362177c -6.50  -4.57c
iter:  31 22:38:59  -345.362177c -6.49  -4.72c
iter:  32 22:39:07  -345.362177c -6.58  -4.84c
iter:  33 22:39:16  -345.362177c -6.73  -4.89c
iter:  34 22:39:24  -345.362177c -6.85  -5.05c
Writing to output.gpw (mode='')

iter:  35 22:39:32  -345.362177c -6.96  -5.18c
iter:  36 22:39:40  -345.362177c -7.15  -5.21c
iter:  37 22:39:49  -345.362177c -7.05  -5.27c
iter:  38 22:39:57  -345.362177c -7.13  -5.38c
iter:  39 22:40:05  -345.362177c -7.36  -5.42c
Writing to output.gpw (mode='')

iter:  40 22:40:13  -345.362177c -7.43c -5.45c

Converged after 40 iterations.

Dipole moment: (-0.133495, -17.109944, -0.365443) |e|*Ang

Energy contributions relative to reference atoms: (reference = -17528.314784)

Kinetic:       +222.972963
Potential:     -204.794129
External:        +0.000000
XC:            -364.590264
Entropy (-ST):   -0.151534
Local:           +1.125019
--------------------------
Free energy:   -345.437944
Extrapolated:  -345.362177

Dipole-layer corrected work functions: 3.394621, 4.097127 eV

Showing only first 2 kpts
 Kpt  Band  Eigenvalues  Occupancy
  0    37     -3.99260    1.98571
  0    38     -3.87356    1.85564
  0    39     -3.59058    0.08573
  0    40     -3.53354    0.02822

  1    37     -3.81972    1.62822
  1    38     -3.74208    0.96211
  1    39     -3.72147    0.76072
  1    40     -3.62222    0.15553


Fermi level: -3.74587

No gap

Forces in eV/Ang:
  0 Li    0.02963    0.00059   -0.27531
  1 Li   -0.02962    0.00061   -0.27534
  2 Li    0.00001    0.00037   -0.28044
  3 Li   -0.00028   -0.00425   -0.27681
  4 Li    0.00026   -0.00424   -0.27688
  5 Li   -0.00001    0.02604   -0.26907
  6 Li   -0.00167    0.00194   -0.27615
  7 Li    0.00168    0.00194   -0.27606
  8 Li    0.00001   -0.02572   -0.27130
  9 Li   -0.00406    0.00237    0.29256
 10 Li   -0.00009    0.00420    0.24254
 11 Li    0.00409    0.00239    0.29261
 12 Li    0.00081   -0.00144    0.28694
 13 Li    0.00000   -0.00617    0.24288
 14 Li   -0.00079   -0.00147    0.28699
 15 Li   -0.00967   -0.00247    0.25042
 16 Li    0.00003    0.00441    0.26210
 17 Li    0.00964   -0.00255    0.25036
 18 Li    0.00096   -0.00077    0.03710
 19 Li   -0.00111   -0.00084    0.03681
 20 Li    0.00005    0.00795   -0.16583
 21 Li   -0.00959   -0.01011    0.04353
 22 Li    0.00956   -0.01010    0.04333
 23 Li    0.00000   -0.01159    0.04219
 24 Li   -0.01139    0.01334    0.04547
 25 Li    0.01149    0.01348    0.04565
 26 Li   -0.00007    0.00307    0.04406
 27 Li    0.00658   -0.03675   -0.00207
 28 Li   -0.00007    0.02301   -0.01987
 29 Li   -0.00595   -0.03607   -0.00148
 30 Li    0.01800    0.04604    0.01095
 31 Li   -0.00015   -0.02432   -0.02008
 32 Li   -0.01773    0.04568    0.01181
 33 Li   -0.02160    0.00811   -0.01383
 34 Li   -0.00005   -0.00032   -0.01859
 35 Li    0.02165    0.00819   -0.01371
 36 O    -0.01297   -0.66446    9.61157
 37 O     0.01722   -0.05483    0.21827
 38 C     0.00568   -0.24071    1.17837
 39 C    -0.00839   -0.77783    2.80352
 40 C     0.00607    0.09507    0.37802
 41 H    -0.02238   -0.09493    0.00267
 42 H     0.02814   -0.07024   -0.00062
 43 H     0.11709   -0.25512    0.34127
 44 H    -0.12975   -0.26087    0.32592
 45 H    -0.01977    0.01413    0.03058
 46 H     0.03123    0.01335    0.02187
 47 H     0.04459   -3.94443    5.21332
 48 H    -0.01560   -0.02357    0.03088
 49 N    -0.02121   -0.85366   -8.04773
 50 N    -0.00730    7.01279  -12.10874

System changes: positions 

Initializing position-dependent things.

Density initialized from wave functions
       .-----------------------.  
      /|                       |  
     / |                       |  
    /  |                       |  
   /   |                       |  
  /    |                       |  
 *     |                       |  
 |     |                       |  
 |     |                       |  
 |     |                       |  
 |     |              O H      |  
 |     |                       |  
 |     |           H  CH       |  
 |     |            H C  H     |  
 |     |                       |  
 |     |             C H       |  
 |     Li          H  OLi      |  
 |     |              H        |  
 |     |     Li      LN      Li|  
 |     |              N        |  
 | Li  |  LLi     LLi     Li   |  
 |     |                       |  
 |     |LLi     Li      Li     |  
 |   Li|     Li      Li        |  
 |    Li  Li  Li  Li  Li  Li   |  
 | Li  |   Li      Li          |  
 |     |Li      Li      Li     |  
 Li    | Li      Li            |  
 |    Li      Li      Li       |  
 |     |                       |  
 |     |                       |  
 |     |                       |  
 |     |                       |  
 |     |                       |  
 |     |                       |  
 |     .-----------------------.  
 |    /                       /   
 |   /                       /    
[...]
Extrapolated:  -353.444391

Dipole-layer corrected work functions: 3.401399, 3.813456 eV

Showing only first 2 kpts
 Kpt  Band  Eigenvalues  Occupancy
  0    37     -3.83206    1.97787
  0    38     -3.65186    1.41720
  0    39     -3.57990    0.73143
  0    40     -3.39228    0.02669

  1    37     -3.85393    1.98565
  1    38     -3.75345    1.89769
  1    39     -3.54836    0.46963
  1    40     -3.36175    0.01458


Fermi level: -3.60743

No gap
Writing to output.gpw (mode='')


Forces in eV/Ang:
  0 Li   -0.00270    0.01048   -0.29696
  1 Li    0.00503   -0.00911   -0.29648
  2 Li    0.00042    0.00013   -0.25933
  3 Li    0.00829    0.00733   -0.29029
  4 Li   -0.01345    0.01457   -0.28597
  5 Li    0.01036   -0.00257   -0.29711
  6 Li    0.01414   -0.01304   -0.28701
  7 Li   -0.00640   -0.00554   -0.29341
  8 Li   -0.00977    0.00552   -0.29687
  9 Li   -0.05777    0.05028    0.29264
 10 Li   -0.01465    0.02394    0.29782
 11 Li    0.04282    0.03963    0.33762
 12 Li   -0.05272   -0.04776    0.33729
 13 Li    0.00997   -0.02739    0.29222
 14 Li    0.04835   -0.05676    0.29008
 15 Li   -0.02724    0.00669    0.30152
 16 Li   -0.00328   -0.00711    0.30638
 17 Li    0.02210   -0.02221    0.30241
 18 Li   -0.00002   -0.00932    0.00598
 19 Li    0.00040    0.00734   -0.00068
 20 Li    0.00079    0.01969    0.00198
 21 Li   -0.00282    0.00102   -0.00145
 22 Li    0.00137    0.00753    0.00073
 23 Li   -0.00204   -0.00350   -0.00084
 24 Li    0.00290   -0.00509    0.00640
 25 Li   -0.00218   -0.00396   -0.00105
 26 Li    0.00330   -0.01415   -0.01133
 27 Li    0.00742    0.00438   -0.00147
 28 Li    0.00746   -0.00193    0.00119
 29 Li   -0.03702   -0.02013   -0.00185
 30 Li   -0.02000   -0.02892    0.00365
 31 Li   -0.00214    0.00564   -0.00405
 32 Li   -0.00090    0.02070   -0.01162
 33 Li   -0.00600   -0.00341   -0.00386
 34 Li    0.00091   -0.00185    0.00092
 35 Li    0.00608    0.01025    0.00170
 36 O    -0.01384   -0.02547   -0.03822
 37 O    -0.00048    0.00509    0.00313
 38 C     0.00454   -0.03296   -0.00814
 39 C    -0.00047   -0.01556   -0.01141
 40 C    -0.00075    0.00820    0.00567
 41 H    -0.00792    0.00731    0.00210
 42 H     0.00727   -0.00018   -0.00177
 43 H     0.00987   -0.00261   -0.01337
 44 H    -0.01573    0.00858   -0.03094
 45 H     0.01000    0.00702    0.00007
 46 H    -0.00497   -0.00081   -0.02795
 47 H    -0.00640    0.01060   -0.00947
 48 H     0.00266   -0.00717    0.01165
 49 N     0.05587   -0.00103   -0.00498
 50 N     0.03237    0.03501   -0.03775

System changes: positions 

Initializing position-dependent things.

Density initialized from wave functions
       .-----------------------.  
      /|                       |  
     / |                       |  
    /  |                       |  
   /   |                       |  
  /    |                       |  
 *     |                       |  
 |     |                       |  
 |     |                       |  
 |     |                H      |  
 |     |              O        |  
 |     |                       |  
 |     |           HH CH H     |  
 |     |              C        |  
 |     |                       |  
 |     |           H  CH       |  
 |     |       Li     OLi      |  
 |     |              H        |  
 |   Li|     Li      Li        |  
 |     |  Li              Li   |  
 | Li  |   Li     LLi          |  
 |     |Li           N NLi     |  
 |     |        Li       Li    |  
 |   LLi     LLi     LLi       |  
 |     |  Li      Li      Li   |  
 | Li  |   Li      Li          |  
 |     |Li      Li      Li     |  
 Li    | Li      Li            |  
 |    Li      Li      Li       |  
 |     |                       |  
 |     |                       |  
 |     |                       |  
 |     |                       |  
 |     |                       |  
 |     |                       |  
 |     .-----------------------.  
 |    /                       /   
 |   /                       /    
 |  /                       /     
 | /                       /      
 |/                       /       
 *-----------------------*        

Positions:
   0 Li     1.617037    1.617037   10.000000    ( 0.0000,  0.0000,  0.0000)
   1 Li     4.851111    1.617037   10.000000    ( 0.0000,  0.0000,  0.0000)
   2 Li     8.085185    1.617037   10.000000    ( 0.0000,  0.0000,  0.0000)
   3 Li     1.617037    4.851111   10.000000    ( 0.0000,  0.0000,  0.0000)
   4 Li     4.851111    4.851111   10.000000    ( 0.0000,  0.0000,  0.0000)
   5 Li     8.085185    4.851111   10.000000    ( 0.0000,  0.0000,  0.0000)
   6 Li     1.617037    8.085185   10.000000    ( 0.0000,  0.0000,  0.0000)
   7 Li     4.851111    8.085185   10.000000    ( 0.0000,  0.0000,  0.0000)
   8 Li     8.085185    8.085185   10.000000    ( 0.0000,  0.0000,  0.0000)
   9 Li     0.000000    0.000000   11.617037    ( 0.0000,  0.0000,  0.0000)
  10 Li     3.234074    0.000000   11.617037    ( 0.0000,  0.0000,  0.0000)
  11 Li     6.468148    0.000000   11.617037    ( 0.0000,  0.0000,  0.0000)
  12 Li     0.000000    3.234074   11.617037    ( 0.0000,  0.0000,  0.0000)
  13 Li     3.234074    3.234074   11.617037    ( 0.0000,  0.0000,  0.0000)
  14 Li     6.468148    3.234074   11.617037    ( 0.0000,  0.0000,  0.0000)
  15 Li     0.000000    6.468148   11.617037    ( 0.0000,  0.0000,  0.0000)
  16 Li     3.234074    6.468148   11.617037    ( 0.0000,  0.0000,  0.0000)
  17 Li     6.468148    6.468148   11.617037    ( 0.0000,  0.0000,  0.0000)
  18 Li     1.592243    1.674727   13.513705    ( 0.0000,  0.0000,  0.0000)
  19 Li     4.863075    1.557221   13.527076    ( 0.0000,  0.0000,  0.0000)
  20 Li     8.068053    1.596837   13.657432    ( 0.0000,  0.0000,  0.0000)
  21 Li     1.647366    4.877101   13.507746    ( 0.0000,  0.0000,  0.0000)
  22 Li     4.915924    4.759951   13.504977    ( 0.0000,  0.0000,  0.0000)
  23 Li     8.130749    4.822541   13.523825    ( 0.0000,  0.0000,  0.0000)
  24 Li     1.540140    8.158604   13.493239    ( 0.0000,  0.0000,  0.0000)
  25 Li     4.821301    8.049095   13.497900    ( 0.0000,  0.0000,  0.0000)
  26 Li     8.031675    8.095815   13.527498    ( 0.0000,  0.0000,  0.0000)
  27 Li    -0.255499    0.222511   15.618497    ( 0.0000,  0.0000,  0.0000)
  28 Li     3.063536   -0.047440   15.442499    ( 0.0000,  0.0000,  0.0000)
  29 Li     6.343643   -0.161688   15.546830    ( 0.0000,  0.0000,  0.0000)
  30 Li     0.101505    3.339868   15.564354    ( 0.0000,  0.0000,  0.0000)
  31 Li     3.380876    3.277512   15.462860    ( 0.0000,  0.0000,  0.0000)
  32 Li     6.697488    2.948629   15.682887    ( 0.0000,  0.0000,  0.0000)
  33 Li     0.056541    6.620258   15.453337    ( 0.0000,  0.0000,  0.0000)
  34 Li     3.236416    6.477213   15.438407    ( 0.0000,  0.0000,  0.0000)
  35 Li     6.412029    6.280414   15.453303    ( 0.0000,  0.0000,  0.0000)
  36 O      8.053655    1.862018   19.854887    ( 0.0000,  0.0000,  0.0000)
  37 O      8.091774    1.386498   24.703332    ( 0.0000,  0.0000,  0.0000)
  38 C      8.092572    1.656310   22.246851    ( 0.0000,  0.0000,  0.0000)
  39 C      8.074796    0.902472   20.925243    ( 0.0000,  0.0000,  0.0000)
  40 C      8.132107    0.704920   23.444632    ( 0.0000,  0.0000,  0.0000)
  41 H      8.969866    2.313062   22.263689    ( 0.0000,  0.0000,  0.0000)
  42 H      7.204882    2.290857   22.317763    ( 0.0000,  0.0000,  0.0000)
  43 H      8.963082    0.261429   20.843598    ( 0.0000,  0.0000,  0.0000)
  44 H      7.190270    0.253416   20.880205    ( 0.0000,  0.0000,  0.0000)
  45 H      9.014839    0.052685   23.388114    ( 0.0000,  0.0000,  0.0000)
  46 H      7.250771    0.059411   23.451594    ( 0.0000,  0.0000,  0.0000)
  47 H      8.022792    1.383126   19.017051    ( 0.0000,  0.0000,  0.0000)
  48 H      8.881860    1.936510   24.774287    ( 0.0000,  0.0000,  0.0000)
  49 N      7.627015    1.138789   15.701890    ( 0.0000,  0.0000,  0.0000)
  50 N      8.516207    2.031823   15.702681    ( 0.0000,  0.0000,  0.0000)

Unit cell:
           periodic     x           y           z      points  spacing
  1. axis:    yes    9.702222    0.000000    0.000000    60     0.1617
  2. axis:    yes    0.000000    9.702222    0.000000    60     0.1617
  3. axis:    no     0.000000    0.000000   28.601111   180     0.1589

  Lengths:   9.702222   9.702222  28.601111
  Angles:   90.000000  90.000000  90.000000

Effective grid spacing dv^(1/3) = 0.1608

     iter     time        total  log10-change:
                         energy  eigst   dens
iter:   1 06:28:55  -353.444921  -2.26
iter:   2 06:29:03  -353.444929  -3.06  -2.86
iter:   3 06:29:12  -353.444969c -3.57  -2.93
iter:   4 06:29:20  -353.444970c -3.98  -2.99
Writing to output.gpw (mode='')

iter:   5 06:29:28  -353.444942c -3.33  -3.01
iter:   6 06:29:36  -353.444982c -3.58  -3.26
iter:   7 06:29:44  -353.444814c -4.42  -3.24
iter:   8 06:29:53  -353.444763c -4.54  -3.54
iter:   9 06:30:01  -353.444783c -4.83  -3.61
Writing to output.gpw (mode='')

iter:  10 06:30:09  -353.444769c -5.09  -3.70
iter:  11 06:30:17  -353.444768c -4.88  -3.83
iter:  12 06:30:25  -353.444775c -5.84  -3.92
iter:  13 06:30:34  -353.444790c -5.58  -4.05c
iter:  14 06:30:42  -353.444785c -5.87  -4.18c
Writing to output.gpw (mode='')

iter:  15 06:30:50  -353.444785c -6.62  -4.28c
iter:  16 06:31:05  -353.444783c -6.27  -4.36c
iter:  17 06:31:13  -353.444780c -6.33  -4.57c
iter:  18 06:31:21  -353.444780c -6.62  -4.53c
iter:  19 06:31:30  -353.444781c -6.58  -4.74c
Writing to output.gpw (mode='')

iter:  20 06:31:38  -353.444782c -7.37  -4.84c
iter:  21 06:31:46  -353.444783c -7.47c -4.92c

Converged after 21 iterations.

Dipole moment: (0.543022, -13.811566, -0.211655) |e|*Ang

Energy contributions relative to reference atoms: (reference = -17528.314784)

Kinetic:       +174.635444
Potential:     -168.634348
External:        +0.000000
XC:            -360.552798
Entropy (-ST):   -0.160165
Local:           +1.187002
--------------------------
Free energy:   -353.524865
Extrapolated:  -353.444783

Dipole-layer corrected work functions: 3.401367, 3.808240 eV

Showing only first 2 kpts
 Kpt  Band  Eigenvalues  Occupancy
  0    37     -3.82963    1.97795
  0    38     -3.64905    1.41569
  0    39     -3.57711    0.72991
  0    40     -3.38986    0.02681

  1    37     -3.85062    1.98545
  1    38     -3.75139    1.89878
  1    39     -3.54602    0.47163
  1    40     -3.35915    0.01459


Fermi level: -3.60480

No gap
Writing to output.gpw (mode='')


Forces in eV/Ang:
  0 Li   -0.00292    0.01039   -0.29681
  1 Li    0.00516   -0.00921   -0.29618
  2 Li    0.00042    0.00012   -0.25921
  3 Li    0.00834    0.00738   -0.29004
  4 Li   -0.01356    0.01455   -0.28606
  5 Li    0.01020   -0.00262   -0.29689
  6 Li    0.01406   -0.01301   -0.28702
  7 Li   -0.00639   -0.00550   -0.29334
  8 Li   -0.00970    0.00561   -0.29651
  9 Li   -0.05776    0.04956    0.29206
 10 Li   -0.01447    0.02313    0.29733
 11 Li    0.04274    0.03885    0.33684
 12 Li   -0.05229   -0.04692    0.33745
 13 Li    0.01147   -0.02721    0.29180
 14 Li    0.04792   -0.05639    0.29009
 15 Li   -0.02640    0.00652    0.30049
 16 Li   -0.00213   -0.00615    0.30618
 17 Li    0.02071   -0.02198    0.30157
 18 Li   -0.00164   -0.00964    0.00784
 19 Li    0.00033    0.00854   -0.00103
 20 Li    0.00059    0.02111   -0.00547
 21 Li   -0.00433    0.00100   -0.00153
 22 Li    0.00116    0.00816    0.00025
 23 Li   -0.00220   -0.00577    0.00023
 24 Li    0.00369   -0.00536    0.00685
 25 Li   -0.00262   -0.00530   -0.00159
 26 Li    0.00338   -0.01270   -0.01087
 27 Li    0.01296    0.00364   -0.00066
 28 Li    0.00913   -0.00234    0.00121
 29 Li   -0.03416   -0.01520   -0.00261
 30 Li   -0.00269   -0.01132    0.00065
 31 Li   -0.00378    0.00612   -0.00466
 32 Li    0.00250    0.01699   -0.01158
 33 Li   -0.00658   -0.00363   -0.00466
 34 Li    0.00130   -0.00200    0.00109
 35 Li    0.00653    0.01113    0.00092
 36 O    -0.02000   -0.00937   -0.02158
 37 O     0.01649    0.01618    0.00736
 38 C     0.00539   -0.03349   -0.00580
 39 C    -0.00430   -0.02237   -0.01439
 40 C    -0.00494    0.00543    0.00158
 41 H    -0.00989    0.00242    0.00757
 42 H     0.01121   -0.00730   -0.00216
 43 H     0.01396   -0.00169   -0.01702
 44 H    -0.02549    0.00229   -0.03771
 45 H     0.00786    0.01599   -0.00061
 46 H     0.00023    0.00846   -0.03542
 47 H    -0.00708   -0.00041   -0.01076
 48 H    -0.01221   -0.01812    0.00812
 49 N     0.02586   -0.01439    0.01261
 50 N     0.00150    0.00899   -0.02397

Timing:                                      incl.     excl.
-------------------------------------------------------------------
Density initialized from wave functions:     8.091     8.089   0.0% |
 Symmetrize density:                         0.002     0.002   0.0% |
Forces:                                     56.564    56.564   0.2% |
Hamiltonian:                               665.377     0.014   0.0% |
 Atomic:                                     0.023     0.023   0.0% |
  XC Correction:                             0.000     0.000   0.0% |
 Calculate atomic Hamiltonians:              0.038     0.038   0.0% |
 Communicate:                               10.778    10.778   0.0% |
 Hartree integrate/restrict:                 2.297     2.297   0.0% |
 Initialize Hamiltonian:                     0.000     0.000   0.0% |
 Poisson:                                   31.315    11.632   0.0% |
  Communicate from 1D:                       3.220     3.220   0.0% |
  Communicate from 2D:                       3.066     3.066   0.0% |
  Communicate to 1D:                         1.679     1.679   0.0% |
  Communicate to 2D:                         3.565     3.565   0.0% |
  FFT 1D:                                    4.021     4.021   0.0% |
  FFT 2D:                                    4.132     4.132   0.0% |
 XC 3D grid:                               620.349   101.035   0.3% |
  VdW-DF integral:                         519.314     4.161   0.0% |
   Convolution:                             45.353    45.353   0.1% |
   FFT:                                     19.892    19.892   0.1% |
   gather:                                 178.547   178.547   0.6% |
   hmm1:                                    16.910    16.910   0.1% |
   hmm2:                                    21.633    21.633   0.1% |
   iFFT:                                    20.269    20.269   0.1% |
   potential:                              208.925     5.632   0.0% |
    collect:                                31.937    31.937   0.1% |
    p1:                                     91.874    91.874   0.3% |
    p2:                                     32.949    32.949   0.1% |
    sum:                                    46.533    46.533   0.1% |
   splines:                                  3.624     3.624   0.0% |
 vbar:                                       0.563     0.563   0.0% |
LCAO initialization:                         1.230     0.182   0.0% |
 LCAO eigensolver:                           0.211     0.000   0.0% |
  Calculate projections:                     0.000     0.000   0.0% |
  DenseAtomicCorrection:                     0.000     0.000   0.0% |
  Distribute overlap matrix:                 0.190     0.190   0.0% |
  Orbital Layouts:                           0.019     0.019   0.0% |
  Potential matrix:                          0.001     0.001   0.0% |
  Sum over cells:                            0.001     0.001   0.0% |
 LCAO to grid:                               0.730     0.730   0.0% |
 Set positions (LCAO WFS):                   0.107     0.065   0.0% |
  Basic WFS set positions:                   0.001     0.001   0.0% |
  Basis functions set positions:             0.000     0.000   0.0% |
  P tci:                                     0.000     0.000   0.0% |
  ST tci:                                    0.011     0.011   0.0% |
  mktci:                                     0.029     0.029   0.0% |
Redistribute:                                0.065     0.065   0.0% |
SCF-cycle:                               30302.310  1152.593   3.7% ||
 Davidson:                                8365.095  2604.822   8.4% |--|
  Apply hamiltonian:                       560.272   560.272   1.8% ||
  Subspace diag:                          1519.963     0.439   0.0% |
   calc_h_matrix:                          825.738   259.158   0.8% |
    Apply hamiltonian:                     566.580   566.580   1.8% ||
   diagonalize:                             24.391    24.391   0.1% |
   rotate_psi:                             669.395   669.395   2.1% ||
  calc. matrices:                         2702.947  1432.756   4.6% |-|
   Apply hamiltonian:                     1270.191  1270.191   4.1% |-|
  diagonalize:                              26.367    26.367   0.1% |
  rotate_psi:                              950.724   950.724   3.1% ||
 Density:                                  151.302     0.106   0.0% |
  Atomic density matrices:                  14.723    14.723   0.0% |
  Mix:                                      63.884    63.884   0.2% |
  Multipole moments:                         8.589     8.589   0.0% |
  Pseudo density:                           64.000    63.905   0.2% |
   Symmetrize density:                       0.095     0.095   0.0% |
 Hamiltonian:                            20611.206     0.433   0.0% |
  Atomic:                                    1.196     1.187   0.0% |
   XC Correction:                            0.009     0.009   0.0% |
  Calculate atomic Hamiltonians:             1.209     1.209   0.0% |
  Communicate:                             303.582   303.582   1.0% |
  Hartree integrate/restrict:               71.867    71.867   0.2% |
  Poisson:                                 996.687   372.473   1.2% |
   Communicate from 1D:                    101.291   101.291   0.3% |
   Communicate from 2D:                     98.648    98.648   0.3% |
   Communicate to 1D:                       54.017    54.017   0.2% |
   Communicate to 2D:                      113.741   113.741   0.4% |
   FFT 1D:                                 126.659   126.659   0.4% |
   FFT 2D:                                 129.859   129.859   0.4% |
  XC 3D grid:                            19217.585  3089.298   9.9% |---|
   VdW-DF integral:                      16128.287   130.544   0.4% |
    Convolution:                          1421.258  1421.258   4.6% |-|
    FFT:                                   626.904   626.904   2.0% ||
    gather:                               5472.041  5472.041  17.6% |------|
    hmm1:                                  530.939   530.939   1.7% ||
    hmm2:                                  680.821   680.821   2.2% ||
    iFFT:                                  637.084   637.084   2.0% ||
    potential:                            6628.661   177.826   0.6% |
     collect:                             1021.710  1021.710   3.3% ||
     p1:                                  2875.867  2875.867   9.2% |---|
     p2:                                  1035.718  1035.718   3.3% ||
     sum:                                 1517.541  1517.541   4.9% |-|
    splines:                                 0.035     0.035   0.0% |
  vbar:                                     18.647    18.647   0.1% |
 Orthonormalize:                            22.114     0.015   0.0% |
  calc_s_matrix:                             3.712     3.712   0.0% |
  inverse-cholesky:                          5.095     5.095   0.0% |
  projections:                               0.002     0.002   0.0% |
  rotate_psi_s:                             13.289    13.289   0.0% |
Set symmetry:                                0.002     0.002   0.0% |
Other:                                     126.644   126.644   0.4% |
-------------------------------------------------------------------
Total:                                             31160.283 100.0%

Memory usage: 1.22 GiB
Date: Sat Mar 11 06:31:47 2023
