
  ___ ___ ___ _ _ _  
 |   |   |_  | | | | 
 | | | | | . | | | | 
 |__ |  _|___|_____|  22.8.0
 |___|_|             

User:   vazumah@c20.hercules
Date:   Sat Mar  4 04:28:29 2023
Arch:   x86_64
Pid:    4433
CWD:    /home/vazumah/Python_projects/LiNRR/Li_adsorb_studies/proton_donors/N2_with_proton_donor/Li_BCC_100/adsorbates/HF/bridge/0.0_1.617/N2_z
Python: 3.10.8
gpaw:   /home/vazumah/.conda/envs/GPAW/lib/python3.10/site-packages/gpaw
_gpaw:  /home/vazumah/.conda/envs/GPAW/lib/python3.10/site-packages/
        _gpaw.cpython-310-x86_64-linux-gnu.so
ase:    /home/vazumah/.conda/envs/GPAW/lib/python3.10/site-packages/ase (version 3.22.1)
numpy:  /home/vazumah/.conda/envs/GPAW/lib/python3.10/site-packages/numpy (version 1.24.1)
scipy:  /home/vazumah/.conda/envs/GPAW/lib/python3.10/site-packages/scipy (version 1.10.0)
libxc:  5.2.3
units:  Angstrom and eV
cores: 24
OpenMP: True
OMP_NUM_THREADS: 1

Reading from output.gpw
Reading input parameters:
  h: 0.16
  kpts: {size: [4, 4, 1]}
  occupations: {name: fermi-dirac,
                width: 0.05}
  poissonsolver: {dipolelayer: xy}
  xc: BEEF-vdW

Initialize ...

species:
  Li:
    name: Lithium
    id: 830b4218f175192f93f959cfc0aad614
    Z: 3.0
    valence: 1
    core: 2
    charge: 0.0
    file: /home/vazumah/.conda/envs/GPAW/share/gpaw/Li.PBE.gz
    compensation charges: {type: gauss,
                           rc: 0.33,
                           lmax: 2}
    cutoffs: {filter: 1.91,
              core: 2.55}
    valence states:
      #              energy  rcut
      - 2s(1.00)    -2.874   1.058
      - 2p(0.00)    -1.090   1.058
      -  s          24.337   1.058
  
    # Using partial waves for Li as LCAO basis

  F:
    name: Fluorine
    id: 9cd46ba2a61e170ad72278be75b55cc0
    Z: 9.0
    valence: 7
    core: 2
    charge: 0.0
    file: /home/vazumah/.conda/envs/GPAW/share/gpaw/F.PBE.gz
    compensation charges: {type: gauss,
                           rc: 0.20,
                           lmax: 2}
    cutoffs: {filter: 1.14,
              core: 0.74}
    valence states:
      #              energy  rcut
      - 2s(2.00)   -29.898   0.635
      - 2p(5.00)   -11.110   0.635
      -  s          -2.687   0.635
      -  p          16.102   0.635
      -  d           0.000   0.635
  
    # Using partial waves for F as LCAO basis

  H:
    name: Hydrogen
    id: d65de229564ff8ea4db303e23b6d1ecf
    Z: 1.0
    valence: 1
    core: 0
    charge: 0.0
    file: /home/vazumah/.conda/envs/GPAW/share/gpaw/H.PBE.gz
    compensation charges: {type: gauss,
                           rc: 0.15,
                           lmax: 2}
    cutoffs: {filter: 0.85,
              core: 0.53}
    valence states:
      #              energy  rcut
      - 1s(1.00)    -6.494   0.476
      -  s          20.717   0.476
      -  p           0.000   0.476
  
    # Using partial waves for H as LCAO basis

  N:
    name: Nitrogen
    id: f7500608b86eaa90eef8b1d9a670dc53
    Z: 7.0
    valence: 5
    core: 2
    charge: 0.0
    file: /home/vazumah/.conda/envs/GPAW/share/gpaw/N.PBE.gz
    compensation charges: {type: gauss,
                           rc: 0.18,
                           lmax: 2}
    cutoffs: {filter: 1.11,
              core: 0.96}
    valence states:
      #              energy  rcut
      - 2s(2.00)   -18.583   0.603
      - 2p(3.00)    -7.089   0.529
      -  s           8.629   0.603
      -  p          20.123   0.529
      -  d           0.000   0.577
  
    # Using partial waves for N as LCAO basis

Reference energy: -12990.375485  # eV

Spin-paired calculation

Convergence criteria:
 Maximum [total energy] change in last 3 cyles: 0.0005 eV / electron
 Maximum integral of absolute [dens]ity change: 0.0001 electrons / valence electron
 Maximum integral of absolute [eigenst]ate change: 4e-08 eV^2 / valence electron
 Maximum number of scf [iter]ations: 333
 (Square brackets indicate name in SCF output, whereas a 'c' in
 the SCF output indicates the quantity has converged.)

Symmetries present (total): 1

  ( 1  0  0)
  ( 0  1  0)
  ( 0  0  1)

16 k-points: 4 x 4 x 1 Monkhorst-Pack grid
8 k-points in the irreducible part of the Brillouin zone
       k-points in crystal coordinates                weights
   0:     0.12500000   -0.37500000    0.00000000          2/16
   1:     0.12500000   -0.12500000    0.00000000          2/16
   2:     0.12500000    0.12500000    0.00000000          2/16
   3:     0.12500000    0.37500000    0.00000000          2/16
   4:     0.37500000   -0.37500000    0.00000000          2/16
   5:     0.37500000   -0.12500000    0.00000000          2/16
   6:     0.37500000    0.12500000    0.00000000          2/16
   7:     0.37500000    0.37500000    0.00000000          2/16

Wave functions: Uniform real-space grid
  Kinetic energy operator: 6*3+1=19 point O(h^6) finite-difference Laplacian
  ScaLapack parameters: grid=1x1, blocksize=None
  Wavefunction extrapolation:
    Improved wavefunction reuse through dual PAW basis 

Occupation numbers: Fermi-Dirac:
  width: 0.0500  # eV
 

Eigensolver
   Davidson(niter=2) 

Densities:
  Coarse grid: 60*60*168 grid
  Fine grid: 120*120*336 grid
  Total Charge: 0.000000 

Density mixing:
  Method: separate
  Backend: pulay
  Linear mixing parameter: 0.05
  old densities: 5
  Damping of long wavelength oscillations: 50 

Hamiltonian:
  XC and Coulomb potentials evaluated on a 120*120*336 grid
  Using the BEEF-vdW Exchange-Correlation functional
  Interpolation: tri-quintic (5. degree polynomial)
  Poisson solver: FastPoissonSolver using
    Stencil: 6*3+1=19 point O(h^6) finite-difference Laplacian
    FFT axes: [0, 1]
    FST axes: [2]

Dipole correction along z-axis 

XC parameters: BEEF-vdW with 2 nearest neighbor stencil

Memory estimate:
  Process memory now: 226.71 MiB
  Calculator: 393.40 MiB
    Density: 120.08 MiB
      Arrays: 39.61 MiB
      Localized functions: 65.36 MiB
      Mixer: 15.11 MiB
    Hamiltonian: 31.07 MiB
      Arrays: 25.90 MiB
      XC: 0.00 MiB
      Poisson: 0.00 MiB
      vbar: 5.17 MiB
    Wavefunctions: 242.25 MiB
      Arrays psit_nG: 111.79 MiB
      Eigensolver: 127.10 MiB
      Projections: 0.04 MiB
      Projectors: 3.32 MiB

Total number of cores used: 24
Parallelization over k-points: 8
Domain decomposition: 1 x 1 x 3

Number of atoms: 40
Number of atomic orbitals: 157
Number of bands in calculation: 37
Number of valence electrons: 54
Bands to converge: occupied

... initialized

Initializing position-dependent things.

Creating initial wave functions:
  37 bands from LCAO basis set

       .-----------------------.  
      /|                       |  
     / |                       |  
    /  |                       |  
   /   |                       |  
  /    |                       |  
 *     |                       |  
 |     |                       |  
 |     |                       |  
 |     |                       |  
 |     |                       |  
 |     |                       |  
 |     |                       |  
 |F H  |                       |  
 |     |       Li      Li      |  
 |N    |                       |  
 |   Li|     Li      Li        |  
 |     |  Li      Li      Ni   |  
 | Li  |   Li      Li          |  
 |     |Li      Li      Li     |  
 Li    |                       |  
 |   LLi     LLi     LLi       |  
 |     |  Li      Li      Li   |  
 | Li  |   Li      Li          |  
 |     |Li      Li      Li     |  
 Li    | Li      Li            |  
 |    Li      Li      Li       |  
 |     |                       |  
 |     |                       |  
 |     |                       |  
 |     |                       |  
 |     |                       |  
 |     |                       |  
 |     .-----------------------.  
 |    /                       /   
 |   /                       /    
 |  /                       /     
 | /                       /      
 |/                       /       
 *-----------------------*        

Positions:
   0 Li     1.617037    1.617037   10.000000    ( 0.0000,  0.0000,  0.0000)
   1 Li     4.851111    1.617037   10.000000    ( 0.0000,  0.0000,  0.0000)
   2 Li     8.085185    1.617037   10.000000    ( 0.0000,  0.0000,  0.0000)
   3 Li     1.617037    4.851111   10.000000    ( 0.0000,  0.0000,  0.0000)
   4 Li     4.851111    4.851111   10.000000    ( 0.0000,  0.0000,  0.0000)
   5 Li     8.085185    4.851111   10.000000    ( 0.0000,  0.0000,  0.0000)
   6 Li     1.617037    8.085185   10.000000    ( 0.0000,  0.0000,  0.0000)
   7 Li     4.851111    8.085185   10.000000    ( 0.0000,  0.0000,  0.0000)
   8 Li     8.085185    8.085185   10.000000    ( 0.0000,  0.0000,  0.0000)
   9 Li     0.000000    0.000000   11.617037    ( 0.0000,  0.0000,  0.0000)
  10 Li     3.234074    0.000000   11.617037    ( 0.0000,  0.0000,  0.0000)
  11 Li     6.468148    0.000000   11.617037    ( 0.0000,  0.0000,  0.0000)
  12 Li     0.000000    3.234074   11.617037    ( 0.0000,  0.0000,  0.0000)
  13 Li     3.234074    3.234074   11.617037    ( 0.0000,  0.0000,  0.0000)
  14 Li     6.468148    3.234074   11.617037    ( 0.0000,  0.0000,  0.0000)
  15 Li     0.000000    6.468148   11.617037    ( 0.0000,  0.0000,  0.0000)
  16 Li     3.234074    6.468148   11.617037    ( 0.0000,  0.0000,  0.0000)
  17 Li     6.468148    6.468148   11.617037    ( 0.0000,  0.0000,  0.0000)
  18 Li     1.617205    1.617038   13.469574    ( 0.0000,  0.0000,  0.0000)
  19 Li     4.851114    1.617038   13.469947    ( 0.0000,  0.0000,  0.0000)
  20 Li     8.085017    1.617038   13.469553    ( 0.0000,  0.0000,  0.0000)
  21 Li     1.616976    4.851033   13.469965    ( 0.0000,  0.0000,  0.0000)
  22 Li     4.851113    4.851160   13.469844    ( 0.0000,  0.0000,  0.0000)
  23 Li     8.085243    4.851034   13.469963    ( 0.0000,  0.0000,  0.0000)
  24 Li     1.616976    8.085262   13.469964    ( 0.0000,  0.0000,  0.0000)
  25 Li     4.851113    8.085134   13.469844    ( 0.0000,  0.0000,  0.0000)
  26 Li     8.085243    8.085261   13.469961    ( 0.0000,  0.0000,  0.0000)
  27 Li     0.000001    0.000198   15.445949    ( 0.0000,  0.0000,  0.0000)
  28 Li     3.234219   -0.000073   15.445717    ( 0.0000,  0.0000,  0.0000)
  29 Li     6.467994   -0.000081   15.445743    ( 0.0000,  0.0000,  0.0000)
  30 Li     0.000001    3.233876   15.445948    ( 0.0000,  0.0000,  0.0000)
  31 Li     3.234222    3.234149   15.445716    ( 0.0000,  0.0000,  0.0000)
  32 Li     6.467991    3.234157   15.445742    ( 0.0000,  0.0000,  0.0000)
  33 Li     0.000004    6.468148   15.445853    ( 0.0000,  0.0000,  0.0000)
  34 Li     3.234026    6.468146   15.445875    ( 0.0000,  0.0000,  0.0000)
  35 Li     6.468192    6.468146   15.445871    ( 0.0000,  0.0000,  0.0000)
  36 F      0.000406    1.617040   20.025813    ( 0.0000,  0.0000,  0.0000)
  37 H      0.927978    1.617037   19.949274    ( 0.0000,  0.0000,  0.0000)
  38 N     -0.002128    1.617001   17.408831    ( 0.0000,  0.0000,  0.0000)
  39 N      0.001682    1.616998   18.496570    ( 0.0000,  0.0000,  0.0000)

Unit cell:
           periodic     x           y           z      points  spacing
  1. axis:    yes    9.702222    0.000000    0.000000    60     0.1617
  2. axis:    yes    0.000000    9.702222    0.000000    60     0.1617
  3. axis:    no     0.000000    0.000000   26.851111   168     0.1598

  Lengths:   9.702222   9.702222  26.851111
  Angles:   90.000000  90.000000  90.000000

Effective grid spacing dv^(1/3) = 0.1611

     iter     time        total  log10-change:
                         energy  eigst   dens
iter:   1 04:29:38  -246.501175  +1.09
iter:   2 04:30:19  -247.073769  +0.42  -1.74
iter:   3 04:31:00  -247.225695  -0.03  -1.98
iter:   4 04:31:41  -247.287192  -0.38  -2.18
Writing to output.gpw (mode='')

iter:   5 04:32:28  -247.317991  -0.68  -2.47
iter:   6 04:33:09  -247.333831  -0.95  -2.68
iter:   7 04:33:50  -247.340544c -1.26  -2.63
iter:   8 04:34:31  -247.345248c -1.47  -2.90
iter:   9 04:35:12  -247.348047c -1.69  -2.92
Writing to output.gpw (mode='')

iter:  10 04:35:53  -247.349798c -1.93  -3.03
iter:  11 04:36:34  -247.350878c -2.13  -3.14
iter:  12 04:37:15  -247.351776c -2.32  -3.30
iter:  13 04:37:56  -247.352121c -2.51  -2.99
iter:  14 04:38:37  -247.352412c -2.63  -3.14
Writing to output.gpw (mode='')

iter:  15 04:39:19  -247.352641c -2.78  -3.41
iter:  16 04:40:00  -247.352796c -2.98  -3.50
iter:  17 04:40:40  -247.352918c -3.08  -3.46
iter:  18 04:41:21  -247.353007c -3.25  -3.67
iter:  19 04:42:02  -247.353079c -3.34  -3.60
Writing to output.gpw (mode='')

iter:  20 04:42:44  -247.353142c -3.28  -3.59
iter:  21 04:43:25  -247.353213c -3.39  -3.53
iter:  22 04:44:06  -247.353249c -3.58  -3.63
iter:  23 04:44:47  -247.353277c -3.78  -3.40
iter:  24 04:45:28  -247.353295c -3.91  -3.42
Writing to output.gpw (mode='')

iter:  25 04:46:10  -247.353318c -3.66  -3.44
iter:  26 04:46:51  -247.353332c -3.92  -3.41
iter:  27 04:47:32  -247.353357c -4.03  -3.40
iter:  28 04:48:13  -247.353364c -4.15  -3.48
iter:  29 04:48:54  -247.353383c -4.09  -3.42
Writing to output.gpw (mode='')

iter:  30 04:49:36  -247.353376c -4.46  -3.39
iter:  31 04:50:17  -247.353373c -4.13  -3.50
iter:  32 04:50:58  -247.353375c -4.61  -3.62
iter:  33 04:51:39  -247.353378c -4.75  -3.64
iter:  34 04:52:20  -247.353377c -4.77  -3.81
Writing to output.gpw (mode='')

iter:  35 04:53:02  -247.353379c -4.82  -3.88
iter:  36 04:53:43  -247.353380c -4.91  -3.98
iter:  37 04:54:24  -247.353384c -5.03  -4.03c
iter:  38 04:55:04  -247.353385c -5.14  -4.15c
iter:  39 04:55:45  -247.353382c -5.19  -4.19c
Writing to output.gpw (mode='')

iter:  40 04:56:27  -247.353382c -5.38  -4.41c
iter:  41 04:57:08  -247.353382c -5.24  -4.49c
iter:  42 04:57:49  -247.353383c -5.36  -4.56c
iter:  43 04:58:30  -247.353383c -5.58  -4.70c
iter:  44 04:59:11  -247.353384c -5.56  -4.78c
Writing to output.gpw (mode='')

iter:  45 04:59:56  -247.353385c -5.48  -4.82c
iter:  46 05:00:37  -247.353385c -5.62  -4.86c
iter:  47 05:01:18  -247.353385c -5.87  -4.98c
iter:  48 05:01:59  -247.353385c -5.82  -5.06c
iter:  49 05:02:40  -247.353385c -5.56  -5.20c
Writing to output.gpw (mode='')

iter:  50 05:03:22  -247.353385c -5.96  -5.23c
iter:  51 05:04:02  -247.353386c -5.97  -5.26c
iter:  52 05:04:43  -247.353386c -5.86  -5.31c
iter:  53 05:05:24  -247.353386c -6.06  -5.31c
iter:  54 05:06:05  -247.353386c -6.25  -5.26c
Writing to output.gpw (mode='')

iter:  55 05:06:47  -247.353386c -6.25  -5.41c
iter:  56 05:07:27  -247.353386c -6.41  -5.41c
iter:  57 05:08:08  -247.353386c -6.47  -5.38c
iter:  58 05:08:49  -247.353386c -6.55  -5.31c
iter:  59 05:09:30  -247.353386c -6.64  -5.25c
Writing to output.gpw (mode='')

iter:  60 05:10:12  -247.353386c -6.44  -5.23c
iter:  61 05:10:53  -247.353386c -6.67  -5.21c
iter:  62 05:11:34  -247.353386c -6.53  -5.17c
iter:  63 05:12:15  -247.353386c -6.70  -5.08c
iter:  64 05:12:55  -247.353386c -6.77  -5.02c
Writing to output.gpw (mode='')

iter:  65 05:13:37  -247.353386c -6.43  -5.13c
iter:  66 05:14:18  -247.353386c -6.87  -5.14c
iter:  67 05:14:59  -247.353386c -6.93  -5.07c
iter:  68 05:15:40  -247.353386c -6.74  -5.18c
iter:  69 05:16:21  -247.353386c -7.05  -5.24c
Writing to output.gpw (mode='')

iter:  70 05:17:03  -247.353386c -6.87  -5.21c
iter:  71 05:17:44  -247.353386c -7.09  -5.31c
iter:  72 05:18:25  -247.353386c -6.66  -5.33c
iter:  73 05:19:06  -247.353386c -7.12  -5.40c
iter:  74 05:19:46  -247.353386c -7.09  -5.45c
Writing to output.gpw (mode='')

iter:  75 05:20:28  -247.353386c -7.20  -5.53c
iter:  76 05:21:09  -247.353386c -7.29  -5.63c
iter:  77 05:21:50  -247.353386c -6.92  -5.73c
iter:  78 05:22:31  -247.353386c -7.24  -5.90c
iter:  79 05:23:12  -247.353386c -6.77  -5.96c
Writing to output.gpw (mode='')

iter:  80 05:23:54  -247.353386c -7.32  -6.00c
iter:  81 05:24:35  -247.353386c -7.41c -5.99c

Converged after 81 iterations.

Dipole moment: (-16.207295, -3.408393, 0.131897) |e|*Ang

Energy contributions relative to reference atoms: (reference = -12990.375485)

Kinetic:       +140.515258
Potential:     -123.161981
External:        +0.000000
XC:            -265.012794
Entropy (-ST):   -0.144740
Local:           +0.378502
--------------------------
Free energy:   -247.425756
Extrapolated:  -247.353386

Dipole-layer corrected work functions: 3.392212, 3.138660 eV

Showing only first 2 kpts
 Kpt  Band  Eigenvalues  Occupancy
  0    25     -3.51343    1.98607
  0    26     -3.41030    1.89542
  0    27     -3.10563    0.07862
  0    28     -3.00979    0.01197

  1    25     -3.31069    1.42394
  1    26     -3.26006    0.94628
  1    27     -3.23711    0.72406
  1    28     -3.17585    0.28570


Fermi level: -3.26544

No gap
Writing to output.gpw (mode='')


Forces in eV/Ang:
  0 Li    0.01275    0.00000   -0.27231
  1 Li   -0.00081    0.00000   -0.26687
  2 Li   -0.01216    0.00000   -0.27180
  3 Li    0.00202    0.00673   -0.27107
  4 Li    0.00031   -0.00074   -0.28139
  5 Li   -0.00214    0.00770   -0.27094
  6 Li    0.00202   -0.00673   -0.27107
  7 Li    0.00031    0.00074   -0.28139
  8 Li   -0.00214   -0.00770   -0.27094
  9 Li    0.00003    0.01322    0.29476
 10 Li    0.01877   -0.00576    0.24919
 11 Li   -0.01855   -0.00633    0.25004
 12 Li    0.00003   -0.01322    0.29475
 13 Li    0.01877    0.00576    0.24919
 14 Li   -0.01855    0.00633    0.25004
 15 Li   -0.00023   -0.00000    0.23908
 16 Li   -0.02645   -0.00000    0.26622
 17 Li    0.02645   -0.00000    0.26426
 18 Li    0.04369   -0.00000   -0.04221
 19 Li    0.00096   -0.00000    0.05370
 20 Li   -0.04393   -0.00000   -0.04870
 21 Li   -0.01615   -0.01880    0.05741
 22 Li    0.00045    0.01119    0.02919
 23 Li    0.01548   -0.01846    0.05656
 24 Li   -0.01615    0.01880    0.05741
 25 Li    0.00045   -0.01119    0.02919
 26 Li    0.01548    0.01846    0.05657
 27 Li   -0.00030    0.07501    0.03488
 28 Li    0.03339   -0.01659   -0.05192
 29 Li   -0.03618   -0.01895   -0.04513
 30 Li   -0.00030   -0.07500    0.03488
 31 Li    0.03339    0.01658   -0.05192
 32 Li   -0.03618    0.01894   -0.04513
 33 Li    0.00082   -0.00000   -0.02295
 34 Li   -0.01090    0.00000   -0.01679
 35 Li    0.01016    0.00000   -0.01741
 36 F    -0.20549    0.00071   18.81975
 37 H     0.35247    0.00000    0.81470
 38 N    -0.50810    0.00017   -5.06132
 39 N     0.34822   -0.00057  -14.52963

System changes: positions 

Initializing position-dependent things.

Density initialized from wave functions
       .-----------------------.  
      /|                       |  
     / |                       |  
    /  |                       |  
   /   |                       |  
  /    |                       |  
 *     |                       |  
 |     |                       |  
 |     |                       |  
 |     |                       |  
 |     |                       |  
 |     |                       |  
 |     |                       |  
 |F H  |                       |  
 |     |       Li      Li      |  
 |N    |                       |  
 |   Li|     Li      Li        |  
 |     |  Li      Li      Ni   |  
 | Li  |   Li      Li          |  
 |     |Li      Li      Li     |  
 Li    |                       |  
 |   LLi     LLi     LLi       |  
 |     |  Li      Li      Li   |  
 | Li  |   Li      Li          |  
 |     |Li      Li      Li     |  
 Li    | Li      Li            |  
 |    Li      Li      Li       |  
 |     |                       |  
 |     |                       |  
 |     |                       |  
 |     |                       |  
 |     |                       |  
 |     |                       |  
 |     .-----------------------.  
 |    /                       /   
 |   /                       /    
 |  /                       /     
 | /                       /      
 |/                       /       
 *-----------------------*        

Positions:
   0 Li     1.617037    1.617037   10.000000    ( 0.0000,  0.0000,  0.0000)
   1 Li     4.851111    1.617037   10.000000    ( 0.0000,  0.0000,  0.0000)
   2 Li     8.085185    1.617037   10.000000    ( 0.0000,  0.0000,  0.0000)
   3 Li     1.617037    4.851111   10.000000    ( 0.0000,  0.0000,  0.0000)
   4 Li     4.851111    4.851111   10.000000    ( 0.0000,  0.0000,  0.0000)
   5 Li     8.085185    4.851111   10.000000    ( 0.0000,  0.0000,  0.0000)
   6 Li     1.617037    8.085185   10.000000    ( 0.0000,  0.0000,  0.0000)
   7 Li     4.851111    8.085185   10.000000    ( 0.0000,  0.0000,  0.0000)
   8 Li     8.085185    8.085185   10.000000    ( 0.0000,  0.0000,  0.0000)
   9 Li     0.000000    0.000000   11.617037    ( 0.0000,  0.0000,  0.0000)
  10 Li     3.234074    0.000000   11.617037    ( 0.0000,  0.0000,  0.0000)
  11 Li     6.468148    0.000000   11.617037    ( 0.0000,  0.0000,  0.0000)
  12 Li     0.000000    3.234074   11.617037    ( 0.0000,  0.0000,  0.0000)
  13 Li     3.234074    3.234074   11.617037    ( 0.0000,  0.0000,  0.0000)
  14 Li     6.468148    3.234074   11.617037    ( 0.0000,  0.0000,  0.0000)
  15 Li     0.000000    6.468148   11.617037    ( 0.0000,  0.0000,  0.0000)
  16 Li     3.234074    6.468148   11.617037    ( 0.0000,  0.0000,  0.0000)
  17 Li     6.468148    6.468148   11.617037    ( 0.0000,  0.0000,  0.0000)
  18 Li     1.617412    1.617038   13.469369    ( 0.0000,  0.0000,  0.0000)
  19 Li     4.851119    1.617038   13.470205    ( 0.0000,  0.0000,  0.0000)
  20 Li     8.084807    1.617038   13.469303    ( 0.0000,  0.0000,  0.0000)
  21 Li     1.616903    4.850936   13.470238    ( 0.0000,  0.0000,  0.0000)
  22 Li     4.851115    4.851227   13.469964    ( 0.0000,  0.0000,  0.0000)
  23 Li     8.085312    4.850938   13.470230    ( 0.0000,  0.0000,  0.0000)
  24 Li     1.616902    8.085359   13.470237    ( 0.0000,  0.0000,  0.0000)
  25 Li     4.851115    8.085068   13.469963    ( 0.0000,  0.0000,  0.0000)
  26 Li     8.085312    8.085357   13.470229    ( 0.0000,  0.0000,  0.0000)
  27 Li     0.000001    0.000512   15.446000    ( 0.0000,  0.0000,  0.0000)
  28 Li     3.234420   -0.000169   15.445422    ( 0.0000,  0.0000,  0.0000)
  29 Li     6.467775   -0.000192   15.445498    ( 0.0000,  0.0000,  0.0000)
  30 Li     0.000001    3.233562   15.446000    ( 0.0000,  0.0000,  0.0000)
  31 Li     3.234422    3.234246   15.445421    ( 0.0000,  0.0000,  0.0000)
  32 Li     6.467772    3.234268   15.445497    ( 0.0000,  0.0000,  0.0000)
  33 Li     0.000010    6.468148   15.445754    ( 0.0000,  0.0000,  0.0000)
  34 Li     3.233965    6.468146   15.445806    ( 0.0000,  0.0000,  0.0000)
  35 Li     6.468249    6.468146   15.445797    ( 0.0000,  0.0000,  0.0000)
  36 F      0.007149    1.617041   20.065241    ( 0.0000,  0.0000,  0.0000)
  37 H      0.920555    1.617037   19.950224    ( 0.0000,  0.0000,  0.0000)
  38 N     -0.003943    1.616998   17.390430    ( 0.0000,  0.0000,  0.0000)
  39 N      0.003907    1.617005   18.475084    ( 0.0000,  0.0000,  0.0000)

Unit cell:
           periodic     x           y           z      points  spacing
  1. axis:    yes    9.702222    0.000000    0.000000    60     0.1617
  2. axis:    yes    0.000000    9.702222    0.000000    60     0.1617
  3. axis:    no     0.000000    0.000000   26.851111   168     0.1598

  Lengths:   9.702222   9.702222  26.851111
  Angles:   90.000000  90.000000  90.000000

Effective grid spacing dv^(1/3) = 0.1611

     iter     time        total  log10-change:
                         energy  eigst   dens
iter:   1 05:25:29  -248.543788  -0.79
iter:   2 05:26:10  -248.434883  -0.75  -1.47
iter:   3 05:26:51  -248.415297  -1.49  -1.73
iter:   4 05:27:32  -248.409457c -0.96  -2.04
Writing to output.gpw (mode='')

iter:   5 05:28:13  -248.407534c -1.79  -2.06
iter:   6 05:28:54  -248.409896c -1.68  -2.26
iter:   7 05:29:35  -248.408986c -1.67  -2.29
iter:   8 05:30:16  -248.407483c -2.47  -2.49
iter:   9 05:30:56  -248.407556c -2.17  -2.59
Writing to output.gpw (mode='')

iter:  10 05:31:38  -248.406630c -2.82  -2.63
iter:  11 05:32:19  -248.406694c -2.81  -2.84
iter:  12 05:33:00  -248.406668c -3.31  -2.90
iter:  13 05:33:40  -248.406726c -3.20  -3.01
iter:  14 05:34:21  -248.406839c -3.18  -3.04
Writing to output.gpw (mode='')

iter:  15 05:35:03  -248.406690c -3.64  -3.04
iter:  16 05:35:43  -248.406690c -3.70  -3.25
iter:  17 05:36:24  -248.406723c -4.06  -3.28
iter:  18 05:37:05  -248.406702c -4.25  -3.39
iter:  19 05:37:46  -248.406703c -4.28  -3.66
Writing to output.gpw (mode='')

iter:  20 05:38:27  -248.406705c -4.67  -3.74
iter:  21 05:39:08  -248.406707c -4.82  -3.86
iter:  22 05:39:48  -248.406708c -5.18  -3.86
iter:  23 05:40:29  -248.406709c -5.28  -3.89
iter:  24 05:41:10  -248.406710c -5.23  -4.00
Writing to output.gpw (mode='')

iter:  25 05:41:51  -248.406710c -5.37  -4.14c
iter:  26 05:42:32  -248.406709c -5.37  -4.17c
iter:  27 05:43:13  -248.406711c -5.30  -4.39c
iter:  28 05:43:53  -248.406710c -5.66  -4.17c
iter:  29 05:44:34  -248.406710c -5.61  -4.47c
Writing to output.gpw (mode='')

iter:  30 05:45:18  -248.406710c -5.83  -4.55c
iter:  31 05:45:59  -248.406710c -5.97  -4.70c
iter:  32 05:46:40  -248.406710c -5.80  -4.77c
iter:  33 05:47:21  -248.406710c -5.99  -4.89c
iter:  34 05:48:01  -248.406710c -6.30  -4.87c
Writing to output.gpw (mode='')

iter:  35 05:48:43  -248.406710c -6.29  -4.90c
iter:  36 05:49:23  -248.406710c -6.23  -4.90c
iter:  37 05:50:04  -248.406711c -6.39  -4.99c
iter:  38 05:50:45  -248.406711c -6.39  -5.03c
iter:  39 05:51:26  -248.406711c -6.66  -5.01c
Writing to output.gpw (mode='')

iter:  40 05:52:09  -248.406711c -6.56  -5.08c
iter:  41 05:52:51  -248.406711c -6.69  -5.07c
iter:  42 05:53:31  -248.406711c -6.71  -5.06c
iter:  43 05:54:12  -248.406711c -6.68  -5.06c
iter:  44 05:54:54  -248.406711c -6.87  -5.06c
Writing to output.gpw (mode='')

iter:  45 05:55:35  -248.406710c -6.95  -5.08c
iter:  46 05:56:16  -248.406710c -7.04  -5.12c
iter:  47 05:56:57  -248.406710c -7.28  -5.14c
iter:  48 05:57:38  -248.406710c -7.29  -5.15c
iter:  49 05:58:19  -248.406710c -7.18  -5.25c
Writing to output.gpw (mode='')

iter:  50 05:59:01  -248.406710c -7.44c -5.34c

Converged after 50 iterations.

Dipole moment: (-16.869670, -3.380397, 0.107803) |e|*Ang

Energy contributions relative to reference atoms: (reference = -12990.375485)

Kinetic:       +138.361698
Potential:     -121.948496
External:        +0.000000
XC:            -265.130300
Entropy (-ST):   -0.144577
Local:           +0.382676
--------------------------
Free energy:   -248.478999
Extrapolated:  -248.406710

Dipole-layer corrected work functions: 3.391450, 3.184216 eV

Showing only first 2 kpts
 Kpt  Band  Eigenvalues  Occupancy
  0    25     -3.53597    1.98611
  0    26     -3.43265    1.89533
  0    27     -3.12725    0.07746
  0    28     -3.03229    0.01199

  1    25     -3.33237    1.41808
  1    26     -3.28270    0.94874
  1    27     -3.25980    0.72678
  1    28     -3.19761    0.28260


Fermi level: -3.28783

No gap

Forces in eV/Ang:
  0 Li    0.01269    0.00000   -0.27234
  1 Li   -0.00086    0.00000   -0.26675
  2 Li   -0.01207    0.00000   -0.27189
  3 Li    0.00198    0.00658   -0.27102
  4 Li    0.00034   -0.00071   -0.28121
  5 Li   -0.00207    0.00762   -0.27090
  6 Li    0.00198   -0.00658   -0.27102
  7 Li    0.00034    0.00071   -0.28121
  8 Li   -0.00207   -0.00762   -0.27090
  9 Li    0.00005    0.01352    0.29492
 10 Li    0.01901   -0.00593    0.24920
 11 Li   -0.01876   -0.00653    0.25004
 12 Li    0.00005   -0.01352    0.29492
 13 Li    0.01901    0.00593    0.24920
 14 Li   -0.01876    0.00653    0.25004
 15 Li   -0.00024   -0.00000    0.23936
 16 Li   -0.02671   -0.00000    0.26645
 17 Li    0.02662   -0.00000    0.26457
 18 Li    0.04420   -0.00000   -0.04241
 19 Li    0.00098   -0.00000    0.05327
 20 Li   -0.04452   -0.00000   -0.04950
 21 Li   -0.01626   -0.01912    0.05746
 22 Li    0.00041    0.01161    0.02857
 23 Li    0.01553   -0.01879    0.05657
 24 Li   -0.01626    0.01912    0.05746
 25 Li    0.00041   -0.01161    0.02857
 26 Li    0.01553    0.01879    0.05657
 27 Li   -0.00044    0.07363    0.02771
 28 Li    0.03415   -0.01691   -0.05331
 29 Li   -0.03721   -0.01938   -0.04579
 30 Li   -0.00044   -0.07361    0.02770
 31 Li    0.03415    0.01690   -0.05331
 32 Li   -0.03721    0.01938   -0.04579
 33 Li    0.00085   -0.00000   -0.02223
 34 Li   -0.01104    0.00000   -0.01641
 35 Li    0.01033    0.00000   -0.01698
 36 F    -0.52651    0.00045   15.93558
 37 H     0.69640    0.00001    0.65514
 38 N    -0.42698    0.00037   -5.13822
 39 N     0.29926   -0.00050  -11.45737

System changes: positions 

Initializing position-dependent things.

Density initialized from wave functions
       .-----------------------.  
      /|                       |  
     / |                       |  
    /  |                       |  
   /   |                       |  
  /    |                       |  
 *     |                       |  
 |     |                       |  
 |     |                       |  
 |     |                       |  
 |     |                       |  
 |     |                       |  
 |     |                       |  
 |F H  |                       |  
 |     |       Li      Li      |  
 |N    |                       |  
 |   Li|     Li      Li        |  
 |     |  Li      Li      Ni   |  
 |     |   Li      Li      Li  |  
 |     |Li      Li      Li     |  
 |     |                 Li    |  
 |   LLi     LLi     LLi       |  
 |     |  Li      Li      Li   |  
 | Li  |   Li      Li          |  
 |     |Li      Li      Li     |  
 Li    | Li      Li            |  
 |    Li      Li      Li       |  
 |     |                       |  
 |     |                       |  
 |     |                       |  
 |     |                       |  
 |     |                       |  
 |     |                       |  
 |     .-----------------------.  
 |    /                       /   
 |   /                       /    
 |  /                       /     
 | /                       /      
 |/                       /       
 *-----------------------*        

Positions:
   0 Li     1.617037    1.617037   10.000000    ( 0.0000,  0.0000,  0.0000)
   1 Li     4.851111    1.617037   10.000000    ( 0.0000,  0.0000,  0.0000)
   2 Li     8.085185    1.617037   10.000000    ( 0.0000,  0.0000,  0.0000)
   3 Li     1.617037    4.851111   10.000000    ( 0.0000,  0.0000,  0.0000)
   4 Li     4.851111    4.851111   10.000000    ( 0.0000,  0.0000,  0.0000)
   5 Li     8.085185    4.851111   10.000000    ( 0.0000,  0.0000,  0.0000)
   6 Li     1.617037    8.085185   10.000000    ( 0.0000,  0.0000,  0.0000)
   7 Li     4.851111    8.085185   10.000000    ( 0.0000,  0.0000,  0.0000)
   8 Li     8.085185    8.085185   10.000000    ( 0.0000,  0.0000,  0.0000)
   9 Li     0.000000    0.000000   11.617037    ( 0.0000,  0.0000,  0.0000)
  10 Li     3.234074    0.000000   11.617037    ( 0.0000,  0.0000,  0.0000)
  11 Li     6.468148    0.000000   11.617037    ( 0.0000,  0.0000,  0.0000)
  12 Li     0.000000    3.234074   11.617037    ( 0.0000,  0.0000,  0.0000)
  13 Li     3.234074    3.234074   11.617037    ( 0.0000,  0.0000,  0.0000)
  14 Li     6.468148    3.234074   11.617037    ( 0.0000,  0.0000,  0.0000)
  15 Li     0.000000    6.468148   11.617037    ( 0.0000,  0.0000,  0.0000)
  16 Li     3.234074    6.468148   11.617037    ( 0.0000,  0.0000,  0.0000)
  17 Li     6.468148    6.468148   11.617037    ( 0.0000,  0.0000,  0.0000)
  18 Li     1.617735    1.617038   13.469053    ( 0.0000,  0.0000,  0.0000)
  19 Li     4.851127    1.617038   13.470582    ( 0.0000,  0.0000,  0.0000)
  20 Li     8.084480    1.617038   13.468917    ( 0.0000,  0.0000,  0.0000)
  21 Li     1.616788    4.850790   13.470645    ( 0.0000,  0.0000,  0.0000)
  22 Li     4.851118    4.851323   13.470145    ( 0.0000,  0.0000,  0.0000)
  23 Li     8.085420    4.850795   13.470629    ( 0.0000,  0.0000,  0.0000)
  24 Li     1.616788    8.085504   13.470643    ( 0.0000,  0.0000,  0.0000)
  25 Li     4.851118    8.084971   13.470145    ( 0.0000,  0.0000,  0.0000)
  26 Li     8.085420    8.085500   13.470627    ( 0.0000,  0.0000,  0.0000)
  27 Li    -0.000002    0.001033   15.446092    ( 0.0000,  0.0000,  0.0000)
  28 Li     3.234703   -0.000306   15.444990    ( 0.0000,  0.0000,  0.0000)
  29 Li     6.467460   -0.000351   15.445144    ( 0.0000,  0.0000,  0.0000)
  30 Li    -0.000002    3.233041   15.446091    ( 0.0000,  0.0000,  0.0000)
  31 Li     3.234706    3.234382   15.444990    ( 0.0000,  0.0000,  0.0000)
  32 Li     6.467458    3.234428   15.445143    ( 0.0000,  0.0000,  0.0000)
  33 Li     0.000018    6.468148   15.445608    ( 0.0000,  0.0000,  0.0000)
  34 Li     3.233879    6.468146   15.445701    ( 0.0000,  0.0000,  0.0000)
  35 Li     6.468329    6.468146   15.445687    ( 0.0000,  0.0000,  0.0000)
  36 F      0.007498    1.617039   20.105239    ( 0.0000,  0.0000,  0.0000)
  37 H      0.920353    1.617037   19.950762    ( 0.0000,  0.0000,  0.0000)
  38 N     -0.005700    1.616999   17.366640    ( 0.0000,  0.0000,  0.0000)
  39 N      0.006038    1.617010   18.458207    ( 0.0000,  0.0000,  0.0000)

Unit cell:
           periodic     x           y           z      points  spacing
  1. axis:    yes    9.702222    0.000000    0.000000    60     0.1617
  2. axis:    yes    0.000000    9.702222    0.000000    60     0.1617
  3. axis:    no     0.000000    0.000000   26.851111   168     0.1598

  Lengths:   9.702222   9.702222  26.851111
  Angles:   90.000000  90.000000  90.000000

Effective grid spacing dv^(1/3) = 0.1611

     iter     time        total  log10-change:
                         energy  eigst   dens
iter:   1 05:59:56  -249.283896  -0.96
iter:   2 06:00:37  -249.283111  -1.59  -2.08
iter:   3 06:01:18  -249.282665c -2.06  -2.29
iter:   4 06:01:59  -249.282122c -1.55  -2.47
Writing to output.gpw (mode='')

iter:   5 06:02:40  -249.281788c -2.46  -2.58
iter:   6 06:03:21  -249.282438c -2.53  -2.67
iter:   7 06:04:02  -249.281430c -2.42  -2.61
iter:   8 06:04:44  -249.281340c -2.86  -2.68
iter:   9 06:05:25  -249.281082c -3.32  -2.89
Writing to output.gpw (mode='')

iter:  10 06:06:06  -249.281086c -3.02  -3.13
iter:  11 06:06:47  -249.281077c -3.49  -3.21
iter:  12 06:07:28  -249.281066c -4.02  -3.27
iter:  13 06:08:09  -249.281057c -4.38  -3.37
iter:  14 06:08:50  -249.281084c -4.08  -3.47
Writing to output.gpw (mode='')

iter:  15 06:09:32  -249.281056c -4.11  -3.40
iter:  16 06:10:13  -249.281057c -4.15  -3.57
iter:  17 06:10:54  -249.281056c -4.93  -3.66
iter:  18 06:11:35  -249.281062c -4.72  -3.79
iter:  19 06:12:16  -249.281060c -4.88  -3.89
Writing to output.gpw (mode='')

iter:  20 06:13:00  -249.281061c -5.22  -3.97
iter:  21 06:13:41  -249.281064c -5.01  -4.05c
iter:  22 06:14:22  -249.281062c -5.83  -4.17c
iter:  23 06:15:04  -249.281060c -5.44  -4.27c
iter:  24 06:15:45  -249.281061c -5.57  -4.48c
Writing to output.gpw (mode='')

iter:  25 06:16:27  -249.281060c -6.03  -4.43c
iter:  26 06:17:08  -249.281059c -5.91  -4.72c
iter:  27 06:17:49  -249.281060c -6.23  -4.75c
iter:  28 06:18:30  -249.281060c -6.48  -4.81c
iter:  29 06:19:12  -249.281060c -6.24  -4.94c
Writing to output.gpw (mode='')

iter:  30 06:19:55  -249.281060c -6.37  -4.96c
iter:  31 06:20:36  -249.281060c -6.35  -5.11c
iter:  32 06:21:18  -249.281060c -6.96  -5.23c
iter:  33 06:21:59  -249.281060c -6.89  -5.26c
iter:  34 06:22:40  -249.281060c -6.64  -5.29c
Writing to output.gpw (mode='')

iter:  35 06:23:22  -249.281060c -7.09  -5.44c
iter:  36 06:24:03  -249.281060c -6.89  -5.44c
iter:  37 06:24:44  -249.281060c -7.09  -5.45c
iter:  38 06:25:25  -249.281060c -6.89  -5.59c
iter:  39 06:26:06  -249.281060c -7.51c -5.69c

Converged after 39 iterations.

Dipole moment: (-16.941817, -3.336276, 0.071669) |e|*Ang

Energy contributions relative to reference atoms: (reference = -12990.375485)

Kinetic:       +134.003170
Potential:     -118.922164
External:        +0.000000
XC:            -264.677900
Entropy (-ST):   -0.144291
Local:           +0.387979
--------------------------
Free energy:   -249.353206
Extrapolated:  -249.281060

Dipole-layer corrected work functions: 3.391842, 3.254069 eV

Showing only first 2 kpts
 Kpt  Band  Eigenvalues  Occupancy
  0    25     -3.57088    1.98605
  0    26     -3.46655    1.89287
  0    27     -3.16241    0.07751
  0    28     -3.06745    0.01200

  1    25     -3.36762    1.41910
  1    26     -3.31773    0.94784
  1    27     -3.29555    0.73263
  1    28     -3.23062    0.27251


Fermi level: -3.32296

No gap
Writing to output.gpw (mode='')


Forces in eV/Ang:
  0 Li    0.01276    0.00000   -0.27239
  1 Li   -0.00097    0.00000   -0.26639
  2 Li   -0.01206    0.00000   -0.27203
  3 Li    0.00219    0.00653   -0.27107
  4 Li    0.00039   -0.00045   -0.28141
  5 Li   -0.00222    0.00768   -0.27098
  6 Li    0.00219   -0.00653   -0.27107
  7 Li    0.00039    0.00045   -0.28141
  8 Li   -0.00222   -0.00768   -0.27098
  9 Li    0.00007    0.01385    0.29579
 10 Li    0.01936   -0.00616    0.24914
 11 Li   -0.01903   -0.00682    0.25000
 12 Li    0.00007   -0.01385    0.29579
 13 Li    0.01936    0.00616    0.24914
 14 Li   -0.01903    0.00682    0.25000
 15 Li   -0.00022   -0.00000    0.23941
 16 Li   -0.02734   -0.00000    0.26653
 17 Li    0.02708   -0.00000    0.26483
 18 Li    0.04517   -0.00000   -0.04354
 19 Li    0.00106   -0.00000    0.05236
 20 Li   -0.04560   -0.00000   -0.05159
 21 Li   -0.01659   -0.01914    0.05685
 22 Li    0.00035    0.01154    0.02815
 23 Li    0.01578   -0.01877    0.05587
 24 Li   -0.01659    0.01914    0.05685
 25 Li    0.00035   -0.01154    0.02816
 26 Li    0.01578    0.01877    0.05587
 27 Li   -0.00077    0.08088    0.03217
 28 Li    0.03343   -0.01645   -0.05307
 29 Li   -0.03698   -0.01920   -0.04480
 30 Li   -0.00077   -0.08086    0.03215
 31 Li    0.03343    0.01645   -0.05307
 32 Li   -0.03698    0.01919   -0.04480
 33 Li    0.00080   -0.00000   -0.02202
 34 Li   -0.01044    0.00000   -0.01633
 35 Li    0.00988    0.00000   -0.01670
 36 F    -0.14424    0.00027   13.32728
 37 H     0.27762    0.00001    0.62264
 38 N    -0.40264    0.00007   -3.90977
 39 N     0.35004   -0.00040  -10.01065

System changes: positions 

Initializing position-dependent things.

Density initialized from wave functions
       .-----------------------.  
      /|                       |  
     / |                       |  
    /  |                       |  
   /   |                       |  
  /    |                       |  
 *     |                       |  
 |     |                       |  
 |     |                       |  
 |     |                       |  
 |     |                       |  
 |     |                       |  
 |     |                       |  
 |F H  |                       |  
 |     |       Li      Li      |  
 |N    |                       |  
 |   Li|     Li      Li        |  
 |     |  Li      Li      Ni   |  
 |     |   Li      Li      Li  |  
 |     |Li      Li      Li     |  
 |     |                 Li    |  
 |   LLi     LLi     LLi       |  
 |     |  Li      Li      Li   |  
 | Li  |   Li      Li          |  
 |     |Li      Li      Li     |  
 Li    | Li      Li            |  
 |    Li      Li      Li       |  
 |     |                       |  
 |     |                       |  
 |     |                       |  
 |     |                       |  
 |     |                       |  
 |     |                       |  
 |     .-----------------------.  
 |    /                       /   
 |   /                       /    
 |  /                       /     
 | /                       /      
 |/                       /       
 *-----------------------*        

Positions:
   0 Li     1.617037    1.617037   10.000000    ( 0.0000,  0.0000,  0.0000)
   1 Li     4.851111    1.617037   10.000000    ( 0.0000,  0.0000,  0.0000)
   2 Li     8.085185    1.617037   10.000000    ( 0.0000,  0.0000,  0.0000)
   3 Li     1.617037    4.851111   10.000000    ( 0.0000,  0.0000,  0.0000)
   4 Li     4.851111    4.851111   10.000000    ( 0.0000,  0.0000,  0.0000)
   5 Li     8.085185    4.851111   10.000000    ( 0.0000,  0.0000,  0.0000)
   6 Li     1.617037    8.085185   10.000000    ( 0.0000,  0.0000,  0.0000)
   7 Li     4.851111    8.085185   10.000000    ( 0.0000,  0.0000,  0.0000)
   8 Li     8.085185    8.085185   10.000000    ( 0.0000,  0.0000,  0.0000)
   9 Li     0.000000    0.000000   11.617037    ( 0.0000,  0.0000,  0.0000)
  10 Li     3.234074    0.000000   11.617037    ( 0.0000,  0.0000,  0.0000)
  11 Li     6.468148    0.000000   11.617037    ( 0.0000,  0.0000,  0.0000)
  12 Li     0.000000    3.234074   11.617037    ( 0.0000,  0.0000,  0.0000)
  13 Li     3.234074    3.234074   11.617037    ( 0.0000,  0.0000,  0.0000)
  14 Li     6.468148    3.234074   11.617037    ( 0.0000,  0.0000,  0.0000)
  15 Li     0.000000    6.468148   11.617037    ( 0.0000,  0.0000,  0.0000)
  16 Li     3.234074    6.468148   11.617037    ( 0.0000,  0.0000,  0.0000)
  17 Li     6.468148    6.468148   11.617037    ( 0.0000,  0.0000,  0.0000)
  18 Li     1.618198    1.617038   13.468602    ( 0.0000,  0.0000,  0.0000)
  19 Li     4.851138    1.617038   13.471095    ( 0.0000,  0.0000,  0.0000)
  20 Li     8.084010    1.617038   13.468359    ( 0.0000,  0.0000,  0.0000)
  21 Li     1.616622    4.850590   13.471205    ( 0.0000,  0.0000,  0.0000)
  22 Li     4.851121    4.851453   13.470400    ( 0.0000,  0.0000,  0.0000)
  23 Li     8.085575    4.850598   13.471178    ( 0.0000,  0.0000,  0.0000)
  24 Li     1.616622    8.085705   13.471204    ( 0.0000,  0.0000,  0.0000)
  25 Li     4.851121    8.084841   13.470399    ( 0.0000,  0.0000,  0.0000)
  26 Li     8.085575    8.085697   13.471176    ( 0.0000,  0.0000,  0.0000)
  27 Li    -0.000012    0.001861   15.446302    ( 0.0000,  0.0000,  0.0000)
  28 Li     3.235076   -0.000485   15.444407    ( 0.0000,  0.0000,  0.0000)
  29 Li     6.467041   -0.000564   15.444673    ( 0.0000,  0.0000,  0.0000)
  30 Li    -0.000012    3.232214   15.446300    ( 0.0000,  0.0000,  0.0000)
  31 Li     3.235078    3.234561   15.444407    ( 0.0000,  0.0000,  0.0000)
  32 Li     6.467038    3.234641   15.444672    ( 0.0000,  0.0000,  0.0000)
  33 Li     0.000027    6.468148   15.445405    ( 0.0000,  0.0000,  0.0000)
  34 Li     3.233770    6.468146   15.445552    ( 0.0000,  0.0000,  0.0000)
  35 Li     6.468433    6.468146   15.445535    ( 0.0000,  0.0000,  0.0000)
  36 F      0.012855    1.617036   20.144879    ( 0.0000,  0.0000,  0.0000)
  37 H      0.914988    1.617037   19.952460    ( 0.0000,  0.0000,  0.0000)
  38 N     -0.008209    1.616996   17.345183    ( 0.0000,  0.0000,  0.0000)
  39 N      0.009896    1.617016   18.438705    ( 0.0000,  0.0000,  0.0000)

Unit cell:
           periodic     x           y           z      points  spacing
  1. axis:    yes    9.702222    0.000000    0.000000    60     0.1617
  2. axis:    yes    0.000000    9.702222    0.000000    60     0.1617
  3. axis:    no     0.000000    0.000000   26.851111   168     0.1598

  Lengths:   9.702222   9.702222  26.851111
  Angles:   90.000000  90.000000  90.000000

Effective grid spacing dv^(1/3) = 0.1611

     iter     time        total  log10-change:
                         energy  eigst   dens
iter:   1 06:27:01  -250.072523  -0.92
iter:   2 06:27:43  -250.034473  -1.18  -1.68
iter:   3 06:28:24  -250.026263  -2.00  -1.93
iter:   4 06:29:04  -250.027654c -1.24  -2.28
Writing to output.gpw (mode='')

iter:   5 06:29:46  -250.022412c -2.15  -2.13
iter:   6 06:30:27  -250.022012c -2.23  -2.42
iter:   7 06:31:08  -250.023976c -2.10  -2.65
iter:   8 06:31:50  -250.022450c -2.41  -2.61
iter:   9 06:32:30  -250.021998c -2.69  -2.68
Writing to output.gpw (mode='')

iter:  10 06:33:16  -250.021996c -3.03  -3.00
iter:  11 06:33:57  -250.022115c -3.31  -3.21
iter:  12 06:34:39  -250.021978c -3.62  -3.06
iter:  13 06:35:20  -250.021986c -3.97  -3.36
iter:  14 06:36:01  -250.021990c -4.21  -3.44
Writing to output.gpw (mode='')

iter:  15 06:36:43  -250.022001c -4.31  -3.56
iter:  16 06:37:24  -250.022002c -4.57  -3.66
iter:  17 06:38:05  -250.022003c -4.55  -3.80
iter:  18 06:38:46  -250.022007c -4.94  -3.83
iter:  19 06:39:28  -250.022012c -4.86  -3.88
Writing to output.gpw (mode='')

iter:  20 06:40:13  -250.022012c -5.20  -3.98
iter:  21 06:40:54  -250.022011c -4.94  -4.10c
iter:  22 06:41:35  -250.022012c -5.22  -4.33c
iter:  23 06:42:16  -250.022013c -5.30  -4.42c
iter:  24 06:42:57  -250.022013c -5.58  -4.41c
Writing to output.gpw (mode='')

iter:  25 06:43:39  -250.022013c -5.71  -4.46c
iter:  26 06:44:20  -250.022013c -5.76  -4.60c
iter:  27 06:45:02  -250.022014c -5.68  -4.62c
iter:  28 06:45:43  -250.022014c -5.51  -4.76c
iter:  29 06:46:24  -250.022014c -6.11  -4.85c
Writing to output.gpw (mode='')

iter:  30 06:47:06  -250.022014c -5.94  -5.01c
iter:  31 06:47:47  -250.022014c -6.36  -5.16c
iter:  32 06:48:29  -250.022014c -6.37  -5.18c
iter:  33 06:49:10  -250.022014c -6.43  -5.13c
iter:  34 06:49:51  -250.022014c -6.62  -5.34c
Writing to output.gpw (mode='')

iter:  35 06:50:33  -250.022014c -6.51  -5.38c
iter:  36 06:51:14  -250.022015c -6.39  -5.61c
iter:  37 06:51:56  -250.022015c -6.49  -5.57c
iter:  38 06:52:37  -250.022015c -6.49  -5.52c
iter:  39 06:53:18  -250.022015c -6.87  -5.37c
Writing to output.gpw (mode='')

iter:  40 06:54:01  -250.022015c -6.93  -5.10c
iter:  41 06:54:42  -250.022015c -6.96  -5.21c
iter:  42 06:55:23  -250.022015c -6.83  -5.16c
iter:  43 06:56:04  -250.022015c -7.05  -5.19c
iter:  44 06:56:45  -250.022014c -6.98  -5.24c
Writing to output.gpw (mode='')

iter:  45 06:57:27  -250.022015c -7.19  -5.36c
iter:  46 06:58:09  -250.022015c -6.97  -5.46c
iter:  47 06:58:50  -250.022015c -7.21  -5.57c
iter:  48 06:59:31  -250.022015c -6.80  -5.66c
iter:  49 07:00:12  -250.022015c -7.31  -5.64c
Writing to output.gpw (mode='')

iter:  50 07:00:57  -250.022015c -7.09  -5.71c
iter:  51 07:01:38  -250.022015c -7.01  -5.74c
iter:  52 07:02:20  -250.022015c -7.39  -5.96c
iter:  53 07:03:01  -250.022015c -7.54c -5.92c

Converged after 53 iterations.

Dipole moment: (-17.538152, -3.305098, 0.036031) |e|*Ang

Energy contributions relative to reference atoms: (reference = -12990.375485)

Kinetic:       +131.074297
Potential:     -116.949932
External:        +0.000000
XC:            -264.468317
Entropy (-ST):   -0.144030
Local:           +0.393953
--------------------------
Free energy:   -250.094030
Extrapolated:  -250.022015

Dipole-layer corrected work functions: 3.392339, 3.323076 eV

Showing only first 2 kpts
 Kpt  Band  Eigenvalues  Occupancy
  0    25     -3.60541    1.98599
  0    26     -3.50031    1.89085
  0    27     -3.19712    0.07746
  0    28     -3.10221    0.01200

  1    25     -3.40259    1.42089
  1    26     -3.35235    0.94648
  1    27     -3.33076    0.73685
  1    28     -3.26369    0.26471


Fermi level: -3.35771

No gap
Writing to output.gpw (mode='')


Forces in eV/Ang:
  0 Li    0.01282    0.00000   -0.27242
  1 Li   -0.00111    0.00000   -0.26612
  2 Li   -0.01203    0.00000   -0.27216
  3 Li    0.00236    0.00644   -0.27112
  4 Li    0.00044   -0.00021   -0.28163
  5 Li   -0.00234    0.00773   -0.27108
  6 Li    0.00236   -0.00644   -0.27112
  7 Li    0.00044    0.00021   -0.28163
  8 Li   -0.00234   -0.00774   -0.27108
  9 Li    0.00008    0.01414    0.29648
 10 Li    0.01979   -0.00645    0.24912
 11 Li   -0.01935   -0.00718    0.24999
 12 Li    0.00008   -0.01414    0.29648
 13 Li    0.01979    0.00645    0.24912
 14 Li   -0.01935    0.00718    0.24999
 15 Li   -0.00020   -0.00000    0.23969
 16 Li   -0.02803   -0.00000    0.26679
 17 Li    0.02757   -0.00000    0.26528
 18 Li    0.04568   -0.00000   -0.04374
 19 Li    0.00120   -0.00000    0.05099
 20 Li   -0.04630   -0.00000   -0.05291
 21 Li   -0.01686   -0.01914    0.05609
 22 Li    0.00026    0.01152    0.02745
 23 Li    0.01597   -0.01876    0.05507
 24 Li   -0.01686    0.01914    0.05609
 25 Li    0.00026   -0.01152    0.02745
 26 Li    0.01597    0.01876    0.05507
 27 Li   -0.00120    0.08440    0.03120
 28 Li    0.03252   -0.01589   -0.05277
 29 Li   -0.03670   -0.01901   -0.04393
 30 Li   -0.00120   -0.08437    0.03118
 31 Li    0.03252    0.01589   -0.05277
 32 Li   -0.03670    0.01900   -0.04393
 33 Li    0.00068    0.00000   -0.02139
 34 Li   -0.00988    0.00000   -0.01604
 35 Li    0.00955    0.00000   -0.01618
 36 F    -0.31009    0.00010   11.09808
 37 H     0.37994    0.00001    0.51651
 38 N    -0.41927   -0.00025   -3.48621
 39 N     0.29708   -0.00000   -8.12034

System changes: positions 

Initializing position-dependent things.

Density initialized from wave functions
       .-----------------------.  
      /|                       |  
     / |                       |  
    /  |                       |  
   /   |                       |  
  /    |                       |  
 *     |                       |  
 |     |                       |  
 |     |                       |  
 |     |                       |  
 |     |                       |  
 |     |                       |  
 |     |                       |  
 |F H  |                       |  
 |     |       Li      Li      |  
 |N    |                       |  
 |   Li|     Li      Li        |  
 |     |  Li      Li      Ni   |  
 |     |   Li      Li      Li  |  
 |     |Li      Li      Li     |  
 |     |                 Li    |  
 |   LLi     LLi     LLi       |  
 |     |  Li      Li      Li   |  
 | Li  |   Li      Li          |  
 |     |Li      Li      Li     |  
 Li    | Li      Li            |  
 |    Li      Li      Li       |  
 |     |                       |  
 |     |                       |  
 |     |                       |  
 |     |                       |  
 |     |                       |  
 |     |                       |  
 |     .-----------------------.  
 |    /                       /   
 |   /                       /    
 |  /                       /     
 | /                       /      
 |/                       /       
 *-----------------------*        

Positions:
   0 Li     1.617037    1.617037   10.000000    ( 0.0000,  0.0000,  0.0000)
   1 Li     4.851111    1.617037   10.000000    ( 0.0000,  0.0000,  0.0000)
   2 Li     8.085185    1.617037   10.000000    ( 0.0000,  0.0000,  0.0000)
   3 Li     1.617037    4.851111   10.000000    ( 0.0000,  0.0000,  0.0000)
   4 Li     4.851111    4.851111   10.000000    ( 0.0000,  0.0000,  0.0000)
   5 Li     8.085185    4.851111   10.000000    ( 0.0000,  0.0000,  0.0000)
   6 Li     1.617037    8.085185   10.000000    ( 0.0000,  0.0000,  0.0000)
   7 Li     4.851111    8.085185   10.000000    ( 0.0000,  0.0000,  0.0000)
   8 Li     8.085185    8.085185   10.000000    ( 0.0000,  0.0000,  0.0000)
   9 Li     0.000000    0.000000   11.617037    ( 0.0000,  0.0000,  0.0000)
  10 Li     3.234074    0.000000   11.617037    ( 0.0000,  0.0000,  0.0000)
  11 Li     6.468148    0.000000   11.617037    ( 0.0000,  0.0000,  0.0000)
  12 Li     0.000000    3.234074   11.617037    ( 0.0000,  0.0000,  0.0000)
  13 Li     3.234074    3.234074   11.617037    ( 0.0000,  0.0000,  0.0000)
  14 Li     6.468148    3.234074   11.617037    ( 0.0000,  0.0000,  0.0000)
  15 Li     0.000000    6.468148   11.617037    ( 0.0000,  0.0000,  0.0000)
  16 Li     3.234074    6.468148   11.617037    ( 0.0000,  0.0000,  0.0000)
  17 Li     6.468148    6.468148   11.617037    ( 0.0000,  0.0000,  0.0000)
  18 Li     1.618802    1.617038   13.468019    ( 0.0000,  0.0000,  0.0000)
  19 Li     4.851156    1.617038   13.471736    ( 0.0000,  0.0000,  0.0000)
  20 Li     8.083396    1.617038   13.467627    ( 0.0000,  0.0000,  0.0000)
  21 Li     1.616403    4.850334   13.471916    ( 0.0000,  0.0000,  0.0000)
  22 Li     4.851123    4.851615   13.470724    ( 0.0000,  0.0000,  0.0000)
  23 Li     8.085779    4.850348   13.471873    ( 0.0000,  0.0000,  0.0000)
  24 Li     1.616403    8.085961   13.471915    ( 0.0000,  0.0000,  0.0000)
  25 Li     4.851123    8.084679   13.470723    ( 0.0000,  0.0000,  0.0000)
  26 Li     8.085780    8.085947   13.471871    ( 0.0000,  0.0000,  0.0000)
  27 Li    -0.000032    0.002996   15.446607    ( 0.0000,  0.0000,  0.0000)
  28 Li     3.235527   -0.000701   15.443678    ( 0.0000,  0.0000,  0.0000)
  29 Li     6.466521   -0.000829   15.444089    ( 0.0000,  0.0000,  0.0000)
  30 Li    -0.000032    3.231079   15.446605    ( 0.0000,  0.0000,  0.0000)
  31 Li     3.235530    3.234777   15.443678    ( 0.0000,  0.0000,  0.0000)
  32 Li     6.466519    3.234905   15.444089    ( 0.0000,  0.0000,  0.0000)
  33 Li     0.000037    6.468148   15.445148    ( 0.0000,  0.0000,  0.0000)
  34 Li     3.233641    6.468146   15.445360    ( 0.0000,  0.0000,  0.0000)
  35 Li     6.468558    6.468146   15.445342    ( 0.0000,  0.0000,  0.0000)
  36 F      0.015052    1.617030   20.184819    ( 0.0000,  0.0000,  0.0000)
  37 H      0.912084    1.617037   19.954191    ( 0.0000,  0.0000,  0.0000)
  38 N     -0.012173    1.616987   17.322057    ( 0.0000,  0.0000,  0.0000)
  39 N      0.013862    1.617028   18.420296    ( 0.0000,  0.0000,  0.0000)

Unit cell:
           periodic     x           y           z      points  spacing
  1. axis:    yes    9.702222    0.000000    0.000000    60     0.1617
  2. axis:    yes    0.000000    9.702222    0.000000    60     0.1617
  3. axis:    no     0.000000    0.000000   26.851111   168     0.1598

  Lengths:   9.702222   9.702222  26.851111
  Angles:   90.000000  90.000000  90.000000

Effective grid spacing dv^(1/3) = 0.1611

     iter     time        total  log10-change:
                         energy  eigst   dens
iter:   1 07:03:56  -250.648682  -1.02
iter:   2 07:04:37  -250.642800  -1.67  -1.98
iter:   3 07:05:18  -250.641125c -2.25  -2.22
iter:   4 07:06:00  -250.641573c -1.56  -2.47
Writing to output.gpw (mode='')

iter:   5 07:06:42  -250.639530c -2.56  -2.45
iter:   6 07:07:23  -250.639694c -2.96  -2.64
iter:   7 07:08:04  -250.640722c -2.22  -2.63
iter:   8 07:08:46  -250.639918c -2.05  -2.47
iter:   9 07:09:27  -250.639280c -3.34  -2.80
Writing to output.gpw (mode='')

iter:  10 07:10:09  -250.638979c -3.04  -2.94
iter:  11 07:10:51  -250.638922c -3.59  -2.92
iter:  12 07:11:32  -250.638935c -3.16  -3.05
iter:  13 07:12:13  -250.638886c -4.04  -3.05
iter:  14 07:12:54  -250.638874c -3.76  -3.17
Writing to output.gpw (mode='')

iter:  15 07:13:36  -250.638858c -4.28  -3.36
iter:  16 07:14:18  -250.638859c -4.74  -3.55
iter:  17 07:14:59  -250.638862c -4.78  -3.64
iter:  18 07:15:40  -250.638868c -4.65  -3.68
iter:  19 07:16:21  -250.638865c -4.92  -3.81
Writing to output.gpw (mode='')

iter:  20 07:17:03  -250.638866c -5.36  -3.93
iter:  21 07:17:44  -250.638865c -5.34  -4.03c
iter:  22 07:18:25  -250.638864c -5.48  -4.06c
iter:  23 07:19:06  -250.638861c -5.78  -4.16c
iter:  24 07:19:48  -250.638861c -5.86  -4.24c
Writing to output.gpw (mode='')

iter:  25 07:20:32  -250.638861c -5.81  -4.53c
iter:  26 07:21:13  -250.638862c -5.51  -4.64c
iter:  27 07:21:54  -250.638862c -5.84  -4.67c
iter:  28 07:22:36  -250.638862c -6.19  -4.78c
iter:  29 07:23:17  -250.638862c -6.15  -4.88c
Writing to output.gpw (mode='')

iter:  30 07:23:59  -250.638862c -6.41  -4.92c
iter:  31 07:24:40  -250.638862c -6.65  -5.10c
iter:  32 07:25:21  -250.638862c -6.34  -5.24c
iter:  33 07:26:02  -250.638862c -6.61  -5.30c
iter:  34 07:26:43  -250.638862c -6.57  -5.36c
Writing to output.gpw (mode='')

iter:  35 07:27:29  -250.638862c -6.54  -5.51c
iter:  36 07:28:11  -250.638862c -6.25  -5.53c
iter:  37 07:28:52  -250.638862c -6.53  -5.51c
iter:  38 07:29:33  -250.638862c -6.46  -5.56c
iter:  39 07:30:14  -250.638862c -7.05  -5.50c
Writing to output.gpw (mode='')

iter:  40 07:30:56  -250.638862c -7.17  -5.47c
iter:  41 07:31:37  -250.638862c -7.16  -5.47c
iter:  42 07:32:18  -250.638862c -7.25  -5.56c
iter:  43 07:32:59  -250.638862c -7.27  -5.45c
iter:  44 07:33:40  -250.638862c -7.20  -5.60c
Writing to output.gpw (mode='')

iter:  45 07:34:23  -250.638862c -7.26  -5.66c
iter:  46 07:35:04  -250.638862c -7.23  -5.56c
iter:  47 07:35:45  -250.638862c -7.59c -5.75c

Converged after 47 iterations.

Dipole moment: (-17.706240, -3.271451, -0.002529) |e|*Ang

Energy contributions relative to reference atoms: (reference = -12990.375485)

Kinetic:       +127.649644
Potential:     -114.531268
External:        +0.000000
XC:            -264.084786
Entropy (-ST):   -0.143761
Local:           +0.399428
--------------------------
Free energy:   -250.710743
Extrapolated:  -250.638862

Dipole-layer corrected work functions: 3.393234, 3.398097 eV

Showing only first 2 kpts
 Kpt  Band  Eigenvalues  Occupancy
  0    25     -3.64305    1.98590
  0    26     -3.53691    1.88800
  0    27     -3.23533    0.07782
  0    28     -3.14021    0.01201

  1    25     -3.44106    1.42517
  1    26     -3.39006    0.94398
  1    27     -3.36921    0.74149
  1    28     -3.29952    0.25508


Fermi level: -3.39567

No gap
Writing to output.gpw (mode='')


Forces in eV/Ang:
  0 Li    0.01295    0.00000   -0.27249
  1 Li   -0.00133   -0.00000   -0.26578
  2 Li   -0.01202    0.00000   -0.27235
  3 Li    0.00261    0.00635   -0.27124
  4 Li    0.00054    0.00010   -0.28199
  5 Li   -0.00251    0.00788   -0.27126
  6 Li    0.00261   -0.00635   -0.27124
  7 Li    0.00054   -0.00010   -0.28199
  8 Li   -0.00251   -0.00788   -0.27126
  9 Li    0.00009    0.01439    0.29742
 10 Li    0.02030   -0.00676    0.24914
 11 Li   -0.01970   -0.00763    0.25001
 12 Li    0.00009   -0.01439    0.29741
 13 Li    0.02030    0.00676    0.24914
 14 Li   -0.01970    0.00763    0.25001
 15 Li   -0.00017   -0.00000    0.23999
 16 Li   -0.02887   -0.00000    0.26709
 17 Li    0.02812   -0.00000    0.26579
 18 Li    0.04610   -0.00000   -0.04395
 19 Li    0.00143   -0.00000    0.04927
 20 Li   -0.04700   -0.00000   -0.05482
 21 Li   -0.01720   -0.01900    0.05491
 22 Li    0.00014    0.01130    0.02668
 23 Li    0.01618   -0.01859    0.05385
 24 Li   -0.01720    0.01900    0.05491
 25 Li    0.00014   -0.01130    0.02668
 26 Li    0.01618    0.01859    0.05386
 27 Li   -0.00182    0.09075    0.03415
 28 Li    0.03101   -0.01496   -0.05182
 29 Li   -0.03619   -0.01872   -0.04243
 30 Li   -0.00182   -0.09070    0.03411
 31 Li    0.03101    0.01495   -0.05182
 32 Li   -0.03619    0.01871   -0.04243
 33 Li    0.00048    0.00000   -0.02083
 34 Li   -0.00900    0.00000   -0.01578
 35 Li    0.00905    0.00000   -0.01561
 36 F    -0.04454   -0.00005    9.18390
 37 H     0.11044    0.00002    0.50250
 38 N    -0.36556   -0.00034   -2.70187
 39 N     0.30035    0.00032   -6.92719

System changes: positions 

Initializing position-dependent things.

Density initialized from wave functions
       .-----------------------.  
      /|                       |  
     / |                       |  
    /  |                       |  
   /   |                       |  
  /    |                       |  
 *     |                       |  
 |     |                       |  
 |     |                       |  
 |     |                       |  
 |     |                       |  
 |     |                       |  
 |     |                       |  
 |F H  |                       |  
 |     |       Li      Li      |  
 |N    |                       |  
 |   Li|     Li      Li        |  
 |     |  Li      Li      Ni   |  
 |     |   Li      Li      Li  |  
 |     |Li      Li      Li     |  
 |     |                 Li    |  
 |   LLi     LLi     LLi       |  
 |     |  Li      Li      Li   |  
 | Li  |   Li      Li          |  
 |     |Li      Li      Li     |  
 Li    | Li      Li            |  
 |    Li      Li      Li       |  
 |     |                       |  
 |     |                       |  
 |     |                       |  
 |     |                       |  
 |     |                       |  
 |     |                       |  
 |     .-----------------------.  
 |    /                       /   
 |   /                       /    
 |  /                       /     
 | /                       /      
 |/                       /       
 *-----------------------*        

Positions:
   0 Li     1.617037    1.617037   10.000000    ( 0.0000,  0.0000,  0.0000)
   1 Li     4.851111    1.617037   10.000000    ( 0.0000,  0.0000,  0.0000)
   2 Li     8.085185    1.617037   10.000000    ( 0.0000,  0.0000,  0.0000)
   3 Li     1.617037    4.851111   10.000000    ( 0.0000,  0.0000,  0.0000)
   4 Li     4.851111    4.851111   10.000000    ( 0.0000,  0.0000,  0.0000)
   5 Li     8.085185    4.851111   10.000000    ( 0.0000,  0.0000,  0.0000)
   6 Li     1.617037    8.085185   10.000000    ( 0.0000,  0.0000,  0.0000)
   7 Li     4.851111    8.085185   10.000000    ( 0.0000,  0.0000,  0.0000)
   8 Li     8.085185    8.085185   10.000000    ( 0.0000,  0.0000,  0.0000)
   9 Li     0.000000    0.000000   11.617037    ( 0.0000,  0.0000,  0.0000)
  10 Li     3.234074    0.000000   11.617037    ( 0.0000,  0.0000,  0.0000)
  11 Li     6.468148    0.000000   11.617037    ( 0.0000,  0.0000,  0.0000)
  12 Li     0.000000    3.234074   11.617037    ( 0.0000,  0.0000,  0.0000)
  13 Li     3.234074    3.234074   11.617037    ( 0.0000,  0.0000,  0.0000)
  14 Li     6.468148    3.234074   11.617037    ( 0.0000,  0.0000,  0.0000)
  15 Li     0.000000    6.468148   11.617037    ( 0.0000,  0.0000,  0.0000)
  16 Li     3.234074    6.468148   11.617037    ( 0.0000,  0.0000,  0.0000)
  17 Li     6.468148    6.468148   11.617037    ( 0.0000,  0.0000,  0.0000)
  18 Li     1.619545    1.617038   13.467307    ( 0.0000,  0.0000,  0.0000)
  19 Li     4.851180    1.617038   13.472496    ( 0.0000,  0.0000,  0.0000)
  20 Li     8.082635    1.617038   13.466710    ( 0.0000,  0.0000,  0.0000)
  21 Li     1.616130    4.850024   13.472772    ( 0.0000,  0.0000,  0.0000)
  22 Li     4.851125    4.851808   13.471114    ( 0.0000,  0.0000,  0.0000)
  23 Li     8.086034    4.850045   13.472709    ( 0.0000,  0.0000,  0.0000)
  24 Li     1.616129    8.086271   13.472770    ( 0.0000,  0.0000,  0.0000)
  25 Li     4.851125    8.084486   13.471114    ( 0.0000,  0.0000,  0.0000)
  26 Li     8.086034    8.086250   13.472708    ( 0.0000,  0.0000,  0.0000)
  27 Li    -0.000065    0.004474   15.447037    ( 0.0000,  0.0000,  0.0000)
  28 Li     3.236050   -0.000948   15.442810    ( 0.0000,  0.0000,  0.0000)
  29 Li     6.465902   -0.001144   15.443401    ( 0.0000,  0.0000,  0.0000)
  30 Li    -0.000065    3.229601   15.447035    ( 0.0000,  0.0000,  0.0000)
  31 Li     3.236052    3.235025   15.442809    ( 0.0000,  0.0000,  0.0000)
  32 Li     6.465899    3.235221   15.443401    ( 0.0000,  0.0000,  0.0000)
  33 Li     0.000046    6.468148   15.444839    ( 0.0000,  0.0000,  0.0000)
  34 Li     3.233498    6.468146   15.445127    ( 0.0000,  0.0000,  0.0000)
  35 Li     6.468704    6.468146   15.445113    ( 0.0000,  0.0000,  0.0000)
  36 F      0.020662    1.617023   20.224423    ( 0.0000,  0.0000,  0.0000)
  37 H      0.905903    1.617037   19.957129    ( 0.0000,  0.0000,  0.0000)
  38 N     -0.016439    1.616976   17.300121    ( 0.0000,  0.0000,  0.0000)
  39 N      0.018731    1.617045   18.400642    ( 0.0000,  0.0000,  0.0000)

Unit cell:
           periodic     x           y           z      points  spacing
  1. axis:    yes    9.702222    0.000000    0.000000    60     0.1617
  2. axis:    yes    0.000000    9.702222    0.000000    60     0.1617
  3. axis:    no     0.000000    0.000000   26.851111   168     0.1598

  Lengths:   9.702222   9.702222  26.851111
  Angles:   90.000000  90.000000  90.000000

Effective grid spacing dv^(1/3) = 0.1611

     iter     time        total  log10-change:
                         energy  eigst   dens
iter:   1 07:36:41  -251.180670  -0.99
iter:   2 07:37:22  -251.159287  -1.45  -1.80
iter:   3 07:38:03  -251.154401c -2.24  -2.05
iter:   4 07:38:44  -251.154587c -1.49  -2.42
Writing to output.gpw (mode='')

iter:   5 07:39:26  -251.151682c -2.44  -2.30
iter:   6 07:40:08  -251.151537c -2.42  -2.59
iter:   7 07:40:49  -251.152439c -2.50  -2.87
iter:   8 07:41:30  -251.151627c -2.84  -2.78
iter:   9 07:42:12  -251.151431c -3.19  -2.83
Writing to output.gpw (mode='')

iter:  10 07:42:54  -251.151415c -3.22  -3.18
iter:  11 07:43:35  -251.151443c -3.89  -3.35
iter:  12 07:44:17  -251.151409c -4.01  -3.30
iter:  13 07:44:58  -251.151410c -3.80  -3.46
iter:  14 07:45:39  -251.151403c -4.30  -3.54
Writing to output.gpw (mode='')

iter:  15 07:46:24  -251.151406c -4.56  -3.62
iter:  16 07:47:05  -251.151414c -4.87  -3.68
iter:  17 07:47:46  -251.151420c -4.77  -3.81
iter:  18 07:48:27  -251.151418c -4.98  -3.98
iter:  19 07:49:09  -251.151416c -5.19  -4.07c
Writing to output.gpw (mode='')

iter:  20 07:49:51  -251.151417c -5.66  -4.29c
iter:  21 07:50:32  -251.151417c -5.66  -4.38c
iter:  22 07:51:13  -251.151418c -5.79  -4.48c
iter:  23 07:51:54  -251.151418c -5.80  -4.52c
iter:  24 07:52:36  -251.151417c -5.84  -4.57c
Writing to output.gpw (mode='')

iter:  25 07:53:21  -251.151416c -6.01  -4.90c
iter:  26 07:54:02  -251.151416c -6.15  -4.87c
iter:  27 07:54:43  -251.151417c -6.19  -4.92c
iter:  28 07:55:24  -251.151417c -6.43  -5.08c
iter:  29 07:56:06  -251.151417c -6.42  -5.13c
Writing to output.gpw (mode='')

iter:  30 07:56:48  -251.151417c -6.52  -5.17c
iter:  31 07:57:29  -251.151417c -6.74  -5.12c
iter:  32 07:58:10  -251.151417c -6.59  -5.17c
iter:  33 07:58:51  -251.151417c -6.83  -5.16c
iter:  34 07:59:32  -251.151417c -6.41  -5.13c
Writing to output.gpw (mode='')

iter:  35 08:00:14  -251.151418c -6.50  -5.09c
iter:  36 08:00:55  -251.151418c -7.00  -5.04c
iter:  37 08:01:36  -251.151417c -6.91  -5.00c
iter:  38 08:02:18  -251.151418c -6.87  -5.02c
iter:  39 08:02:59  -251.151418c -7.11  -4.94c
Writing to output.gpw (mode='')

iter:  40 08:03:40  -251.151418c -6.97  -4.98c
iter:  41 08:04:21  -251.151418c -7.11  -5.06c
iter:  42 08:05:02  -251.151417c -7.20  -4.97c
iter:  43 08:05:44  -251.151418c -6.91  -5.16c
iter:  44 08:06:25  -251.151418c -7.01  -5.06c
Writing to output.gpw (mode='')

iter:  45 08:07:06  -251.151418c -7.24  -5.06c
iter:  46 08:07:48  -251.151418c -7.14  -5.15c
iter:  47 08:08:29  -251.151418c -7.21  -5.21c
iter:  48 08:09:10  -251.151418c -7.13  -5.22c
iter:  49 08:09:51  -251.151418c -7.31  -5.24c
Writing to output.gpw (mode='')

iter:  50 08:10:33  -251.151418c -7.66c -5.57c

Converged after 50 iterations.

Dipole moment: (-18.201925, -3.247822, -0.038460) |e|*Ang

Energy contributions relative to reference atoms: (reference = -12990.375485)

Kinetic:       +125.180945
Potential:     -112.808505
External:        +0.000000
XC:            -263.854368
Entropy (-ST):   -0.143514
Local:           +0.402268
--------------------------
Free energy:   -251.223175
Extrapolated:  -251.151418

Dipole-layer corrected work functions: 3.394044, 3.467977 eV

Showing only first 2 kpts
 Kpt  Band  Eigenvalues  Occupancy
  0    25     -3.67808    1.98581
  0    26     -3.57101    1.88536
  0    27     -3.27086    0.07810
  0    28     -3.17562    0.01203

  1    25     -3.47700    1.43004
  1    26     -3.42515    0.94151
  1    27     -3.40495    0.74511
  1    28     -3.33297    0.24677


Fermi level: -3.43101

No gap

Forces in eV/Ang:
  0 Li    0.01308    0.00000   -0.27253
  1 Li   -0.00157   -0.00000   -0.26545
  2 Li   -0.01198    0.00000   -0.27250
  3 Li    0.00283    0.00625   -0.27133
  4 Li    0.00063    0.00041   -0.28233
  5 Li   -0.00266    0.00803   -0.27142
  6 Li    0.00283   -0.00625   -0.27133
  7 Li    0.00063   -0.00041   -0.28233
  8 Li   -0.00266   -0.00804   -0.27142
  9 Li    0.00010    0.01461    0.29826
 10 Li    0.02088   -0.00714    0.24919
 11 Li   -0.02010   -0.00815    0.25005
 12 Li    0.00010   -0.01461    0.29826
 13 Li    0.02088    0.00714    0.24919
 14 Li   -0.02010    0.00815    0.25005
 15 Li   -0.00015   -0.00000    0.24042
 16 Li   -0.02978   -0.00000    0.26751
 17 Li    0.02871   -0.00000    0.26645
 18 Li    0.04616   -0.00000   -0.04366
 19 Li    0.00168   -0.00000    0.04723
 20 Li   -0.04740    0.00000   -0.05624
 21 Li   -0.01751   -0.01885    0.05358
 22 Li    0.00001    0.01111    0.02567
 23 Li    0.01635   -0.01843    0.05254
 24 Li   -0.01751    0.01885    0.05358
 25 Li    0.00001   -0.01110    0.02567
 26 Li    0.01635    0.01843    0.05254
 27 Li   -0.00251    0.09503    0.03427
 28 Li    0.02943   -0.01397   -0.05082
 29 Li   -0.03565   -0.01842   -0.04098
 30 Li   -0.00250   -0.09496    0.03421
 31 Li    0.02943    0.01397   -0.05082
 32 Li   -0.03565    0.01841   -0.04098
 33 Li    0.00024    0.00000   -0.02004
 34 Li   -0.00815    0.00000   -0.01538
 35 Li    0.00862    0.00000   -0.01490
 36 F    -0.14723   -0.00021    7.55650
 37 H     0.14989    0.00002    0.41926
 38 N    -0.34517   -0.00019   -2.32007
 39 N     0.34474    0.00057   -5.59352

System changes: positions 

Initializing position-dependent things.

Density initialized from wave functions
       .-----------------------.  
      /|                       |  
     / |                       |  
    /  |                       |  
   /   |                       |  
  /    |                       |  
 *     |                       |  
 |     |                       |  
 |     |                       |  
 |     |                       |  
 |     |                       |  
 |     |                       |  
 |     |                       |  
 |F H  |                       |  
 |     |       Li      Li      |  
 |N    |                       |  
 |   Li|     Li      Li        |  
 |     |  Li      Li      Ni   |  
 |     |   Li      Li      Li  |  
 |     |Li      Li      Li     |  
 |     |                 Li    |  
 |   LLi     LLi     LLi       |  
 |     |  Li      Li      Li   |  
 | Li  |   Li      Li          |  
 |     |Li      Li      Li     |  
 Li    | Li      Li            |  
 |    Li      Li      Li       |  
 |     |                       |  
 |     |                       |  
 |     |                       |  
 |     |                       |  
 |     |                       |  
 |     |                       |  
 |     .-----------------------.  
 |    /                       /   
 |   /                       /    
 |  /                       /     
 | /                       /      
 |/                       /       
 *-----------------------*        

Positions:
   0 Li     1.617037    1.617037   10.000000    ( 0.0000,  0.0000,  0.0000)
   1 Li     4.851111    1.617037   10.000000    ( 0.0000,  0.0000,  0.0000)
   2 Li     8.085185    1.617037   10.000000    ( 0.0000,  0.0000,  0.0000)
   3 Li     1.617037    4.851111   10.000000    ( 0.0000,  0.0000,  0.0000)
   4 Li     4.851111    4.851111   10.000000    ( 0.0000,  0.0000,  0.0000)
   5 Li     8.085185    4.851111   10.000000    ( 0.0000,  0.0000,  0.0000)
   6 Li     1.617037    8.085185   10.000000    ( 0.0000,  0.0000,  0.0000)
   7 Li     4.851111    8.085185   10.000000    ( 0.0000,  0.0000,  0.0000)
   8 Li     8.085185    8.085185   10.000000    ( 0.0000,  0.0000,  0.0000)
   9 Li     0.000000    0.000000   11.617037    ( 0.0000,  0.0000,  0.0000)
  10 Li     3.234074    0.000000   11.617037    ( 0.0000,  0.0000,  0.0000)
  11 Li     6.468148    0.000000   11.617037    ( 0.0000,  0.0000,  0.0000)
  12 Li     0.000000    3.234074   11.617037    ( 0.0000,  0.0000,  0.0000)
  13 Li     3.234074    3.234074   11.617037    ( 0.0000,  0.0000,  0.0000)
  14 Li     6.468148    3.234074   11.617037    ( 0.0000,  0.0000,  0.0000)
  15 Li     0.000000    6.468148   11.617037    ( 0.0000,  0.0000,  0.0000)
  16 Li     3.234074    6.468148   11.617037    ( 0.0000,  0.0000,  0.0000)
  17 Li     6.468148    6.468148   11.617037    ( 0.0000,  0.0000,  0.0000)
  18 Li     1.620432    1.617038   13.466462    ( 0.0000,  0.0000,  0.0000)
  19 Li     4.851213    1.617038   13.473374    ( 0.0000,  0.0000,  0.0000)
  20 Li     8.081721    1.617038   13.465598    ( 0.0000,  0.0000,  0.0000)
  21 Li     1.615797    4.849659   13.473774    ( 0.0000,  0.0000,  0.0000)
  22 Li     4.851124    4.852032   13.471570    ( 0.0000,  0.0000,  0.0000)
  23 Li     8.086342    4.849687   13.473689    ( 0.0000,  0.0000,  0.0000)
  24 Li     1.615797    8.086636   13.473773    ( 0.0000,  0.0000,  0.0000)
  25 Li     4.851124    8.084262   13.471570    ( 0.0000,  0.0000,  0.0000)
  26 Li     8.086342    8.086608   13.473688    ( 0.0000,  0.0000,  0.0000)
  27 Li    -0.000116    0.006315   15.447584    ( 0.0000,  0.0000,  0.0000)
  28 Li     3.236640   -0.001224   15.441799    ( 0.0000,  0.0000,  0.0000)
  29 Li     6.465180   -0.001512   15.442608    ( 0.0000,  0.0000,  0.0000)
  30 Li    -0.000116    3.227762   15.447580    ( 0.0000,  0.0000,  0.0000)
  31 Li     3.236642    3.235301   15.441798    ( 0.0000,  0.0000,  0.0000)
  32 Li     6.465177    3.235589   15.442607    ( 0.0000,  0.0000,  0.0000)
  33 Li     0.000051    6.468148   15.444479    ( 0.0000,  0.0000,  0.0000)
  34 Li     3.233342    6.468146   15.444851    ( 0.0000,  0.0000,  0.0000)
  35 Li     6.468870    6.468146   15.444847    ( 0.0000,  0.0000,  0.0000)
  36 F      0.024433    1.617012   20.264245    ( 0.0000,  0.0000,  0.0000)
  37 H      0.900675    1.617038   19.960210    ( 0.0000,  0.0000,  0.0000)
  38 N     -0.021483    1.616967   17.277529    ( 0.0000,  0.0000,  0.0000)
  39 N      0.025302    1.617068   18.381567    ( 0.0000,  0.0000,  0.0000)

Unit cell:
           periodic     x           y           z      points  spacing
  1. axis:    yes    9.702222    0.000000    0.000000    60     0.1617
  2. axis:    yes    0.000000    9.702222    0.000000    60     0.1617
  3. axis:    no     0.000000    0.000000   26.851111   168     0.1598

  Lengths:   9.702222   9.702222  26.851111
  Angles:   90.000000  90.000000  90.000000

Effective grid spacing dv^(1/3) = 0.1611

     iter     time        total  log10-change:
                         energy  eigst   dens
iter:   1 08:11:28  -251.583516  -1.08
iter:   2 08:12:08  -251.578628  -1.77  -2.02
iter:   3 08:12:50  -251.577250c -2.33  -2.27
iter:   4 08:13:31  -251.576875c -1.71  -2.50
Writing to output.gpw (mode='')

iter:   5 08:14:13  -251.575629c -2.76  -2.58
iter:   6 08:14:54  -251.575420c -2.93  -2.77
iter:   7 08:15:35  -251.576341c -2.84  -2.90
iter:   8 08:16:16  -251.575379c -2.73  -2.88
iter:   9 08:16:57  -251.575429c -3.84  -2.94
Writing to output.gpw (mode='')

iter:  10 08:17:39  -251.575304c -3.32  -3.22
iter:  11 08:18:21  -251.575303c -4.24  -3.47
iter:  12 08:19:02  -251.575302c -4.44  -3.55
iter:  13 08:19:43  -251.575298c -4.66  -3.57
iter:  14 08:20:24  -251.575298c -4.59  -3.69
Writing to output.gpw (mode='')

iter:  15 08:21:06  -251.575299c -5.07  -3.79
iter:  16 08:21:48  -251.575305c -5.04  -3.84
iter:  17 08:22:29  -251.575306c -5.28  -3.87
iter:  18 08:23:10  -251.575305c -5.04  -3.97
iter:  19 08:23:51  -251.575305c -5.16  -4.32c
Writing to output.gpw (mode='')

iter:  20 08:24:38  -251.575305c -5.66  -4.36c
iter:  21 08:25:19  -251.575305c -5.58  -4.41c
iter:  22 08:26:00  -251.575304c -5.68  -4.45c
iter:  23 08:26:42  -251.575305c -5.51  -4.62c
iter:  24 08:27:23  -251.575305c -6.11  -4.56c
Writing to output.gpw (mode='')

iter:  25 08:28:05  -251.575307c -5.97  -4.67c
iter:  26 08:28:46  -251.575307c -5.88  -4.78c
iter:  27 08:29:27  -251.575307c -5.66  -4.97c
iter:  28 08:30:08  -251.575307c -6.26  -5.02c
iter:  29 08:30:49  -251.575307c -6.44  -5.07c
Writing to output.gpw (mode='')

iter:  30 08:31:32  -251.575307c -6.40  -5.26c
iter:  31 08:32:13  -251.575307c -6.73  -5.28c
iter:  32 08:32:54  -251.575307c -6.69  -5.25c
iter:  33 08:33:34  -251.575307c -6.82  -5.23c
iter:  34 08:34:15  -251.575307c -6.87  -5.18c
Writing to output.gpw (mode='')

iter:  35 08:34:57  -251.575307c -7.02  -5.16c
iter:  36 08:35:37  -251.575308c -6.99  -5.16c
iter:  37 08:36:18  -251.575307c -6.93  -5.18c
iter:  38 08:36:59  -251.575307c -6.96  -5.28c
iter:  39 08:37:40  -251.575307c -7.15  -5.45c
Writing to output.gpw (mode='')

iter:  40 08:38:26  -251.575307c -7.26  -5.65c
iter:  41 08:39:07  -251.575307c -7.19  -5.71c
iter:  42 08:39:48  -251.575307c -7.03  -5.78c
iter:  43 08:40:29  -251.575307c -7.14  -5.85c
iter:  44 08:41:09  -251.575307c -7.29  -5.97c
Writing to output.gpw (mode='')

iter:  45 08:41:51  -251.575307c -7.19  -6.01c
iter:  46 08:42:32  -251.575307c -7.10  -6.07c
iter:  47 08:43:13  -251.575307c -7.36  -6.12c
iter:  48 08:43:54  -251.575307c -7.33  -6.16c
iter:  49 08:44:35  -251.575307c -7.42c -6.27c

Converged after 49 iterations.

Dipole moment: (-18.587378, -3.225379, -0.074993) |e|*Ang

Energy contributions relative to reference atoms: (reference = -12990.375485)

Kinetic:       +122.594389
Potential:     -110.954889
External:        +0.000000
XC:            -263.549465
Entropy (-ST):   -0.143303
Local:           +0.406309
--------------------------
Free energy:   -251.646959
Extrapolated:  -251.575307

Dipole-layer corrected work functions: 3.395022, 3.539185 eV

Showing only first 2 kpts
 Kpt  Band  Eigenvalues  Occupancy
  0    25     -3.71382    1.98571
  0    26     -3.60569    1.88226
  0    27     -3.30729    0.07861
  0    28     -3.21188    0.01207

  1    25     -3.51386    1.43621
  1    26     -3.46095    0.93854
  1    27     -3.44140    0.74850
  1    28     -3.36699    0.23791


Fermi level: -3.46710

No gap
Writing to output.gpw (mode='')


Forces in eV/Ang:
  0 Li    0.01328    0.00000   -0.27261
  1 Li   -0.00189   -0.00000   -0.26511
  2 Li   -0.01196    0.00000   -0.27270
  3 Li    0.00308    0.00612   -0.27147
  4 Li    0.00076    0.00074   -0.28275
  5 Li   -0.00279    0.00825   -0.27164
  6 Li    0.00308   -0.00612   -0.27147
  7 Li    0.00076   -0.00074   -0.28275
  8 Li   -0.00279   -0.00826   -0.27164
  9 Li    0.00011    0.01478    0.29922
 10 Li    0.02153   -0.00755    0.24930
 11 Li   -0.02052   -0.00876    0.25015
 12 Li    0.00011   -0.01478    0.29921
 13 Li    0.02154    0.00755    0.24930
 14 Li   -0.02052    0.00876    0.25015
 15 Li   -0.00014   -0.00001    0.24090
 16 Li   -0.03077    0.00000    0.26801
 17 Li    0.02930   -0.00000    0.26723
 18 Li    0.04599   -0.00000   -0.04320
 19 Li    0.00202   -0.00000    0.04491
 20 Li   -0.04768    0.00000   -0.05800
 21 Li   -0.01783   -0.01860    0.05193
 22 Li   -0.00016    0.01081    0.02454
 23 Li    0.01648   -0.01818    0.05092
 24 Li   -0.01783    0.01860    0.05194
 25 Li   -0.00016   -0.01081    0.02454
 26 Li    0.01648    0.01818    0.05092
 27 Li   -0.00343    0.10056    0.03638
 28 Li    0.02756   -0.01277   -0.04951
 29 Li   -0.03511   -0.01812   -0.03915
 30 Li   -0.00343   -0.10046    0.03630
 31 Li    0.02755    0.01277   -0.04951
 32 Li   -0.03511    0.01812   -0.03915
 33 Li   -0.00007    0.00000   -0.01922
 34 Li   -0.00709    0.00000   -0.01497
 35 Li    0.00811    0.00000   -0.01410
 36 F     0.07941   -0.00031    6.17128
 37 H    -0.03141    0.00003    0.41275
 38 N    -0.32889   -0.00074   -1.73539
 39 N     0.34524    0.00063   -4.78608

System changes: positions 

Initializing position-dependent things.

Density initialized from wave functions
       .-----------------------.  
      /|                       |  
     / |                       |  
    /  |                       |  
   /   |                       |  
  /    |                       |  
 *     |                       |  
 |     |                       |  
 |     |                       |  
 |     |                       |  
 |     |                       |  
 |     |                       |  
 |     |                       |  
 |F H  |                       |  
 |     |       Li      Li      |  
 |N    |                       |  
 |   Li|     Li      Li        |  
 |     |  Li      Li      Ni   |  
 |     |   Li      Li      Li  |  
 |     |Li      Li      Li     |  
 |     |                 Li    |  
 |   LLi     LLi     LLi       |  
 |     |  Li      Li      Li   |  
 | Li  |   Li      Li          |  
 |     |Li      Li      Li     |  
 Li    | Li      Li            |  
 |    Li      Li      Li       |  
 |     |                       |  
[...]
  23 Li     8.070505    4.887758   13.462817    ( 0.0000,  0.0000,  0.0000)
  24 Li     1.599220    8.130660   13.511320    ( 0.0000,  0.0000,  0.0000)
  25 Li     4.855774    8.080433   13.489670    ( 0.0000,  0.0000,  0.0000)
  26 Li     8.116898    8.131576   13.513814    ( 0.0000,  0.0000,  0.0000)
  27 Li     0.012140    0.102730   15.533329    ( 0.0000,  0.0000,  0.0000)
  28 Li     3.271870   -0.011043   15.425099    ( 0.0000,  0.0000,  0.0000)
  29 Li     6.458582   -0.011140   15.427259    ( 0.0000,  0.0000,  0.0000)
  30 Li     0.002087    3.324686   15.332365    ( 0.0000,  0.0000,  0.0000)
  31 Li     3.239872    3.253332   15.387662    ( 0.0000,  0.0000,  0.0000)
  32 Li     6.468740    3.251315   15.387553    ( 0.0000,  0.0000,  0.0000)
  33 Li    -0.000455    6.515789   15.414744    ( 0.0000,  0.0000,  0.0000)
  34 Li     3.229730    6.478105   15.456124    ( 0.0000,  0.0000,  0.0000)
  35 Li     6.474210    6.478028   15.460104    ( 0.0000,  0.0000,  0.0000)
  36 F      0.430470    1.723318   21.280676    ( 0.0000,  0.0000,  0.0000)
  37 H      0.368625    1.657293   20.354645    ( 0.0000,  0.0000,  0.0000)
  38 N      0.020603    0.894215   17.358806    ( 0.0000,  0.0000,  0.0000)
  39 N      0.062109    1.294776   18.402191    ( 0.0000,  0.0000,  0.0000)

Unit cell:
           periodic     x           y           z      points  spacing
  1. axis:    yes    9.702222    0.000000    0.000000    60     0.1617
  2. axis:    yes    0.000000    9.702222    0.000000    60     0.1617
  3. axis:    no     0.000000    0.000000   26.851111   168     0.1598

  Lengths:   9.702222   9.702222  26.851111
  Angles:   90.000000  90.000000  90.000000

Effective grid spacing dv^(1/3) = 0.1611

     iter     time        total  log10-change:
                         energy  eigst   dens
iter:   1 22:25:03  -253.751686  -1.53
iter:   2 22:25:44  -253.747799  -2.11  -2.18
iter:   3 22:26:25  -253.746201c -2.83  -2.28
iter:   4 22:27:06  -253.744911c -2.72  -2.61
Writing to output.gpw (mode='')

iter:   5 22:27:47  -253.745058c -3.38  -2.77
iter:   6 22:28:29  -253.744634c -2.83  -2.82
iter:   7 22:29:09  -253.744520c -3.56  -2.94
iter:   8 22:29:50  -253.744469c -3.70  -3.10
iter:   9 22:30:31  -253.744474c -4.09  -3.25
Writing to output.gpw (mode='')

iter:  10 22:31:14  -253.744508c -4.08  -3.48
iter:  11 22:31:55  -253.744490c -4.39  -3.50
iter:  12 22:32:36  -253.744497c -4.94  -3.48
iter:  13 22:33:17  -253.744484c -4.58  -3.52
iter:  14 22:33:57  -253.744490c -5.40  -3.89
Writing to output.gpw (mode='')

iter:  15 22:34:39  -253.744487c -5.71  -3.98
iter:  16 22:35:20  -253.744483c -5.38  -4.11c
iter:  17 22:36:01  -253.744485c -5.74  -4.26c
iter:  18 22:36:42  -253.744485c -6.09  -4.35c
iter:  19 22:37:23  -253.744486c -6.25  -4.55c
Writing to output.gpw (mode='')

iter:  20 22:38:05  -253.744486c -6.51  -4.60c
iter:  21 22:38:46  -253.744486c -6.59  -4.63c
iter:  22 22:39:26  -253.744488c -6.57  -4.81c
iter:  23 22:40:07  -253.744488c -7.02  -4.76c
iter:  24 22:40:48  -253.744487c -6.84  -4.83c
Writing to output.gpw (mode='')

iter:  25 22:41:30  -253.744487c -7.35  -5.05c
iter:  26 22:42:11  -253.744487c -7.33  -5.19c
iter:  27 22:42:52  -253.744487c -7.17  -5.26c
iter:  28 22:43:33  -253.744487c -7.24  -5.27c
iter:  29 22:44:14  -253.744487c -7.74c -5.50c

Converged after 29 iterations.

Dipole moment: (-25.787373, -4.880504, -0.530338) |e|*Ang

Energy contributions relative to reference atoms: (reference = -12990.375485)

Kinetic:       +111.427976
Potential:     -103.122479
External:        +0.000000
XC:            -262.398005
Entropy (-ST):   -0.146554
Local:           +0.421298
--------------------------
Free energy:   -253.817764
Extrapolated:  -253.744487

Dipole-layer corrected work functions: 3.410201, 4.429692 eV

Showing only first 2 kpts
 Kpt  Band  Eigenvalues  Occupancy
  0    25     -4.17059    1.98679
  0    26     -4.09798    1.94473
  0    27     -3.74000    0.05325
  0    28     -3.70265    0.02559

  1    25     -3.95014    1.29307
  1    26     -3.90014    0.80449
  1    27     -3.89471    0.75283
  1    28     -3.83456    0.30692


Fermi level: -3.91995

No gap
Writing to output.gpw (mode='')


Forces in eV/Ang:
  0 Li    0.00810    0.00171   -0.26948
  1 Li    0.00021   -0.00280   -0.27475
  2 Li   -0.00925    0.00175   -0.26916
  3 Li    0.00089    0.00271   -0.27861
  4 Li   -0.00043   -0.00263   -0.28148
  5 Li   -0.00147    0.00269   -0.27926
  6 Li    0.00252   -0.00798   -0.26660
  7 Li   -0.00033   -0.00364   -0.28532
  8 Li   -0.00336   -0.00791   -0.26734
  9 Li    0.00066   -0.00114    0.26548
 10 Li    0.02805   -0.01319    0.26077
 11 Li   -0.01810   -0.01405    0.26143
 12 Li   -0.00023    0.01795    0.29420
 13 Li    0.02277    0.00664    0.26927
 14 Li   -0.01513    0.00880    0.27008
 15 Li    0.00199    0.01445    0.26049
 16 Li   -0.01119    0.03401    0.26687
 17 Li    0.01732    0.03215    0.27026
 18 Li    0.01202    0.01486    0.02047
 19 Li   -0.00905    0.00003   -0.01844
 20 Li   -0.00980    0.01594    0.00326
 21 Li   -0.01312   -0.00589    0.01212
 22 Li    0.00292    0.00860   -0.01611
 23 Li    0.00411   -0.00448    0.00596
 24 Li    0.00765   -0.01574   -0.00975
 25 Li    0.00074   -0.01087   -0.01008
 26 Li   -0.01728   -0.01786   -0.01573
 27 Li   -0.01288   -0.00024   -0.04237
 28 Li   -0.00934    0.01459    0.00026
 29 Li    0.00056    0.01279    0.00461
 30 Li    0.00155   -0.01041    0.00772
 31 Li   -0.00199   -0.01346    0.00008
 32 Li    0.00176   -0.00996    0.00698
 33 Li    0.00369   -0.00598    0.02203
 34 Li   -0.00446   -0.00098   -0.01097
 35 Li    0.00407   -0.00121   -0.01490
 36 F    -0.01236   -0.01439    0.11252
 37 H    -0.05451   -0.02248   -0.07073
 38 N     0.04572    0.02450    0.15781
 39 N    -0.02212   -0.05418   -0.05146

System changes: positions 

Initializing position-dependent things.

Density initialized from wave functions
       .-----------------------.  
      /|                       |  
     / |                       |  
    /  |                       |  
   /   |                       |  
  /    |                       |  
 *     |                       |  
 |     |                       |  
 |     |                       |  
 |     |                       |  
 |     |                       |  
 |     |                       |  
 | F   |                       |  
 | H   |                       |  
 |     |       Li      Li      |  
 |     |                       |  
 |N    |     Li      Li      Li|  
 |N    |  Li      Li      Li   |  
 | Li  |   Li      Li          |  
 |     |Li      Li      Li     |  
 Li    |                       |  
 |   LLi     LLi     LLi       |  
 |     |  Li      Li      Li   |  
 | Li  |   Li      Li          |  
 |     |Li      Li      Li     |  
 Li    | Li      Li            |  
 |    Li      Li      Li       |  
 |     |                       |  
 |     |                       |  
 |     |                       |  
 |     |                       |  
 |     |                       |  
 |     |                       |  
 |     .-----------------------.  
 |    /                       /   
 |   /                       /    
 |  /                       /     
 | /                       /      
 |/                       /       
 *-----------------------*        

Positions:
   0 Li     1.617037    1.617037   10.000000    ( 0.0000,  0.0000,  0.0000)
   1 Li     4.851111    1.617037   10.000000    ( 0.0000,  0.0000,  0.0000)
   2 Li     8.085185    1.617037   10.000000    ( 0.0000,  0.0000,  0.0000)
   3 Li     1.617037    4.851111   10.000000    ( 0.0000,  0.0000,  0.0000)
   4 Li     4.851111    4.851111   10.000000    ( 0.0000,  0.0000,  0.0000)
   5 Li     8.085185    4.851111   10.000000    ( 0.0000,  0.0000,  0.0000)
   6 Li     1.617037    8.085185   10.000000    ( 0.0000,  0.0000,  0.0000)
   7 Li     4.851111    8.085185   10.000000    ( 0.0000,  0.0000,  0.0000)
   8 Li     8.085185    8.085185   10.000000    ( 0.0000,  0.0000,  0.0000)
   9 Li     0.000000    0.000000   11.617037    ( 0.0000,  0.0000,  0.0000)
  10 Li     3.234074    0.000000   11.617037    ( 0.0000,  0.0000,  0.0000)
  11 Li     6.468148    0.000000   11.617037    ( 0.0000,  0.0000,  0.0000)
  12 Li     0.000000    3.234074   11.617037    ( 0.0000,  0.0000,  0.0000)
  13 Li     3.234074    3.234074   11.617037    ( 0.0000,  0.0000,  0.0000)
  14 Li     6.468148    3.234074   11.617037    ( 0.0000,  0.0000,  0.0000)
  15 Li     0.000000    6.468148   11.617037    ( 0.0000,  0.0000,  0.0000)
  16 Li     3.234074    6.468148   11.617037    ( 0.0000,  0.0000,  0.0000)
  17 Li     6.468148    6.468148   11.617037    ( 0.0000,  0.0000,  0.0000)
  18 Li     1.619983    1.604295   13.450099    ( 0.0000,  0.0000,  0.0000)
  19 Li     4.860806    1.613061   13.487823    ( 0.0000,  0.0000,  0.0000)
  20 Li     8.089087    1.603936   13.458583    ( 0.0000,  0.0000,  0.0000)
  21 Li     1.637532    4.888289   13.459559    ( 0.0000,  0.0000,  0.0000)
  22 Li     4.851183    4.869791   13.490014    ( 0.0000,  0.0000,  0.0000)
  23 Li     8.070708    4.887574   13.462904    ( 0.0000,  0.0000,  0.0000)
  24 Li     1.599573    8.129973   13.510669    ( 0.0000,  0.0000,  0.0000)
  25 Li     4.855822    8.079660   13.488861    ( 0.0000,  0.0000,  0.0000)
  26 Li     8.116077    8.130881   13.512843    ( 0.0000,  0.0000,  0.0000)
  27 Li     0.011284    0.101459   15.530499    ( 0.0000,  0.0000,  0.0000)
  28 Li     3.271280   -0.010036   15.425383    ( 0.0000,  0.0000,  0.0000)
  29 Li     6.458809   -0.010496   15.427967    ( 0.0000,  0.0000,  0.0000)
  30 Li     0.001848    3.326321   15.330134    ( 0.0000,  0.0000,  0.0000)
  31 Li     3.239359    3.252365   15.387692    ( 0.0000,  0.0000,  0.0000)
  32 Li     6.469129    3.250823   15.388143    ( 0.0000,  0.0000,  0.0000)
  33 Li    -0.000240    6.515549   15.415690    ( 0.0000,  0.0000,  0.0000)
  34 Li     3.229548    6.478166   15.455778    ( 0.0000,  0.0000,  0.0000)
  35 Li     6.474414    6.478042   15.459608    ( 0.0000,  0.0000,  0.0000)
  36 F      0.430297    1.724048   21.281263    ( 0.0000,  0.0000,  0.0000)
  37 H      0.366351    1.656291   20.354945    ( 0.0000,  0.0000,  0.0000)
  38 N      0.023168    0.891464   17.364426    ( 0.0000,  0.0000,  0.0000)
  39 N      0.059489    1.292883   18.405656    ( 0.0000,  0.0000,  0.0000)

Unit cell:
           periodic     x           y           z      points  spacing
  1. axis:    yes    9.702222    0.000000    0.000000    60     0.1617
  2. axis:    yes    0.000000    9.702222    0.000000    60     0.1617
  3. axis:    no     0.000000    0.000000   26.851111   168     0.1598

  Lengths:   9.702222   9.702222  26.851111
  Angles:   90.000000  90.000000  90.000000

Effective grid spacing dv^(1/3) = 0.1611

     iter     time        total  log10-change:
                         energy  eigst   dens
iter:   1 22:45:09  -253.746690  -2.48
iter:   2 22:45:50  -253.746323  -3.04  -2.77
iter:   3 22:46:31  -253.746084c -3.49  -2.80
iter:   4 22:47:12  -253.745867c -3.48  -2.98
Writing to output.gpw (mode='')

iter:   5 22:47:54  -253.745863c -4.06  -3.13
iter:   6 22:48:35  -253.745852c -3.42  -3.35
iter:   7 22:49:16  -253.745801c -4.58  -3.21
iter:   8 22:49:57  -253.745789c -4.09  -3.49
iter:   9 22:50:38  -253.745785c -4.56  -3.47
Writing to output.gpw (mode='')

iter:  10 22:51:20  -253.745795c -5.00  -3.66
iter:  11 22:52:01  -253.745787c -4.82  -3.71
iter:  12 22:52:42  -253.745786c -5.58  -3.86
iter:  13 22:53:22  -253.745788c -5.58  -4.07c
iter:  14 22:54:03  -253.745792c -5.67  -4.11c
Writing to output.gpw (mode='')

iter:  15 22:54:45  -253.745792c -5.87  -4.22c
iter:  16 22:55:26  -253.745790c -6.23  -4.19c
iter:  17 22:56:07  -253.745789c -6.09  -4.44c
iter:  18 22:56:48  -253.745788c -6.72  -4.49c
iter:  19 22:57:29  -253.745786c -6.70  -4.59c
Writing to output.gpw (mode='')

iter:  20 22:58:11  -253.745787c -7.06  -4.79c
iter:  21 22:58:52  -253.745788c -7.31  -4.80c
iter:  22 22:59:33  -253.745787c -7.05  -5.01c
iter:  23 23:00:14  -253.745788c -7.59c -5.07c

Converged after 23 iterations.

Dipole moment: (-25.845512, -4.912118, -0.527910) |e|*Ang

Energy contributions relative to reference atoms: (reference = -12990.375485)

Kinetic:       +111.619778
Potential:     -103.291053
External:        +0.000000
XC:            -262.422697
Entropy (-ST):   -0.146492
Local:           +0.421430
--------------------------
Free energy:   -253.819033
Extrapolated:  -253.745788

Dipole-layer corrected work functions: 3.410023, 4.424847 eV

Showing only first 2 kpts
 Kpt  Band  Eigenvalues  Occupancy
  0    25     -4.16827    1.98684
  0    26     -4.09558    1.94486
  0    27     -3.73747    0.05323
  0    28     -3.69933    0.02518

  1    25     -3.94750    1.29194
  1    26     -3.89767    0.80487
  1    27     -3.89203    0.75126
  1    28     -3.83227    0.30808


Fermi level: -3.91744

No gap
Writing to output.gpw (mode='')


Forces in eV/Ang:
  0 Li    0.00814    0.00176   -0.26955
  1 Li    0.00020   -0.00278   -0.27474
  2 Li   -0.00925    0.00177   -0.26923
  3 Li    0.00080    0.00268   -0.27865
  4 Li   -0.00042   -0.00266   -0.28145
  5 Li   -0.00139    0.00260   -0.27923
  6 Li    0.00247   -0.00797   -0.26670
  7 Li   -0.00035   -0.00359   -0.28505
  8 Li   -0.00329   -0.00786   -0.26729
  9 Li    0.00104   -0.00036    0.26669
 10 Li    0.02719   -0.01300    0.26082
 11 Li   -0.01786   -0.01388    0.26105
 12 Li    0.00002    0.01754    0.29428
 13 Li    0.02200    0.00696    0.26917
 14 Li   -0.01481    0.00889    0.26974
 15 Li    0.00193    0.01409    0.26033
 16 Li   -0.01162    0.03342    0.26628
 17 Li    0.01759    0.03191    0.26918
 18 Li    0.01110    0.01371    0.01676
 19 Li   -0.00816    0.00010   -0.01599
 20 Li   -0.00971    0.01470    0.00265
 21 Li   -0.01124   -0.00499    0.01063
 22 Li    0.00259    0.00696   -0.01393
 23 Li    0.00301   -0.00356    0.00512
 24 Li    0.00745   -0.01530   -0.00907
 25 Li    0.00054   -0.00922   -0.00838
 26 Li   -0.01664   -0.01734   -0.01421
 27 Li   -0.00985    0.00731   -0.02163
 28 Li   -0.00812    0.01300   -0.00070
 29 Li   -0.00044    0.01200    0.00254
 30 Li    0.00145   -0.01108    0.00906
 31 Li   -0.00088   -0.01178    0.00011
 32 Li    0.00080   -0.00941    0.00599
 33 Li    0.00320   -0.00524    0.02094
 34 Li   -0.00429   -0.00109   -0.01096
 35 Li    0.00416   -0.00120   -0.01473
 36 F    -0.01198   -0.02164    0.08155
 37 H    -0.05233   -0.01978   -0.03901
 38 N     0.03985   -0.06308   -0.03789
 39 N    -0.01888    0.00715    0.11400

System changes: positions 

Initializing position-dependent things.

Density initialized from wave functions
       .-----------------------.  
      /|                       |  
     / |                       |  
    /  |                       |  
   /   |                       |  
  /    |                       |  
 *     |                       |  
 |     |                       |  
 |     |                       |  
 |     |                       |  
 |     |                       |  
 |     |                       |  
 | F   |                       |  
 | H   |                       |  
 |     |       Li      Li      |  
 |     |                       |  
 |N  Li|     Li      Li        |  
 |N    |  Li      Li      Li   |  
 | Li  |   Li      Li          |  
 |     |Li      Li      Li     |  
 Li    |                       |  
 |   LLi     LLi     LLi       |  
 |     |  Li      Li      Li   |  
 | Li  |   Li      Li          |  
 |     |Li      Li      Li     |  
 Li    | Li      Li            |  
 |    Li      Li      Li       |  
 |     |                       |  
 |     |                       |  
 |     |                       |  
 |     |                       |  
 |     |                       |  
 |     |                       |  
 |     .-----------------------.  
 |    /                       /   
 |   /                       /    
 |  /                       /     
 | /                       /      
 |/                       /       
 *-----------------------*        

Positions:
   0 Li     1.617037    1.617037   10.000000    ( 0.0000,  0.0000,  0.0000)
   1 Li     4.851111    1.617037   10.000000    ( 0.0000,  0.0000,  0.0000)
   2 Li     8.085185    1.617037   10.000000    ( 0.0000,  0.0000,  0.0000)
   3 Li     1.617037    4.851111   10.000000    ( 0.0000,  0.0000,  0.0000)
   4 Li     4.851111    4.851111   10.000000    ( 0.0000,  0.0000,  0.0000)
   5 Li     8.085185    4.851111   10.000000    ( 0.0000,  0.0000,  0.0000)
   6 Li     1.617037    8.085185   10.000000    ( 0.0000,  0.0000,  0.0000)
   7 Li     4.851111    8.085185   10.000000    ( 0.0000,  0.0000,  0.0000)
   8 Li     8.085185    8.085185   10.000000    ( 0.0000,  0.0000,  0.0000)
   9 Li     0.000000    0.000000   11.617037    ( 0.0000,  0.0000,  0.0000)
  10 Li     3.234074    0.000000   11.617037    ( 0.0000,  0.0000,  0.0000)
  11 Li     6.468148    0.000000   11.617037    ( 0.0000,  0.0000,  0.0000)
  12 Li     0.000000    3.234074   11.617037    ( 0.0000,  0.0000,  0.0000)
  13 Li     3.234074    3.234074   11.617037    ( 0.0000,  0.0000,  0.0000)
  14 Li     6.468148    3.234074   11.617037    ( 0.0000,  0.0000,  0.0000)
  15 Li     0.000000    6.468148   11.617037    ( 0.0000,  0.0000,  0.0000)
  16 Li     3.234074    6.468148   11.617037    ( 0.0000,  0.0000,  0.0000)
  17 Li     6.468148    6.468148   11.617037    ( 0.0000,  0.0000,  0.0000)
  18 Li     1.621900    1.605866   13.457448    ( 0.0000,  0.0000,  0.0000)
  19 Li     4.859470    1.613077   13.485587    ( 0.0000,  0.0000,  0.0000)
  20 Li     8.087985    1.605643   13.459601    ( 0.0000,  0.0000,  0.0000)
  21 Li     1.637038    4.888010   13.459888    ( 0.0000,  0.0000,  0.0000)
  22 Li     4.851475    4.872443   13.488069    ( 0.0000,  0.0000,  0.0000)
  23 Li     8.069659    4.887607   13.461803    ( 0.0000,  0.0000,  0.0000)
  24 Li     1.601514    8.129216   13.509082    ( 0.0000,  0.0000,  0.0000)
  25 Li     4.855868    8.077440   13.487909    ( 0.0000,  0.0000,  0.0000)
  26 Li     8.113172    8.129878   13.509799    ( 0.0000,  0.0000,  0.0000)
  27 Li     0.007457    0.094612   15.524071    ( 0.0000,  0.0000,  0.0000)
  28 Li     3.269835   -0.006765   15.428425    ( 0.0000,  0.0000,  0.0000)
  29 Li     6.458923   -0.009266   15.432171    ( 0.0000,  0.0000,  0.0000)
  30 Li     0.000967    3.332795   15.319039    ( 0.0000,  0.0000,  0.0000)
  31 Li     3.236039    3.249402   15.388962    ( 0.0000,  0.0000,  0.0000)
  32 Li     6.471209    3.250255   15.390825    ( 0.0000,  0.0000,  0.0000)
  33 Li     0.000474    6.513474   15.413775    ( 0.0000,  0.0000,  0.0000)
  34 Li     3.228391    6.479204   15.456218    ( 0.0000,  0.0000,  0.0000)
  35 Li     6.475947    6.479012   15.459591    ( 0.0000,  0.0000,  0.0000)
  36 F      0.431752    1.731074   21.291092    ( 0.0000,  0.0000,  0.0000)
  37 H      0.365588    1.642874   20.365501    ( 0.0000,  0.0000,  0.0000)
  38 N      0.024586    0.866511   17.383481    ( 0.0000,  0.0000,  0.0000)
  39 N      0.045874    1.260132   18.424150    ( 0.0000,  0.0000,  0.0000)

Unit cell:
           periodic     x           y           z      points  spacing
  1. axis:    yes    9.702222    0.000000    0.000000    60     0.1617
  2. axis:    yes    0.000000    9.702222    0.000000    60     0.1617
  3. axis:    no     0.000000    0.000000   26.851111   168     0.1598

  Lengths:   9.702222   9.702222  26.851111
  Angles:   90.000000  90.000000  90.000000

Effective grid spacing dv^(1/3) = 0.1611

     iter     time        total  log10-change:
                         energy  eigst   dens
iter:   1 23:01:09  -253.752727  -1.08
iter:   2 23:01:50  -253.752014  -1.86  -2.28
iter:   3 23:02:31  -253.749815c -2.34  -2.31
iter:   4 23:03:12  -253.747694c -2.22  -2.44
Writing to output.gpw (mode='')

iter:   5 23:03:54  -253.747119c -2.97  -2.52
iter:   6 23:04:35  -253.746483c -2.50  -2.79
