
  ___ ___ ___ _ _ _  
 |   |   |_  | | | | 
 | | | | | . | | | | 
 |__ |  _|___|_____|  22.8.0
 |___|_|             

User:   vazumah@r355.ib.bridges2.psc.edu
Date:   Fri Mar 10 10:03:24 2023
Arch:   x86_64
Pid:    42610
CWD:    /jet/home/vazumah/Calcs/LiMEAS/proton_donors/butanol_x/bridge/0.0_1.617/N2_z
Python: 3.11.0
gpaw:   /jet/home/vazumah/.conda/envs/GPAW_mpich/lib/python3.11/site-packages/gpaw
_gpaw:  /jet/home/vazumah/.conda/envs/GPAW_mpich/lib/python3.11/site-packages/
        _gpaw.cpython-311-x86_64-linux-gnu.so
ase:    /jet/home/vazumah/.conda/envs/GPAW_mpich/lib/python3.11/site-packages/ase (version 3.22.1)
numpy:  /jet/home/vazumah/.conda/envs/GPAW_mpich/lib/python3.11/site-packages/numpy (version 1.24.2)
scipy:  /jet/home/vazumah/.conda/envs/GPAW_mpich/lib/python3.11/site-packages/scipy (version 1.10.1)
libxc:  5.2.3
units:  Angstrom and eV
cores: 128
OpenMP: True
OMP_NUM_THREADS: 1

Input parameters:
  h: 0.16
  kpts: {size: [4, 4, 1]}
  occupations: {name: fermi-dirac,
                width: 0.05}
  poissonsolver: {dipolelayer: xy}
  xc: BEEF-vdW

System changes: positions, numbers, cell, pbc, initial_charges, initial_magmoms 

Initialize ...

species:
  Li:
    name: Lithium
    id: 830b4218f175192f93f959cfc0aad614
    Z: 3.0
    valence: 1
    core: 2
    charge: 0.0
    file: /jet/home/vazumah/datasets/gpaw-setups-0.9.20000/Li.PBE.gz
    compensation charges: {type: gauss,
                           rc: 0.33,
                           lmax: 2}
    cutoffs: {filter: 1.91,
              core: 2.55}
    valence states:
      #              energy  rcut
      - 2s(1.00)    -2.874   1.058
      - 2p(0.00)    -1.090   1.058
      -  s          24.337   1.058
  
    # Using partial waves for Li as LCAO basis

  O:
    name: Oxygen
    id: 32ecd46bf208036f09c70b0ec9a88b78
    Z: 8.0
    valence: 6
    core: 2
    charge: 0.0
    file: /jet/home/vazumah/datasets/gpaw-setups-0.9.20000/O.PBE.gz
    compensation charges: {type: gauss,
                           rc: 0.21,
                           lmax: 2}
    cutoffs: {filter: 1.17,
              core: 0.83}
    valence states:
      #              energy  rcut
      - 2s(2.00)   -23.961   0.688
      - 2p(4.00)    -9.029   0.598
      -  s           3.251   0.688
      -  p          18.182   0.598
      -  d           0.000   0.619
  
    # Using partial waves for O as LCAO basis

  C:
    name: Carbon
    id: 4aa54d4b901d75f77cc0ea3eec22967b
    Z: 6.0
    valence: 4
    core: 2
    charge: 0.0
    file: /jet/home/vazumah/datasets/gpaw-setups-0.9.20000/C.PBE.gz
    compensation charges: {type: gauss,
                           rc: 0.20,
                           lmax: 2}
    cutoffs: {filter: 1.14,
              core: 1.14}
    valence states:
      #              energy  rcut
      - 2s(2.00)   -13.751   0.635
      - 2p(2.00)    -5.284   0.635
      -  s          13.461   0.635
      -  p          21.927   0.635
      -  d           0.000   0.635
  
    # Using partial waves for C as LCAO basis

  H:
    name: Hydrogen
    id: d65de229564ff8ea4db303e23b6d1ecf
    Z: 1.0
    valence: 1
    core: 0
    charge: 0.0
    file: /jet/home/vazumah/datasets/gpaw-setups-0.9.20000/H.PBE.gz
    compensation charges: {type: gauss,
                           rc: 0.15,
                           lmax: 2}
    cutoffs: {filter: 0.85,
              core: 0.53}
    valence states:
      #              energy  rcut
      - 1s(1.00)    -6.494   0.476
      -  s          20.717   0.476
      -  p           0.000   0.476
  
    # Using partial waves for H as LCAO basis

  N:
    name: Nitrogen
    id: f7500608b86eaa90eef8b1d9a670dc53
    Z: 7.0
    valence: 5
    core: 2
    charge: 0.0
    file: /jet/home/vazumah/datasets/gpaw-setups-0.9.20000/N.PBE.gz
    compensation charges: {type: gauss,
                           rc: 0.18,
                           lmax: 2}
    cutoffs: {filter: 1.11,
              core: 0.96}
    valence states:
      #              energy  rcut
      - 2s(2.00)   -18.583   0.603
      - 2p(3.00)    -7.089   0.529
      -  s           8.629   0.603
      -  p          20.123   0.529
      -  d           0.000   0.577
  
    # Using partial waves for N as LCAO basis

Reference energy: -16540.070923  # eV

Spin-paired calculation

Convergence criteria:
 Maximum [total energy] change in last 3 cyles: 0.0005 eV / electron
 Maximum integral of absolute [dens]ity change: 0.0001 electrons / valence electron
 Maximum integral of absolute [eigenst]ate change: 4e-08 eV^2 / valence electron
 Maximum number of scf [iter]ations: 333
 (Square brackets indicate name in SCF output, whereas a 'c' in
 the SCF output indicates the quantity has converged.)

Symmetries present (total): 1

  ( 1  0  0)
  ( 0  1  0)
  ( 0  0  1)

16 k-points: 4 x 4 x 1 Monkhorst-Pack grid
8 k-points in the irreducible part of the Brillouin zone
       k-points in crystal coordinates                weights
   0:     0.12500000   -0.37500000    0.00000000          2/16
   1:     0.12500000   -0.12500000    0.00000000          2/16
   2:     0.12500000    0.12500000    0.00000000          2/16
   3:     0.12500000    0.37500000    0.00000000          2/16
   4:     0.37500000   -0.37500000    0.00000000          2/16
   5:     0.37500000   -0.12500000    0.00000000          2/16
   6:     0.37500000    0.12500000    0.00000000          2/16
   7:     0.37500000    0.37500000    0.00000000          2/16

Wave functions: Uniform real-space grid
  Kinetic energy operator: 6*3+1=19 point O(h^6) finite-difference Laplacian
  ScaLapack parameters: grid=1x1, blocksize=None
  Wavefunction extrapolation:
    Improved wavefunction reuse through dual PAW basis 

Occupation numbers: Fermi-Dirac:
  width: 0.0500  # eV
 

Eigensolver
   Davidson(niter=2) 

Densities:
  Coarse grid: 60*60*168 grid
  Fine grid: 120*120*336 grid
  Total Charge: 0.000000 

Density mixing:
  Method: separate
  Backend: pulay
  Linear mixing parameter: 0.05
  old densities: 5
  Damping of long wavelength oscillations: 50 

Hamiltonian:
  XC and Coulomb potentials evaluated on a 120*120*336 grid
  Using the BEEF-vdW Exchange-Correlation functional
  Interpolation: tri-quintic (5. degree polynomial)
  Poisson solver: FastPoissonSolver using
    Stencil: 6*3+1=19 point O(h^6) finite-difference Laplacian
    FFT axes: [0, 1]
    FST axes: [2]

Dipole correction along z-axis 

XC parameters: BEEF-vdW with 2 nearest neighbor stencil

Memory estimate:
  Process memory now: 128.46 MiB
  Calculator: 90.37 MiB
    Density: 23.17 MiB
      Arrays: 7.40 MiB
      Localized functions: 12.95 MiB
      Mixer: 2.82 MiB
    Hamiltonian: 5.86 MiB
      Arrays: 4.84 MiB
      XC: 0.00 MiB
      Poisson: 0.00 MiB
      vbar: 1.02 MiB
    Wavefunctions: 61.34 MiB
      Arrays psit_nG: 28.72 MiB
      Eigensolver: 31.93 MiB
      Projections: 0.02 MiB
      Projectors: 0.68 MiB

Total number of cores used: 128
Parallelization over k-points: 8
Domain decomposition: 2 x 2 x 4

Number of atoms: 53
Number of atomic orbitals: 182
Number of bands in calculation: 51
Number of valence electrons: 78
Bands to converge: occupied

... initialized

Initializing position-dependent things.

Density initialized from atomic densities
Creating initial wave functions:
  51 bands from LCAO basis set

       .-----------------------.  
      /|                       |  
     / |                       |  
    /  |                       |  
   /   |                       |  
  /    |                       |  
 *     |                       |  
 |     |                       |  
 |     |                       |  
 |     |                       |  
 |     |                       |  
 |     |                       |  
 |     |          H     H      |  
 |     |    HH   C  H   C      |  
 |O    |      C   H C   H      |  
 |N    |     H     H      H    |  
 |   Li|     Li      Li        |  
 |N    |  Li      Li      Li   |  
 | Li  |   Li      Li          |  
 |     |Li      Li      Li     |  
 Li    | Li      Li            |  
 |   LLi     LLi     LLi       |  
 |     |  Li      Li      Li   |  
 | Li  |   Li      Li          |  
 |     |Li      Li      Li     |  
 Li    | Li      Li            |  
 |    Li      Li      Li       |  
 |     |                       |  
 |     |                       |  
 |     |                       |  
 |     |                       |  
 |     |                       |  
 |     |                       |  
 |     .-----------------------.  
 |    /                       /   
 |   /                       /    
 |  /                       /     
 | /                       /      
 |/                       /       
 *-----------------------*        

Positions:
   0 Li     1.617037    1.617037   10.000000    ( 0.0000,  0.0000,  0.0000)
   1 Li     4.851111    1.617037   10.000000    ( 0.0000,  0.0000,  0.0000)
   2 Li     8.085185    1.617037   10.000000    ( 0.0000,  0.0000,  0.0000)
   3 Li     1.617037    4.851111   10.000000    ( 0.0000,  0.0000,  0.0000)
   4 Li     4.851111    4.851111   10.000000    ( 0.0000,  0.0000,  0.0000)
   5 Li     8.085185    4.851111   10.000000    ( 0.0000,  0.0000,  0.0000)
   6 Li     1.617037    8.085185   10.000000    ( 0.0000,  0.0000,  0.0000)
   7 Li     4.851111    8.085185   10.000000    ( 0.0000,  0.0000,  0.0000)
   8 Li     8.085185    8.085185   10.000000    ( 0.0000,  0.0000,  0.0000)
   9 Li     0.000000    0.000000   11.617037    ( 0.0000,  0.0000,  0.0000)
  10 Li     3.234074    0.000000   11.617037    ( 0.0000,  0.0000,  0.0000)
  11 Li     6.468148    0.000000   11.617037    ( 0.0000,  0.0000,  0.0000)
  12 Li     0.000000    3.234074   11.617037    ( 0.0000,  0.0000,  0.0000)
  13 Li     3.234074    3.234074   11.617037    ( 0.0000,  0.0000,  0.0000)
  14 Li     6.468148    3.234074   11.617037    ( 0.0000,  0.0000,  0.0000)
  15 Li     0.000000    6.468148   11.617037    ( 0.0000,  0.0000,  0.0000)
  16 Li     3.234074    6.468148   11.617037    ( 0.0000,  0.0000,  0.0000)
  17 Li     6.468148    6.468148   11.617037    ( 0.0000,  0.0000,  0.0000)
  18 Li     1.617038    1.617038   13.469728    ( 0.0000,  0.0000,  0.0000)
  19 Li     4.851111    1.617038   13.469729    ( 0.0000,  0.0000,  0.0000)
  20 Li     8.085184    1.617038   13.469728    ( 0.0000,  0.0000,  0.0000)
  21 Li     1.617038    4.851111   13.469729    ( 0.0000,  0.0000,  0.0000)
  22 Li     4.851111    4.851111   13.469730    ( 0.0000,  0.0000,  0.0000)
  23 Li     8.085184    4.851111   13.469729    ( 0.0000,  0.0000,  0.0000)
  24 Li     1.617038    8.085184   13.469728    ( 0.0000,  0.0000,  0.0000)
  25 Li     4.851111    8.085184   13.469729    ( 0.0000,  0.0000,  0.0000)
  26 Li     8.085184    8.085184   13.469728    ( 0.0000,  0.0000,  0.0000)
  27 Li    -0.000000   -0.000000   15.445939    ( 0.0000,  0.0000,  0.0000)
  28 Li     3.234074    0.000000   15.445939    ( 0.0000,  0.0000,  0.0000)
  29 Li     6.468148    0.000000   15.445939    ( 0.0000,  0.0000,  0.0000)
  30 Li     0.000000    3.234074   15.445939    ( 0.0000,  0.0000,  0.0000)
  31 Li     3.234076    3.234076   15.445938    ( 0.0000,  0.0000,  0.0000)
  32 Li     6.468146    3.234076   15.445938    ( 0.0000,  0.0000,  0.0000)
  33 Li     0.000000    6.468148   15.445939    ( 0.0000,  0.0000,  0.0000)
  34 Li     3.234076    6.468146   15.445938    ( 0.0000,  0.0000,  0.0000)
  35 Li     6.468146    6.468146   15.445938    ( 0.0000,  0.0000,  0.0000)
  36 O      0.000000    1.617037   19.645939    ( 0.0000,  0.0000,  0.0000)
  37 C     -2.467059    1.604696   19.681765    ( 0.0000,  0.0000,  0.0000)
  38 C     -3.736621    2.459748   19.668355    ( 0.0000,  0.0000,  0.0000)
  39 C     -1.184483    2.427516   19.646147    ( 0.0000,  0.0000,  0.0000)
  40 C     -5.009331    1.608762   19.652726    ( 0.0000,  0.0000,  0.0000)
  41 H     -2.452261    0.971527   20.575259    ( 0.0000,  0.0000,  0.0000)
  42 H     -2.480376    0.934508   18.810409    ( 0.0000,  0.0000,  0.0000)
  43 H     -3.723659    3.118823   18.792145    ( 0.0000,  0.0000,  0.0000)
  44 H     -3.741524    3.115912   20.546325    ( 0.0000,  0.0000,  0.0000)
  45 H     -1.191037    3.093082   18.772008    ( 0.0000,  0.0000,  0.0000)
  46 H     -1.099967    3.050830   20.540765    ( 0.0000,  0.0000,  0.0000)
  47 H     -5.036917    0.966282   18.768683    ( 0.0000,  0.0000,  0.0000)
  48 H     -5.054648    0.958749   20.530177    ( 0.0000,  0.0000,  0.0000)
  49 H     -5.912505    2.222488   19.646581    ( 0.0000,  0.0000,  0.0000)
  50 H     -0.049310    1.027937   18.883760    ( 0.0000,  0.0000,  0.0000)
  51 N      0.000000    1.617000   17.195939    ( 0.0000,  0.0000,  0.0000)
  52 N      0.000000    1.617000   18.292561    ( 0.0000,  0.0000,  0.0000)

Unit cell:
           periodic     x           y           z      points  spacing
  1. axis:    yes    9.702222    0.000000    0.000000    60     0.1617
  2. axis:    yes    0.000000    9.702222    0.000000    60     0.1617
  3. axis:    no     0.000000    0.000000   26.601111   168     0.1583

  Lengths:   9.702222   9.702222  26.601111
  Angles:   90.000000  90.000000  90.000000

Effective grid spacing dv^(1/3) = 0.1606

     iter     time        total  log10-change:
                         energy  eigst   dens
iter:   1 10:03:39  -778.617911
iter:   2 10:03:47    94.098564  +2.76  +0.05
iter:   3 10:03:55   111.506791  +3.39  -0.12
iter:   4 10:04:02  -225.522448  +3.34  -0.20
Writing to output.gpw (mode='')

iter:   5 10:04:10  -274.352996  +2.91  -0.22
iter:   6 10:04:17  -334.320989  +2.60  -0.49
iter:   7 10:04:25  -384.996486  +2.27  -0.57
iter:   8 10:04:33  -429.549969  +1.99  -0.53
iter:   9 10:04:45  -455.131356  +1.88  -0.43
Writing to output.gpw (mode='')

iter:  10 10:04:54  -409.280964  +1.60  -0.40
iter:  11 10:05:02  -354.001547  +1.49  -0.45
iter:  12 10:05:09  -355.018655  +1.09  -0.69
iter:  13 10:05:17  -354.694668  +1.31  -0.70
iter:  14 10:05:24  -351.608370  +0.57  -0.68
Writing to output.gpw (mode='')

iter:  15 10:05:32  -348.940602  +1.39  -0.75
iter:  16 10:05:40  -346.314505  +0.79  -0.78
iter:  17 10:05:47  -345.658589  +0.58  -0.92
iter:  18 10:05:55  -345.651683  +0.13  -1.01
iter:  19 10:06:02  -345.150454  +0.09  -1.05
Writing to output.gpw (mode='')

iter:  20 10:06:10  -345.238418  +0.22  -1.22
iter:  21 10:06:17  -345.168675  -0.13  -1.34
iter:  22 10:06:25  -345.188105  -0.24  -1.39
iter:  23 10:06:32  -345.145762  -0.57  -1.49
iter:  24 10:06:40  -345.101758  -0.59  -1.58
Writing to output.gpw (mode='')

iter:  25 10:06:48  -345.090707  -0.82  -1.65
iter:  26 10:06:55  -345.106370c -1.04  -1.71
iter:  27 10:07:03  -345.124632c -1.10  -1.70
iter:  28 10:07:10  -345.138600c -1.32  -1.67
iter:  29 10:07:18  -345.137264c -1.38  -1.71
Writing to output.gpw (mode='')

iter:  30 10:07:26  -345.080944  -1.19  -1.74
iter:  31 10:07:33  -345.067409  -1.15  -1.91
iter:  32 10:07:41  -345.076300c -1.51  -2.17
iter:  33 10:07:48  -345.080444c -1.53  -2.13
iter:  34 10:07:56  -345.075966c -1.67  -2.21
Writing to output.gpw (mode='')

iter:  35 10:08:03  -345.078322c -1.88  -2.34
iter:  36 10:08:11  -345.080708c -1.98  -2.42
iter:  37 10:08:19  -345.082448c -2.01  -2.57
iter:  38 10:08:26  -345.084356c -1.99  -2.68
iter:  39 10:08:34  -345.085981c -2.17  -2.72
Writing to output.gpw (mode='')

iter:  40 10:08:41  -345.087495c -2.32  -2.80
iter:  41 10:08:49  -345.088731c -2.30  -2.93
iter:  42 10:08:56  -345.089450c -2.64  -3.02
iter:  43 10:09:04  -345.090367c -2.31  -3.08
iter:  44 10:09:12  -345.091111c -2.59  -3.18
Writing to output.gpw (mode='')

iter:  45 10:09:19  -345.091831c -2.44  -3.24
iter:  46 10:09:27  -345.092296c -2.77  -3.33
iter:  47 10:09:34  -345.092750c -2.67  -3.33
iter:  48 10:09:47  -345.093157c -2.87  -3.36
iter:  49 10:09:56  -345.093468c -2.94  -3.40
Writing to output.gpw (mode='')

iter:  50 10:10:03  -345.093724c -2.99  -3.50
iter:  51 10:10:11  -345.093960c -2.96  -3.54
iter:  52 10:10:18  -345.094196c -2.90  -3.64
iter:  53 10:10:26  -345.094344c -3.22  -3.77
iter:  54 10:10:34  -345.094460c -3.33  -3.94
Writing to output.gpw (mode='')

iter:  55 10:10:42  -345.094554c -3.43  -3.93
iter:  56 10:10:49  -345.094674c -3.36  -3.90
iter:  57 10:10:57  -345.094761c -3.31  -3.63
iter:  58 10:11:05  -345.094821c -3.66  -3.70
iter:  59 10:11:12  -345.094892c -3.47  -3.63
Writing to output.gpw (mode='')

iter:  60 10:11:20  -345.094934c -3.83  -3.55
iter:  61 10:11:27  -345.094972c -3.91  -3.58
iter:  62 10:11:35  -345.095028c -3.60  -3.56
iter:  63 10:11:43  -345.095068c -3.98  -3.59
iter:  64 10:11:50  -345.095094c -4.10  -3.46
Writing to output.gpw (mode='')

iter:  65 10:11:59  -345.095123c -3.77  -3.52
iter:  66 10:12:09  -345.095151c -3.73  -3.64
iter:  67 10:12:23  -345.095171c -4.22  -3.77
iter:  68 10:12:30  -345.095185c -4.24  -3.82
iter:  69 10:12:38  -345.095202c -4.25  -3.84
Writing to output.gpw (mode='')

iter:  70 10:12:45  -345.095211c -4.43  -4.15c
iter:  71 10:12:53  -345.095217c -4.43  -4.20c
iter:  72 10:13:00  -345.095224c -4.40  -4.38c
iter:  73 10:13:08  -345.095230c -4.39  -4.45c
iter:  74 10:13:16  -345.095237c -4.55  -4.61c
Writing to output.gpw (mode='')

iter:  75 10:13:23  -345.095242c -4.66  -4.70c
iter:  76 10:13:31  -345.095247c -4.64  -4.76c
iter:  77 10:13:38  -345.095251c -4.67  -4.83c
iter:  78 10:13:46  -345.095255c -4.82  -4.86c
iter:  79 10:13:53  -345.095258c -4.81  -4.97c
Writing to output.gpw (mode='')

iter:  80 10:14:01  -345.095261c -4.89  -4.98c
iter:  81 10:14:09  -345.095263c -4.99  -5.04c
iter:  82 10:14:16  -345.095265c -5.04  -5.03c
iter:  83 10:14:24  -345.095266c -5.17  -5.04c
iter:  84 10:14:31  -345.095267c -5.13  -4.90c
Writing to output.gpw (mode='')

iter:  85 10:14:41  -345.095269c -5.16  -4.87c
iter:  86 10:14:52  -345.095270c -5.26  -4.85c
iter:  87 10:14:59  -345.095271c -5.28  -4.80c
iter:  88 10:15:07  -345.095272c -5.31  -4.85c
iter:  89 10:15:15  -345.095272c -5.37  -4.84c
Writing to output.gpw (mode='')

iter:  90 10:15:22  -345.095273c -5.44  -4.79c
iter:  91 10:15:30  -345.095274c -5.46  -4.88c
iter:  92 10:15:37  -345.095274c -5.41  -4.95c
iter:  93 10:15:45  -345.095275c -5.61  -4.87c
iter:  94 10:15:53  -345.095275c -5.64  -4.72c
Writing to output.gpw (mode='')

iter:  95 10:16:00  -345.095275c -5.67  -4.97c
iter:  96 10:16:08  -345.095276c -5.77  -5.26c
iter:  97 10:16:15  -345.095276c -5.75  -5.21c
iter:  98 10:16:23  -345.095276c -5.87  -5.26c
iter:  99 10:16:31  -345.095276c -5.93  -5.16c
Writing to output.gpw (mode='')

iter: 100 10:16:38  -345.095276c -6.01  -5.21c
iter: 101 10:16:46  -345.095276c -5.98  -5.12c
iter: 102 10:16:53  -345.095277c -6.05  -5.14c
iter: 103 10:17:01  -345.095277c -6.03  -5.29c
iter: 104 10:17:09  -345.095277c -6.05  -5.39c
Writing to output.gpw (mode='')

iter: 105 10:17:19  -345.095277c -6.09  -5.50c
iter: 106 10:17:27  -345.095277c -6.24  -5.49c
iter: 107 10:17:34  -345.095277c -6.37  -5.69c
iter: 108 10:17:42  -345.095277c -6.30  -5.67c
iter: 109 10:17:49  -345.095277c -6.26  -5.92c
Writing to output.gpw (mode='')

iter: 110 10:17:57  -345.095277c -6.45  -6.02c
iter: 111 10:18:05  -345.095277c -6.50  -6.01c
iter: 112 10:18:12  -345.095277c -6.52  -6.15c
iter: 113 10:18:20  -345.095277c -6.54  -6.21c
iter: 114 10:18:27  -345.095277c -6.51  -6.37c
Writing to output.gpw (mode='')

iter: 115 10:18:35  -345.095277c -6.52  -6.45c
iter: 116 10:18:43  -345.095277c -6.69  -6.40c
iter: 117 10:18:50  -345.095277c -6.71  -6.19c
iter: 118 10:18:58  -345.095277c -6.85  -6.18c
iter: 119 10:19:05  -345.095277c -6.88  -6.08c
Writing to output.gpw (mode='')

iter: 120 10:19:13  -345.095277c -6.87  -6.04c
iter: 121 10:19:20  -345.095277c -6.88  -5.99c
iter: 122 10:19:28  -345.095277c -6.81  -5.96c
iter: 123 10:19:36  -345.095277c -6.95  -5.92c
iter: 124 10:19:47  -345.095277c -7.00  -5.88c
Writing to output.gpw (mode='')

iter: 125 10:19:56  -345.095277c -7.12  -5.83c
iter: 126 10:20:03  -345.095277c -7.15  -5.82c
iter: 127 10:20:11  -345.095277c -7.16  -5.79c
iter: 128 10:20:18  -345.095277c -7.19  -5.78c
iter: 129 10:20:26  -345.095277c -7.30  -5.72c
Writing to output.gpw (mode='')

iter: 130 10:20:34  -345.095277c -7.45c -5.65c

Converged after 130 iterations.

Dipole moment: (-12.696686, -4.596948, 0.362091) |e|*Ang

Energy contributions relative to reference atoms: (reference = -16540.070923)

Kinetic:       +237.439183
Potential:     -211.704411
External:        +0.000000
XC:            -371.581041
Entropy (-ST):   -0.144699
Local:           +0.823341
--------------------------
Free energy:   -345.167626
Extrapolated:  -345.095277

Dipole-layer corrected work functions: 3.375747, 2.679684 eV

Showing only first 2 kpts
 Kpt  Band  Eigenvalues  Occupancy
  0    37     -3.27085    1.98466
  0    38     -3.15912    1.86531
  0    39     -2.88429    0.10746
  0    40     -2.77259    0.01209

  1    37     -3.07871    1.46991
  1    38     -3.03193    1.04212
  1    39     -2.98537    0.60017
  1    40     -2.92072    0.21057


Fermi level: -3.02772

No gap

Forces in eV/Ang:
  0 Li    0.00937   -0.00362   -0.27425
  1 Li    0.00049    0.00157   -0.26272
  2 Li   -0.00994   -0.00108   -0.27458
  3 Li    0.00609    0.00641   -0.27163
  4 Li    0.00220    0.00129   -0.27567
  5 Li   -0.00741    0.00624   -0.27413
  6 Li    0.00335   -0.00436   -0.26922
  7 Li    0.00060   -0.00299   -0.28317
  8 Li   -0.00312   -0.00591   -0.27029
  9 Li   -0.00090    0.00765    0.30296
 10 Li    0.01463   -0.00703    0.25858
 11 Li   -0.01308   -0.00433    0.25778
 12 Li    0.00058   -0.01451    0.32316
 13 Li    0.01499    0.00374    0.26106
 14 Li   -0.01488    0.00539    0.25377
 15 Li   -0.00014    0.00790    0.24869
 16 Li   -0.01970    0.00540    0.26321
 17 Li    0.01840    0.00002    0.26733
 18 Li    0.05341   -0.00425   -0.07728
 19 Li    0.00179    0.00250    0.05687
 20 Li   -0.05624   -0.00068   -0.07597
 21 Li   -0.01363   -0.00515    0.02260
 22 Li   -0.00350    0.00395    0.04029
 23 Li    0.01595   -0.01025    0.03289
 24 Li   -0.01309    0.01475    0.04698
 25 Li   -0.00080   -0.00660    0.02545
 26 Li    0.01257    0.01638    0.04675
 27 Li   -0.00519    0.24210    0.29239
 28 Li    0.02408   -0.01762   -0.02733
 29 Li   -0.03475   -0.02566   -0.05135
 30 Li    0.00212   -0.31742    0.44420
 31 Li    0.02817    0.00953   -0.01867
 32 Li   -0.02259    0.01948   -0.04425
 33 Li   -0.00590    0.01443   -0.01942
 34 Li    0.00594    0.00186   -0.01539
 35 Li    0.00096   -0.00001   -0.00750
 36 O     1.13079   14.19790   22.83267
 37 C     0.13483   -0.43105   -0.12125
 38 C     0.00190    0.17493    0.05648
 39 C    -2.68033    2.33955    3.13629
 40 C     0.06742   -0.11587    0.03009
 41 H    -0.01968   -0.03848   -0.01069
 42 H    -0.06797   -0.00731    0.09309
 43 H    -0.01419   -0.00870   -0.03103
 44 H    -0.01125    0.00779   -0.00343
 45 H     0.03552    0.14209    0.28033
 46 H    -0.30609    0.15048   -0.04454
 47 H    -0.01300    0.02054   -0.03619
 48 H    -0.00755   -0.00720    0.02992
 49 H     0.03640    0.05888   -0.01709
 50 H    -1.66528  -21.08194   -0.75589
 51 N     0.45913    5.98641  -15.35105
 52 N     2.95573   -1.37076  -10.71407

System changes: positions 

Initializing position-dependent things.

Density initialized from wave functions
       .-----------------------.  
      /|                       |  
     / |                       |  
    /  |                       |  
   /   |                       |  
  /    |                       |  
 *     |                       |  
 |     |                       |  
 |     |                       |  
 |     |                       |  
 |     |                       |  
 |     |                       |  
 |     |          H     H      |  
 |     |    HH   C  H   C      |  
 |O    |      CLi H C  LH      |  
 |N    |     H     H     H     |  
 |     |     Li      Li      Li|  
 |N    |  Li      Li      Li   |  
 | Li  |   Li      Li          |  
 |     |Li      Li      Li     |  
 |     |                 Li    |  
 |   LLi     LLi     LLi       |  
 |     |  Li      Li      Li   |  
 | Li  |   Li      Li          |  
 |     |Li      Li      Li     |  
 Li    | Li      Li            |  
 |    Li      Li      Li       |  
 |     |                       |  
 |     |                       |  
 |     |                       |  
 |     |                       |  
 |     |                       |  
 |     |                       |  
 |     .-----------------------.  
 |    /                       /   
 |   /                       /    
 |  /                       /     
 | /                       /      
 |/                       /       
 *-----------------------*        

Positions:
   0 Li     1.617037    1.617037   10.000000    ( 0.0000,  0.0000,  0.0000)
   1 Li     4.851111    1.617037   10.000000    ( 0.0000,  0.0000,  0.0000)
   2 Li     8.085185    1.617037   10.000000    ( 0.0000,  0.0000,  0.0000)
   3 Li     1.617037    4.851111   10.000000    ( 0.0000,  0.0000,  0.0000)
   4 Li     4.851111    4.851111   10.000000    ( 0.0000,  0.0000,  0.0000)
   5 Li     8.085185    4.851111   10.000000    ( 0.0000,  0.0000,  0.0000)
   6 Li     1.617037    8.085185   10.000000    ( 0.0000,  0.0000,  0.0000)
   7 Li     4.851111    8.085185   10.000000    ( 0.0000,  0.0000,  0.0000)
   8 Li     8.085185    8.085185   10.000000    ( 0.0000,  0.0000,  0.0000)
   9 Li     0.000000    0.000000   11.617037    ( 0.0000,  0.0000,  0.0000)
  10 Li     3.234074    0.000000   11.617037    ( 0.0000,  0.0000,  0.0000)
  11 Li     6.468148    0.000000   11.617037    ( 0.0000,  0.0000,  0.0000)
  12 Li     0.000000    3.234074   11.617037    ( 0.0000,  0.0000,  0.0000)
  13 Li     3.234074    3.234074   11.617037    ( 0.0000,  0.0000,  0.0000)
  14 Li     6.468148    3.234074   11.617037    ( 0.0000,  0.0000,  0.0000)
  15 Li     0.000000    6.468148   11.617037    ( 0.0000,  0.0000,  0.0000)
  16 Li     3.234074    6.468148   11.617037    ( 0.0000,  0.0000,  0.0000)
  17 Li     6.468148    6.468148   11.617037    ( 0.0000,  0.0000,  0.0000)
  18 Li     1.617117    1.617032   13.469613    ( 0.0000,  0.0000,  0.0000)
  19 Li     4.851114    1.617042   13.469814    ( 0.0000,  0.0000,  0.0000)
  20 Li     8.085100    1.617037   13.469615    ( 0.0000,  0.0000,  0.0000)
  21 Li     1.617018    4.851103   13.469763    ( 0.0000,  0.0000,  0.0000)
  22 Li     4.851106    4.851117   13.469790    ( 0.0000,  0.0000,  0.0000)
  23 Li     8.085207    4.851096   13.469778    ( 0.0000,  0.0000,  0.0000)
  24 Li     1.617019    8.085206   13.469798    ( 0.0000,  0.0000,  0.0000)
  25 Li     4.851110    8.085174   13.469767    ( 0.0000,  0.0000,  0.0000)
  26 Li     8.085203    8.085208   13.469797    ( 0.0000,  0.0000,  0.0000)
  27 Li    -0.000008    0.000360   15.446374    ( 0.0000,  0.0000,  0.0000)
  28 Li     3.234110   -0.000026   15.445898    ( 0.0000,  0.0000,  0.0000)
  29 Li     6.468097   -0.000038   15.445862    ( 0.0000,  0.0000,  0.0000)
  30 Li     0.000003    3.233602   15.446599    ( 0.0000,  0.0000,  0.0000)
  31 Li     3.234118    3.234091   15.445910    ( 0.0000,  0.0000,  0.0000)
  32 Li     6.468112    3.234105   15.445872    ( 0.0000,  0.0000,  0.0000)
  33 Li    -0.000009    6.468170   15.445910    ( 0.0000,  0.0000,  0.0000)
  34 Li     3.234085    6.468148   15.445915    ( 0.0000,  0.0000,  0.0000)
  35 Li     6.468147    6.468146   15.445927    ( 0.0000,  0.0000,  0.0000)
  36 O      0.001681    1.638141   19.679878    ( 0.0000,  0.0000,  0.0000)
  37 C     -2.466859    1.604055   19.681585    ( 0.0000,  0.0000,  0.0000)
  38 C     -3.736618    2.460008   19.668439    ( 0.0000,  0.0000,  0.0000)
  39 C     -1.188467    2.430994   19.650808    ( 0.0000,  0.0000,  0.0000)
  40 C     -5.009231    1.608590   19.652770    ( 0.0000,  0.0000,  0.0000)
  41 H     -2.452290    0.971470   20.575243    ( 0.0000,  0.0000,  0.0000)
  42 H     -2.480477    0.934497   18.810547    ( 0.0000,  0.0000,  0.0000)
  43 H     -3.723681    3.118810   18.792099    ( 0.0000,  0.0000,  0.0000)
  44 H     -3.741540    3.115923   20.546320    ( 0.0000,  0.0000,  0.0000)
  45 H     -1.190984    3.093294   18.772424    ( 0.0000,  0.0000,  0.0000)
  46 H     -1.100422    3.051054   20.540699    ( 0.0000,  0.0000,  0.0000)
  47 H     -5.036937    0.966312   18.768629    ( 0.0000,  0.0000,  0.0000)
  48 H     -5.054659    0.958738   20.530222    ( 0.0000,  0.0000,  0.0000)
  49 H     -5.912451    2.222575   19.646555    ( 0.0000,  0.0000,  0.0000)
  50 H     -0.051786    0.996601   18.882636    ( 0.0000,  0.0000,  0.0000)
  51 N      0.000682    1.625898   17.173122    ( 0.0000,  0.0000,  0.0000)
  52 N      0.004393    1.614963   18.276636    ( 0.0000,  0.0000,  0.0000)

Unit cell:
           periodic     x           y           z      points  spacing
  1. axis:    yes    9.702222    0.000000    0.000000    60     0.1617
  2. axis:    yes    0.000000    9.702222    0.000000    60     0.1617
  3. axis:    no     0.000000    0.000000   26.601111   168     0.1583

  Lengths:   9.702222   9.702222  26.601111
  Angles:   90.000000  90.000000  90.000000

Effective grid spacing dv^(1/3) = 0.1606

     iter     time        total  log10-change:
                         energy  eigst   dens
iter:   1 10:20:43  -347.948893  -0.45
iter:   2 10:20:51  -347.937054  -0.51  -1.35
iter:   3 10:20:58  -347.340355  -0.65  -1.27
iter:   4 10:21:06  -347.283132  -1.32  -1.69
Writing to output.gpw (mode='')

iter:   5 10:21:14  -347.262773  -1.09  -2.00
iter:   6 10:21:21  -347.261267c -1.55  -2.24
iter:   7 10:21:29  -347.262033c -1.58  -2.34
iter:   8 10:21:37  -347.260116c -2.16  -2.32
iter:   9 10:21:44  -347.259783c -2.28  -2.56
Writing to output.gpw (mode='')

iter:  10 10:21:52  -347.260456c -2.43  -2.72
iter:  11 10:22:00  -347.260398c -2.78  -2.64
iter:  12 10:22:07  -347.260123c -2.90  -2.74
iter:  13 10:22:15  -347.260218c -3.01  -2.99
iter:  14 10:22:23  -347.260269c -3.33  -3.03
Writing to output.gpw (mode='')

iter:  15 10:22:31  -347.260316c -3.50  -3.14
iter:  16 10:22:38  -347.260337c -3.67  -3.27
iter:  17 10:22:46  -347.260390c -3.99  -3.35
iter:  18 10:22:54  -347.260378c -4.12  -3.27
iter:  19 10:23:01  -347.260369c -4.08  -3.32
Writing to output.gpw (mode='')

iter:  20 10:23:09  -347.260368c -4.02  -3.48
iter:  21 10:23:17  -347.260386c -4.27  -3.71
iter:  22 10:23:24  -347.260389c -4.57  -3.87
iter:  23 10:23:32  -347.260388c -4.75  -3.96
iter:  24 10:23:40  -347.260392c -4.82  -4.09c
Writing to output.gpw (mode='')

iter:  25 10:23:47  -347.260394c -4.96  -4.17c
iter:  26 10:23:55  -347.260395c -5.18  -4.20c
iter:  27 10:24:03  -347.260396c -5.24  -4.20c
iter:  28 10:24:10  -347.260394c -5.46  -4.21c
iter:  29 10:24:18  -347.260393c -5.56  -4.34c
Writing to output.gpw (mode='')

iter:  30 10:24:26  -347.260396c -5.62  -4.45c
iter:  31 10:24:33  -347.260396c -5.78  -4.45c
iter:  32 10:24:47  -347.260397c -5.84  -4.51c
iter:  33 10:24:55  -347.260398c -5.96  -4.77c
iter:  34 10:25:03  -347.260398c -5.92  -4.73c
Writing to output.gpw (mode='')

iter:  35 10:25:11  -347.260398c -6.12  -4.76c
iter:  36 10:25:18  -347.260398c -6.00  -4.79c
iter:  37 10:25:26  -347.260398c -6.15  -4.97c
iter:  38 10:25:34  -347.260398c -6.22  -5.05c
iter:  39 10:25:41  -347.260398c -6.35  -5.09c
Writing to output.gpw (mode='')

iter:  40 10:25:49  -347.260398c -6.63  -5.15c
iter:  41 10:25:57  -347.260398c -6.70  -5.38c
iter:  42 10:26:04  -347.260398c -6.56  -5.55c
iter:  43 10:26:12  -347.260398c -6.68  -5.63c
iter:  44 10:26:20  -347.260398c -7.01  -5.64c
Writing to output.gpw (mode='')

iter:  45 10:26:27  -347.260398c -7.03  -5.63c
iter:  46 10:26:35  -347.260399c -6.96  -5.44c
iter:  47 10:26:43  -347.260399c -7.13  -5.49c
iter:  48 10:26:50  -347.260399c -7.17  -5.64c
iter:  49 10:26:58  -347.260399c -7.22  -5.61c
Writing to output.gpw (mode='')

iter:  50 10:27:06  -347.260399c -7.30  -5.65c
iter:  51 10:27:13  -347.260399c -7.12  -5.67c
iter:  52 10:27:21  -347.260399c -7.46c -5.60c

Converged after 52 iterations.

Dipole moment: (-13.273373, -4.504656, 0.263067) |e|*Ang

Energy contributions relative to reference atoms: (reference = -16540.070923)

Kinetic:       +231.232259
Potential:     -208.667125
External:        +0.000000
XC:            -370.568618
Entropy (-ST):   -0.144777
Local:           +0.815474
--------------------------
Free energy:   -347.332787
Extrapolated:  -347.260399

Dipole-layer corrected work functions: 3.381725, 2.876020 eV

Showing only first 2 kpts
 Kpt  Band  Eigenvalues  Occupancy
  0    37     -3.37280    1.98490
  0    38     -3.26017    1.86502
  0    39     -2.97922    0.09549
  0    40     -2.87476    0.01234

  1    37     -3.17522    1.43294
  1    38     -3.13229    1.03412
  1    39     -3.09103    0.63863
  1    40     -3.02273    0.21378


Fermi level: -3.12887

No gap
Writing to output.gpw (mode='')


Forces in eV/Ang:
  0 Li    0.00979   -0.00356   -0.27410
  1 Li    0.00051    0.00153   -0.26269
  2 Li   -0.01031   -0.00122   -0.27442
  3 Li    0.00588    0.00715   -0.27132
  4 Li    0.00161    0.00169   -0.27680
  5 Li   -0.00662    0.00661   -0.27339
  6 Li    0.00343   -0.00517   -0.27028
  7 Li    0.00027   -0.00247   -0.28339
  8 Li   -0.00288   -0.00618   -0.27103
  9 Li   -0.00107    0.00915    0.30191
 10 Li    0.01611   -0.00716    0.25688
 11 Li   -0.01444   -0.00408    0.25662
 12 Li    0.00082   -0.01537    0.32127
 13 Li    0.01560    0.00425    0.25965
 14 Li   -0.01577    0.00552    0.25301
 15 Li   -0.00024    0.00833    0.24602
 16 Li   -0.02137    0.00468    0.26245
 17 Li    0.02012   -0.00070    0.26740
 18 Li    0.05516   -0.00463   -0.07758
 19 Li    0.00112    0.00172    0.05694
 20 Li   -0.05753   -0.00067   -0.07465
 21 Li   -0.01574   -0.00654    0.02816
 22 Li   -0.00366    0.00452    0.03884
 23 Li    0.01816   -0.01182    0.03804
 24 Li   -0.01353    0.01596    0.04784
 25 Li   -0.00059   -0.00732    0.02680
 26 Li    0.01282    0.01727    0.04706
 27 Li   -0.00803    0.21895    0.24851
 28 Li    0.02569   -0.01895   -0.02997
 29 Li   -0.03468   -0.02512   -0.05029
 30 Li    0.00466   -0.31922    0.41803
 31 Li    0.03264    0.01193   -0.02364
 32 Li   -0.02629    0.02015   -0.04459
 33 Li   -0.00510    0.01214   -0.02185
 34 Li    0.00349    0.00084   -0.01551
 35 Li    0.00269   -0.00052   -0.00803
 36 O     1.01499   11.81503   19.64498
 37 C     0.05346   -0.32909   -0.07536
 38 C    -0.00729    0.10063    0.05452
 39 C    -2.23736    2.00962    2.77994
 40 C     0.05113   -0.08039    0.03168
 41 H    -0.02159   -0.04634   -0.00937
 42 H    -0.05239   -0.01749    0.07980
 43 H    -0.01324   -0.00062   -0.03337
 44 H    -0.01048    0.00875   -0.00239
 45 H    -0.03151    0.15447    0.32972
 46 H    -0.44668    0.33315    0.06345
 47 H    -0.00982    0.01279   -0.03909
 48 H    -0.00808   -0.00601    0.02633
 49 H     0.02942    0.04848   -0.01256
 50 H    -1.33264  -15.87575   -0.82141
 51 N     0.44013    5.86024  -12.81419
 52 N     2.60854   -3.84847   -9.69741

System changes: positions 

Initializing position-dependent things.

Density initialized from wave functions
       .-----------------------.  
      /|                       |  
     / |                       |  
    /  |                       |  
   /   |                       |  
  /    |                       |  
 *     |                       |  
 |     |                       |  
 |     |                       |  
 |     |                       |  
 |     |                       |  
 |     |                       |  
 |     |          H     H      |  
 |     |    HH   C  H   C      |  
 |O    |      CLi H C  LH      |  
 |N    |     H     H     H     |  
 |     |     Li      Li      Li|  
 |N    |  Li      Li      Li   |  
 | Li  |   Li      Li          |  
 |     |Li      Li      Li     |  
 |     |                 Li    |  
 |   LLi     LLi     LLi       |  
 |     |  Li      Li      Li   |  
 | Li  |   Li      Li          |  
 |     |Li      Li      Li     |  
 Li    | Li      Li            |  
 |    Li      Li      Li       |  
 |     |                       |  
 |     |                       |  
 |     |                       |  
 |     |                       |  
 |     |                       |  
 |     |                       |  
 |     .-----------------------.  
 |    /                       /   
 |   /                       /    
 |  /                       /     
 | /                       /      
 |/                       /       
 *-----------------------*        

Positions:
   0 Li     1.617037    1.617037   10.000000    ( 0.0000,  0.0000,  0.0000)
   1 Li     4.851111    1.617037   10.000000    ( 0.0000,  0.0000,  0.0000)
   2 Li     8.085185    1.617037   10.000000    ( 0.0000,  0.0000,  0.0000)
   3 Li     1.617037    4.851111   10.000000    ( 0.0000,  0.0000,  0.0000)
   4 Li     4.851111    4.851111   10.000000    ( 0.0000,  0.0000,  0.0000)
   5 Li     8.085185    4.851111   10.000000    ( 0.0000,  0.0000,  0.0000)
   6 Li     1.617037    8.085185   10.000000    ( 0.0000,  0.0000,  0.0000)
   7 Li     4.851111    8.085185   10.000000    ( 0.0000,  0.0000,  0.0000)
   8 Li     8.085185    8.085185   10.000000    ( 0.0000,  0.0000,  0.0000)
   9 Li     0.000000    0.000000   11.617037    ( 0.0000,  0.0000,  0.0000)
  10 Li     3.234074    0.000000   11.617037    ( 0.0000,  0.0000,  0.0000)
  11 Li     6.468148    0.000000   11.617037    ( 0.0000,  0.0000,  0.0000)
  12 Li     0.000000    3.234074   11.617037    ( 0.0000,  0.0000,  0.0000)
  13 Li     3.234074    3.234074   11.617037    ( 0.0000,  0.0000,  0.0000)
  14 Li     6.468148    3.234074   11.617037    ( 0.0000,  0.0000,  0.0000)
  15 Li     0.000000    6.468148   11.617037    ( 0.0000,  0.0000,  0.0000)
  16 Li     3.234074    6.468148   11.617037    ( 0.0000,  0.0000,  0.0000)
  17 Li     6.468148    6.468148   11.617037    ( 0.0000,  0.0000,  0.0000)
  18 Li     1.617290    1.617016   13.469385    ( 0.0000,  0.0000,  0.0000)
  19 Li     4.851112    1.617042   13.469980    ( 0.0000,  0.0000,  0.0000)
  20 Li     8.084924    1.617035   13.469407    ( 0.0000,  0.0000,  0.0000)
  21 Li     1.616958    4.851075   13.469883    ( 0.0000,  0.0000,  0.0000)
  22 Li     4.851094    4.851134   13.469893    ( 0.0000,  0.0000,  0.0000)
  23 Li     8.085275    4.851051   13.469924    ( 0.0000,  0.0000,  0.0000)
  24 Li     1.616976    8.085260   13.469943    ( 0.0000,  0.0000,  0.0000)
  25 Li     4.851110    8.085148   13.469854    ( 0.0000,  0.0000,  0.0000)
  26 Li     8.085242    8.085264   13.469936    ( 0.0000,  0.0000,  0.0000)
  27 Li    -0.000050    0.000840   15.446799    ( 0.0000,  0.0000,  0.0000)
  28 Li     3.234195   -0.000090   15.445793    ( 0.0000,  0.0000,  0.0000)
  29 Li     6.467996   -0.000108   15.445723    ( 0.0000,  0.0000,  0.0000)
  30 Li     0.000034    3.232661   15.447638    ( 0.0000,  0.0000,  0.0000)
  31 Li     3.234244    3.234142   15.445808    ( 0.0000,  0.0000,  0.0000)
  32 Li     6.468010    3.234169   15.445740    ( 0.0000,  0.0000,  0.0000)
  33 Li    -0.000018    6.468190   15.445830    ( 0.0000,  0.0000,  0.0000)
  34 Li     3.234079    6.468144   15.445869    ( 0.0000,  0.0000,  0.0000)
  35 Li     6.468166    6.468141   15.445900    ( 0.0000,  0.0000,  0.0000)
  36 O      0.003849    1.656359   19.715422    ( 0.0000,  0.0000,  0.0000)
  37 C     -2.467255    1.603789   19.681677    ( 0.0000,  0.0000,  0.0000)
  38 C     -3.736701    2.459797   19.668584    ( 0.0000,  0.0000,  0.0000)
  39 C     -1.191973    2.434604   19.656481    ( 0.0000,  0.0000,  0.0000)
  40 C     -5.009192    1.608597   19.652873    ( 0.0000,  0.0000,  0.0000)
  41 H     -2.452366    0.971281   20.575224    ( 0.0000,  0.0000,  0.0000)
  42 H     -2.480524    0.934377   18.810689    ( 0.0000,  0.0000,  0.0000)
  43 H     -3.723713    3.118863   18.791986    ( 0.0000,  0.0000,  0.0000)
  44 H     -3.741566    3.115955   20.546320    ( 0.0000,  0.0000,  0.0000)
  45 H     -1.191530    3.093827   18.773719    ( 0.0000,  0.0000,  0.0000)
  46 H     -1.102675    3.053262   20.541616    ( 0.0000,  0.0000,  0.0000)
  47 H     -5.036944    0.966297   18.768495    ( 0.0000,  0.0000,  0.0000)
  48 H     -5.054686    0.958729   20.530274    ( 0.0000,  0.0000,  0.0000)
  49 H     -5.912413    2.222646   19.646550    ( 0.0000,  0.0000,  0.0000)
  50 H     -0.053407    0.985714   18.879802    ( 0.0000,  0.0000,  0.0000)
  51 N      0.001834    1.642094   17.153040    ( 0.0000,  0.0000,  0.0000)
  52 N      0.009629    1.586962   18.255314    ( 0.0000,  0.0000,  0.0000)

Unit cell:
           periodic     x           y           z      points  spacing
  1. axis:    yes    9.702222    0.000000    0.000000    60     0.1617
  2. axis:    yes    0.000000    9.702222    0.000000    60     0.1617
  3. axis:    no     0.000000    0.000000   26.601111   168     0.1583

  Lengths:   9.702222   9.702222  26.601111
  Angles:   90.000000  90.000000  90.000000

Effective grid spacing dv^(1/3) = 0.1606

     iter     time        total  log10-change:
                         energy  eigst   dens
iter:   1 10:27:30  -349.089865  -0.64
iter:   2 10:27:38  -349.040134  -1.21  -2.00
iter:   3 10:27:46  -348.983973  -0.98  -2.06
iter:   4 10:27:53  -348.977484  -1.80  -2.01
Writing to output.gpw (mode='')

iter:   5 10:28:01  -348.974213c -2.24  -2.26
iter:   6 10:28:08  -348.969548c -1.82  -2.33
iter:   7 10:28:16  -348.968043c -2.21  -2.39
iter:   8 10:28:24  -348.967828c -2.59  -2.55
iter:   9 10:28:31  -348.967182c -2.86  -2.58
Writing to output.gpw (mode='')

iter:  10 10:28:39  -348.967819c -2.55  -2.85
iter:  11 10:28:47  -348.967451c -3.28  -2.81
iter:  12 10:28:55  -348.967458c -3.65  -2.99
iter:  13 10:29:02  -348.967323c -3.80  -3.04
iter:  14 10:29:10  -348.967307c -4.19  -3.20
Writing to output.gpw (mode='')

iter:  15 10:29:18  -348.967267c -4.25  -3.29
iter:  16 10:29:25  -348.967248c -4.16  -3.37
iter:  17 10:29:33  -348.967266c -4.67  -3.58
iter:  18 10:29:48  -348.967266c -4.74  -3.78
iter:  19 10:29:56  -348.967277c -4.92  -3.86
Writing to output.gpw (mode='')

iter:  20 10:30:03  -348.967284c -5.15  -4.10c
iter:  21 10:30:11  -348.967284c -5.44  -4.12c
iter:  22 10:30:18  -348.967281c -5.65  -4.19c
iter:  23 10:30:26  -348.967277c -5.53  -4.23c
iter:  24 10:30:34  -348.967280c -5.88  -4.33c
Writing to output.gpw (mode='')

iter:  25 10:30:41  -348.967280c -6.04  -4.43c
iter:  26 10:30:49  -348.967280c -6.16  -4.49c
iter:  27 10:30:56  -348.967282c -6.37  -4.61c
iter:  28 10:31:04  -348.967283c -6.40  -4.67c
iter:  29 10:31:12  -348.967283c -6.60  -5.02c
Writing to output.gpw (mode='')

iter:  30 10:31:19  -348.967283c -6.63  -5.12c
iter:  31 10:31:27  -348.967284c -6.81  -5.24c
iter:  32 10:31:35  -348.967284c -6.94  -5.28c
iter:  33 10:31:42  -348.967284c -7.01  -5.31c
iter:  34 10:31:50  -348.967284c -7.16  -5.53c
Writing to output.gpw (mode='')

iter:  35 10:31:58  -348.967284c -7.21  -5.63c
iter:  36 10:32:05  -348.967284c -7.37  -5.64c
iter:  37 10:32:13  -348.967284c -7.41c -5.72c

Converged after 37 iterations.

Dipole moment: (-14.026428, -4.429822, 0.168941) |e|*Ang

Energy contributions relative to reference atoms: (reference = -16540.070923)

Kinetic:       +227.524926
Potential:     -207.119875
External:        +0.000000
XC:            -370.116617
Entropy (-ST):   -0.143196
Local:           +0.815880
--------------------------
Free energy:   -349.038882
Extrapolated:  -348.967284

Dipole-layer corrected work functions: 3.387418, 3.062656 eV

Showing only first 2 kpts
 Kpt  Band  Eigenvalues  Occupancy
  0    37     -3.46933    1.98501
  0    38     -3.35738    1.86765
  0    39     -3.07401    0.09301
  0    40     -2.96953    0.01200

  1    37     -3.27182    1.43642
  1    38     -3.22617    1.01133
  1    39     -3.18992    0.66263
  1    40     -3.11749    0.20849


Fermi level: -3.22504

No gap
Writing to output.gpw (mode='')


Forces in eV/Ang:
  0 Li    0.01046   -0.00312   -0.27289
  1 Li    0.00034    0.00132   -0.26285
  2 Li   -0.01075   -0.00128   -0.27328
  3 Li    0.00584    0.00795   -0.27122
  4 Li    0.00078    0.00235   -0.27835
  5 Li   -0.00578    0.00714   -0.27257
  6 Li    0.00379   -0.00623   -0.27125
  7 Li   -0.00016   -0.00228   -0.28367
  8 Li   -0.00288   -0.00657   -0.27156
  9 Li   -0.00115    0.01112    0.30171
 10 Li    0.01729   -0.00738    0.25448
 11 Li   -0.01555   -0.00434    0.25507
 12 Li    0.00080   -0.01617    0.31863
 13 Li    0.01655    0.00476    0.25725
 14 Li   -0.01677    0.00555    0.25241
 15 Li   -0.00043    0.00789    0.24291
 16 Li   -0.02417    0.00383    0.26228
 17 Li    0.02312   -0.00088    0.26778
 18 Li    0.05678   -0.00445   -0.07477
 19 Li    0.00034    0.00079    0.05512
 20 Li   -0.05832   -0.00064   -0.07066
 21 Li   -0.01789   -0.00957    0.03501
 22 Li   -0.00326    0.00559    0.03628
 23 Li    0.01998   -0.01407    0.04319
 24 Li   -0.01480    0.01729    0.04963
 25 Li   -0.00041   -0.00805    0.02811
 26 Li    0.01400    0.01790    0.04831
 27 Li   -0.01042    0.19364    0.19691
 28 Li    0.02739   -0.01864   -0.03441
 29 Li   -0.03397   -0.02305   -0.04993
 30 Li    0.00525   -0.32015    0.39222
 31 Li    0.03572    0.01338   -0.02883
 32 Li   -0.02862    0.01943   -0.04451
 33 Li   -0.00406    0.00940   -0.02404
 34 Li    0.00077    0.00004   -0.01469
 35 Li    0.00435   -0.00059   -0.00805
 36 O     0.74066    9.69262   16.69643
 37 C     0.01550   -0.25137   -0.02771
 38 C    -0.02367    0.06131    0.04521
 39 C    -1.70549    1.67410    2.39415
 40 C     0.03362   -0.06278    0.02885
 41 H    -0.02718   -0.05239   -0.00879
 42 H    -0.04114   -0.02206    0.06876
 43 H    -0.01295   -0.00059   -0.02751
 44 H    -0.00965    0.00381   -0.00587
 45 H    -0.05152    0.14352    0.34665
 46 H    -0.57700    0.50189    0.15476
 47 H    -0.00734    0.00915   -0.03705
 48 H    -0.00932   -0.00402    0.02205
 49 H     0.02006    0.04247   -0.00822
 50 H    -1.25105  -13.71962    1.07072
 51 N     0.32737    5.60918  -10.82975
 52 N     2.54344   -3.51262  -10.34753

System changes: positions 

Initializing position-dependent things.

Density initialized from wave functions
       .-----------------------.  
      /|                       |  
     / |                       |  
    /  |                       |  
   /   |                       |  
  /    |                       |  
 *     |                       |  
 |     |                       |  
 |     |                       |  
 |     |                       |  
 |     |                       |  
 |     |                       |  
 |     |          H     H      |  
 |O    |    HH   C  H   C      |  
 |     |      CLi H C  LH      |  
 |N    |     H     H     H     |  
 |     |     Li      Li      Li|  
 |N    |  Li      Li      Li   |  
 | Li  |   Li      Li          |  
 |     |Li      Li      Li     |  
 |     |                 Li    |  
 |   LLi     LLi     LLi       |  
 |     |  Li      Li      Li   |  
 | Li  |   Li      Li          |  
 |     |Li      Li      Li     |  
 Li    | Li      Li            |  
 |    Li      Li      Li       |  
 |     |                       |  
 |     |                       |  
 |     |                       |  
 |     |                       |  
 |     |                       |  
 |     |                       |  
 |     .-----------------------.  
 |    /                       /   
 |   /                       /    
 |  /                       /     
 | /                       /      
 |/                       /       
 *-----------------------*        

Positions:
   0 Li     1.617037    1.617037   10.000000    ( 0.0000,  0.0000,  0.0000)
   1 Li     4.851111    1.617037   10.000000    ( 0.0000,  0.0000,  0.0000)
   2 Li     8.085185    1.617037   10.000000    ( 0.0000,  0.0000,  0.0000)
   3 Li     1.617037    4.851111   10.000000    ( 0.0000,  0.0000,  0.0000)
   4 Li     4.851111    4.851111   10.000000    ( 0.0000,  0.0000,  0.0000)
   5 Li     8.085185    4.851111   10.000000    ( 0.0000,  0.0000,  0.0000)
   6 Li     1.617037    8.085185   10.000000    ( 0.0000,  0.0000,  0.0000)
   7 Li     4.851111    8.085185   10.000000    ( 0.0000,  0.0000,  0.0000)
   8 Li     8.085185    8.085185   10.000000    ( 0.0000,  0.0000,  0.0000)
   9 Li     0.000000    0.000000   11.617037    ( 0.0000,  0.0000,  0.0000)
  10 Li     3.234074    0.000000   11.617037    ( 0.0000,  0.0000,  0.0000)
  11 Li     6.468148    0.000000   11.617037    ( 0.0000,  0.0000,  0.0000)
  12 Li     0.000000    3.234074   11.617037    ( 0.0000,  0.0000,  0.0000)
  13 Li     3.234074    3.234074   11.617037    ( 0.0000,  0.0000,  0.0000)
  14 Li     6.468148    3.234074   11.617037    ( 0.0000,  0.0000,  0.0000)
  15 Li     0.000000    6.468148   11.617037    ( 0.0000,  0.0000,  0.0000)
  16 Li     3.234074    6.468148   11.617037    ( 0.0000,  0.0000,  0.0000)
  17 Li     6.468148    6.468148   11.617037    ( 0.0000,  0.0000,  0.0000)
  18 Li     1.617495    1.617000   13.469149    ( 0.0000,  0.0000,  0.0000)
  19 Li     4.851106    1.617036   13.470155    ( 0.0000,  0.0000,  0.0000)
  20 Li     8.084720    1.617033   13.469198    ( 0.0000,  0.0000,  0.0000)
  21 Li     1.616877    4.851021   13.470061    ( 0.0000,  0.0000,  0.0000)
  22 Li     4.851084    4.851161   13.469994    ( 0.0000,  0.0000,  0.0000)
  23 Li     8.085361    4.850985   13.470119    ( 0.0000,  0.0000,  0.0000)
  24 Li     1.616919    8.085331   13.470121    ( 0.0000,  0.0000,  0.0000)
  25 Li     4.851110    8.085114   13.469961    ( 0.0000,  0.0000,  0.0000)
  26 Li     8.085295    8.085332   13.470105    ( 0.0000,  0.0000,  0.0000)
  27 Li    -0.000111    0.001243   15.446981    ( 0.0000,  0.0000,  0.0000)
  28 Li     3.234303   -0.000157   15.445644    ( 0.0000,  0.0000,  0.0000)
  29 Li     6.467887   -0.000171   15.445565    ( 0.0000,  0.0000,  0.0000)
  30 Li     0.000067    3.231583   15.448684    ( 0.0000,  0.0000,  0.0000)
  31 Li     3.234400    3.234205   15.445662    ( 0.0000,  0.0000,  0.0000)
  32 Li     6.467885    3.234233   15.445591    ( 0.0000,  0.0000,  0.0000)
  33 Li    -0.000023    6.468196   15.445727    ( 0.0000,  0.0000,  0.0000)
  34 Li     3.234056    6.468135   15.445824    ( 0.0000,  0.0000,  0.0000)
  35 Li     6.468198    6.468136   15.445870    ( 0.0000,  0.0000,  0.0000)
  36 O      0.004384    1.666210   19.740461    ( 0.0000,  0.0000,  0.0000)
  37 C     -2.467798    1.603846   19.682049    ( 0.0000,  0.0000,  0.0000)
  38 C     -3.736906    2.459435   19.668679    ( 0.0000,  0.0000,  0.0000)
  39 C     -1.192811    2.436867   19.660758    ( 0.0000,  0.0000,  0.0000)
  40 C     -5.009248    1.608652   19.652963    ( 0.0000,  0.0000,  0.0000)
  41 H     -2.452493    0.971038   20.575205    ( 0.0000,  0.0000,  0.0000)
  42 H     -2.480527    0.934231   18.810797    ( 0.0000,  0.0000,  0.0000)
  43 H     -3.723749    3.118902   18.791911    ( 0.0000,  0.0000,  0.0000)
  44 H     -3.741590    3.115949   20.546288    ( 0.0000,  0.0000,  0.0000)
  45 H     -1.192136    3.094312   18.775202    ( 0.0000,  0.0000,  0.0000)
  46 H     -1.105937    3.056674   20.543120    ( 0.0000,  0.0000,  0.0000)
  47 H     -5.036940    0.966271   18.768368    ( 0.0000,  0.0000,  0.0000)
  48 H     -5.054726    0.958731   20.530308    ( 0.0000,  0.0000,  0.0000)
  49 H     -5.912427    2.222705   19.646566    ( 0.0000,  0.0000,  0.0000)
  50 H     -0.055497    0.976806   18.892313    ( 0.0000,  0.0000,  0.0000)
  51 N      0.002274    1.658872   17.139505    ( 0.0000,  0.0000,  0.0000)
  52 N      0.016021    1.564506   18.222834    ( 0.0000,  0.0000,  0.0000)

Unit cell:
           periodic     x           y           z      points  spacing
  1. axis:    yes    9.702222    0.000000    0.000000    60     0.1617
  2. axis:    yes    0.000000    9.702222    0.000000    60     0.1617
  3. axis:    no     0.000000    0.000000   26.601111   168     0.1583

  Lengths:   9.702222   9.702222  26.601111
  Angles:   90.000000  90.000000  90.000000

Effective grid spacing dv^(1/3) = 0.1606

     iter     time        total  log10-change:
                         energy  eigst   dens
iter:   1 10:32:22  -350.409105  -0.78
iter:   2 10:32:30  -350.341643  -1.25  -1.82
iter:   3 10:32:38  -350.308817  -1.07  -1.92
iter:   4 10:32:46  -350.262121  -1.14  -1.77
Writing to output.gpw (mode='')

iter:   5 10:32:53  -350.262372  -1.99  -2.30
iter:   6 10:33:01  -350.258756c -1.81  -2.28
iter:   7 10:33:09  -350.251995c -2.00  -2.32
iter:   8 10:33:18  -350.251550c -2.82  -2.62
iter:   9 10:33:26  -350.251379c -2.62  -2.70
Writing to output.gpw (mode='')

iter:  10 10:33:34  -350.251454c -3.00  -2.84
iter:  11 10:33:42  -350.251348c -3.24  -2.97
iter:  12 10:33:50  -350.251392c -3.46  -3.03
iter:  13 10:33:57  -350.251343c -3.90  -3.12
iter:  14 10:34:05  -350.251320c -3.78  -3.17
Writing to output.gpw (mode='')

iter:  15 10:34:13  -350.251282c -4.23  -3.26
iter:  16 10:34:20  -350.251275c -4.35  -3.43
iter:  17 10:34:28  -350.251279c -4.29  -3.54
iter:  18 10:34:36  -350.251295c -4.82  -3.65
iter:  19 10:34:49  -350.251305c -4.83  -3.91
Writing to output.gpw (mode='')

iter:  20 10:34:57  -350.251302c -5.31  -4.05c
iter:  21 10:35:05  -350.251298c -5.40  -4.09c
iter:  22 10:35:12  -350.251297c -5.36  -4.16c
iter:  23 10:35:20  -350.251301c -5.72  -4.23c
iter:  24 10:35:28  -350.251301c -5.86  -4.31c
Writing to output.gpw (mode='')

iter:  25 10:35:35  -350.251300c -5.94  -4.36c
iter:  26 10:35:43  -350.251301c -6.08  -4.50c
iter:  27 10:35:51  -350.251300c -6.15  -4.71c
iter:  28 10:35:58  -350.251300c -6.22  -4.72c
iter:  29 10:36:06  -350.251300c -6.52  -4.86c
Writing to output.gpw (mode='')

iter:  30 10:36:14  -350.251301c -6.53  -4.89c
iter:  31 10:36:22  -350.251301c -6.68  -5.01c
iter:  32 10:36:29  -350.251301c -6.94  -5.07c
iter:  33 10:36:37  -350.251301c -6.94  -5.08c
iter:  34 10:36:45  -350.251301c -6.87  -5.09c
Writing to output.gpw (mode='')

iter:  35 10:36:52  -350.251301c -7.13  -5.12c
iter:  36 10:37:00  -350.251301c -7.28  -5.22c
iter:  37 10:37:08  -350.251301c -7.31  -5.32c
iter:  38 10:37:15  -350.251301c -7.44c -5.50c

Converged after 38 iterations.

Dipole moment: (-14.631291, -4.425434, 0.089154) |e|*Ang

Energy contributions relative to reference atoms: (reference = -16540.070923)

Kinetic:       +225.885819
Potential:     -207.048868
External:        +0.000000
XC:            -369.831010
Entropy (-ST):   -0.142718
Local:           +0.814116
--------------------------
Free energy:   -350.322660
Extrapolated:  -350.251301

Dipole-layer corrected work functions: 3.391328, 3.219943 eV

Showing only first 2 kpts
 Kpt  Band  Eigenvalues  Occupancy
  0    37     -3.54989    1.98500
  0    38     -3.43931    1.87089
  0    39     -3.15200    0.08849
  0    40     -3.04974    0.01191

  1    37     -3.35361    1.44605
  1    38     -3.30469    0.99056
  1    39     -3.27313    0.68593
  1    40     -3.19840    0.20967


Fermi level: -3.30564

No gap
Writing to output.gpw (mode='')


Forces in eV/Ang:
  0 Li    0.01082   -0.00280   -0.27229
  1 Li    0.00038    0.00123   -0.26302
  2 Li   -0.01113   -0.00149   -0.27275
  3 Li    0.00577    0.00825   -0.27101
  4 Li    0.00026    0.00266   -0.27925
  5 Li   -0.00524    0.00723   -0.27188
  6 Li    0.00387   -0.00672   -0.27156
  7 Li   -0.00036   -0.00189   -0.28399
  8 Li   -0.00280   -0.00648   -0.27174
  9 Li   -0.00109    0.01240    0.30056
 10 Li    0.01842   -0.00762    0.25279
 11 Li   -0.01674   -0.00491    0.25345
 12 Li    0.00060   -0.01677    0.31634
 13 Li    0.01762    0.00547    0.25523
 14 Li   -0.01766    0.00563    0.25191
 15 Li   -0.00048    0.00790    0.24184
 16 Li   -0.02585    0.00287    0.26246
 17 Li    0.02493   -0.00065    0.26814
 18 Li    0.05752   -0.00387   -0.07123
 19 Li   -0.00002    0.00027    0.05374
 20 Li   -0.05841   -0.00089   -0.06627
 21 Li   -0.01932   -0.01247    0.04062
 22 Li   -0.00266    0.00664    0.03405
 23 Li    0.02090   -0.01597    0.04685
 24 Li   -0.01539    0.01856    0.05174
 25 Li   -0.00046   -0.00909    0.02845
 26 Li    0.01470    0.01889    0.05038
 27 Li   -0.01149    0.15220    0.12187
 28 Li    0.02972   -0.01925   -0.03883
 29 Li   -0.03343   -0.02240   -0.05054
 30 Li    0.00297   -0.29576    0.32991
 31 Li    0.03714    0.01517   -0.03240
 32 Li   -0.03008    0.01953   -0.04420
 33 Li   -0.00322    0.00703   -0.02238
 34 Li   -0.00168   -0.00031   -0.01319
 35 Li    0.00589   -0.00051   -0.00733
 36 O     0.50333    7.69964   14.65841
 37 C     0.00727   -0.18571    0.00373
 38 C    -0.03550    0.04640    0.03836
 39 C    -1.33750    1.35358    2.11940
 40 C     0.02007   -0.05491    0.02562
 41 H    -0.02955   -0.05622   -0.00868
 42 H    -0.03238   -0.02116    0.06738
 43 H    -0.01341   -0.00197   -0.02211
 44 H    -0.00990   -0.00195   -0.00999
 45 H    -0.04383    0.13008    0.32060
 46 H    -0.63178    0.58130    0.16643
 47 H    -0.00640    0.00700   -0.03459
 48 H    -0.01117   -0.00237    0.01865
 49 H     0.01204    0.03841   -0.00489
 50 H    -1.07539  -10.61667    2.06480
 51 N     0.17196    5.46457  -11.25725
 52 N     2.52742   -4.26309   -8.45832

System changes: positions 

Initializing position-dependent things.

Density initialized from wave functions
       .-----------------------.  
      /|                       |  
     / |                       |  
    /  |                       |  
   /   |                       |  
  /    |                       |  
 *     |                       |  
 |     |                       |  
 |     |                       |  
 |     |                       |  
 |     |                       |  
 |     |                       |  
 |     |          H     H      |  
 |O    |    HH   C  H   C      |  
 |     |      CLi H C  LH      |  
 |N    |     H     H     H     |  
 |     |     Li      Li      Li|  
 |N    |  Li      Li      Li   |  
 | Li  |   Li      Li          |  
 |     |Li      Li      Li     |  
 |     |                 Li    |  
 |   LLi     LLi     LLi       |  
 |     |  Li      Li      Li   |  
 | Li  |   Li      Li          |  
 |     |Li      Li      Li     |  
 Li    | Li      Li            |  
 |    Li      Li      Li       |  
 |     |                       |  
 |     |                       |  
 |     |                       |  
 |     |                       |  
 |     |                       |  
 |     |                       |  
 |     .-----------------------.  
 |    /                       /   
 |   /                       /    
 |  /                       /     
 | /                       /      
 |/                       /       
 *-----------------------*        

Positions:
   0 Li     1.617037    1.617037   10.000000    ( 0.0000,  0.0000,  0.0000)
   1 Li     4.851111    1.617037   10.000000    ( 0.0000,  0.0000,  0.0000)
   2 Li     8.085185    1.617037   10.000000    ( 0.0000,  0.0000,  0.0000)
   3 Li     1.617037    4.851111   10.000000    ( 0.0000,  0.0000,  0.0000)
   4 Li     4.851111    4.851111   10.000000    ( 0.0000,  0.0000,  0.0000)
   5 Li     8.085185    4.851111   10.000000    ( 0.0000,  0.0000,  0.0000)
   6 Li     1.617037    8.085185   10.000000    ( 0.0000,  0.0000,  0.0000)
   7 Li     4.851111    8.085185   10.000000    ( 0.0000,  0.0000,  0.0000)
   8 Li     8.085185    8.085185   10.000000    ( 0.0000,  0.0000,  0.0000)
   9 Li     0.000000    0.000000   11.617037    ( 0.0000,  0.0000,  0.0000)
  10 Li     3.234074    0.000000   11.617037    ( 0.0000,  0.0000,  0.0000)
  11 Li     6.468148    0.000000   11.617037    ( 0.0000,  0.0000,  0.0000)
  12 Li     0.000000    3.234074   11.617037    ( 0.0000,  0.0000,  0.0000)
  13 Li     3.234074    3.234074   11.617037    ( 0.0000,  0.0000,  0.0000)
  14 Li     6.468148    3.234074   11.617037    ( 0.0000,  0.0000,  0.0000)
  15 Li     0.000000    6.468148   11.617037    ( 0.0000,  0.0000,  0.0000)
  16 Li     3.234074    6.468148   11.617037    ( 0.0000,  0.0000,  0.0000)
  17 Li     6.468148    6.468148   11.617037    ( 0.0000,  0.0000,  0.0000)
  18 Li     1.617750    1.616986   13.468881    ( 0.0000,  0.0000,  0.0000)
  19 Li     4.851099    1.617028   13.470363    ( 0.0000,  0.0000,  0.0000)
  20 Li     8.084470    1.617029   13.468966    ( 0.0000,  0.0000,  0.0000)
  21 Li     1.616774    4.850939   13.470304    ( 0.0000,  0.0000,  0.0000)
  22 Li     4.851077    4.851199   13.470108    ( 0.0000,  0.0000,  0.0000)
  23 Li     8.085468    4.850895   13.470370    ( 0.0000,  0.0000,  0.0000)
  24 Li     1.616845    8.085423   13.470354    ( 0.0000,  0.0000,  0.0000)
  25 Li     4.851110    8.085066   13.470091    ( 0.0000,  0.0000,  0.0000)
  26 Li     8.085365    8.085420   13.470328    ( 0.0000,  0.0000,  0.0000)
  27 Li    -0.000185    0.001500   15.446776    ( 0.0000,  0.0000,  0.0000)
  28 Li     3.234449   -0.000243   15.445435    ( 0.0000,  0.0000,  0.0000)
  29 Li     6.467755   -0.000249   15.445360    ( 0.0000,  0.0000,  0.0000)
  30 Li     0.000083    3.230448   15.449577    ( 0.0000,  0.0000,  0.0000)
  31 Li     3.234590    3.234291   15.445470    ( 0.0000,  0.0000,  0.0000)
  32 Li     6.467730    3.234313   15.445409    ( 0.0000,  0.0000,  0.0000)
  33 Li    -0.000025    6.468194   15.445622    ( 0.0000,  0.0000,  0.0000)
  34 Li     3.234017    6.468125   15.445779    ( 0.0000,  0.0000,  0.0000)
  35 Li     6.468243    6.468132   15.445841    ( 0.0000,  0.0000,  0.0000)
  36 O      0.003799    1.670921   19.766697    ( 0.0000,  0.0000,  0.0000)
  37 C     -2.468296    1.604100   19.682589    ( 0.0000,  0.0000,  0.0000)
  38 C     -3.737211    2.459094   19.668759    ( 0.0000,  0.0000,  0.0000)
  39 C     -1.192672    2.438336   19.665228    ( 0.0000,  0.0000,  0.0000)
  40 C     -5.009364    1.608678   19.653049    ( 0.0000,  0.0000,  0.0000)
  41 H     -2.452658    0.970732   20.575177    ( 0.0000,  0.0000,  0.0000)
  42 H     -2.480513    0.934086   18.810966    ( 0.0000,  0.0000,  0.0000)
  43 H     -3.723801    3.118920   18.791859    ( 0.0000,  0.0000,  0.0000)
  44 H     -3.741625    3.115899   20.546219    ( 0.0000,  0.0000,  0.0000)
  45 H     -1.192642    3.094794   18.776694    ( 0.0000,  0.0000,  0.0000)
  46 H     -1.109914    3.060884   20.544699    ( 0.0000,  0.0000,  0.0000)
  47 H     -5.036939    0.966244   18.768233    ( 0.0000,  0.0000,  0.0000)
  48 H     -5.054787    0.958742   20.530338    ( 0.0000,  0.0000,  0.0000)
  49 H     -5.912480    2.222779   19.646597    ( 0.0000,  0.0000,  0.0000)
  50 H     -0.057556    0.975671   18.913259    ( 0.0000,  0.0000,  0.0000)
  51 N      0.001774    1.679177   17.110568    ( 0.0000,  0.0000,  0.0000)
  52 N      0.024716    1.535809   18.196361    ( 0.0000,  0.0000,  0.0000)

Unit cell:
           periodic     x           y           z      points  spacing
  1. axis:    yes    9.702222    0.000000    0.000000    60     0.1617
  2. axis:    yes    0.000000    9.702222    0.000000    60     0.1617
  3. axis:    no     0.000000    0.000000   26.601111   168     0.1583

  Lengths:   9.702222   9.702222  26.601111
  Angles:   90.000000  90.000000  90.000000

Effective grid spacing dv^(1/3) = 0.1606

     iter     time        total  log10-change:
                         energy  eigst   dens
iter:   1 10:37:25  -351.568717  -0.78
iter:   2 10:37:33  -351.542366  -1.20  -1.89
iter:   3 10:37:40  -351.527409  -1.51  -1.83
iter:   4 10:37:48  -351.501801  -1.63  -1.98
Writing to output.gpw (mode='')

iter:   5 10:37:55  -351.500978c -2.04  -2.36
iter:   6 10:38:03  -351.500271c -2.10  -2.48
iter:   7 10:38:11  -351.499207c -2.59  -2.50
iter:   8 10:38:18  -351.498830c -2.62  -2.64
iter:   9 10:38:26  -351.498878c -3.15  -2.92
Writing to output.gpw (mode='')

iter:  10 10:38:33  -351.498697c -3.65  -2.98
iter:  11 10:38:41  -351.498715c -3.88  -3.07
iter:  12 10:38:48  -351.498667c -3.99  -3.19
iter:  13 10:38:56  -351.498598c -4.17  -3.35
iter:  14 10:39:04  -351.498588c -4.17  -3.50
Writing to output.gpw (mode='')

iter:  15 10:39:11  -351.498595c -4.56  -3.60
iter:  16 10:39:19  -351.498594c -4.86  -3.65
iter:  17 10:39:26  -351.498602c -5.05  -3.87
iter:  18 10:39:34  -351.498603c -5.33  -4.02c
iter:  19 10:39:48  -351.498605c -5.37  -4.11c
Writing to output.gpw (mode='')

iter:  20 10:39:57  -351.498606c -5.68  -4.11c
iter:  21 10:40:04  -351.498605c -5.74  -4.30c
iter:  22 10:40:12  -351.498602c -5.80  -4.40c
iter:  23 10:40:20  -351.498602c -6.07  -4.45c
iter:  24 10:40:27  -351.498602c -6.23  -4.59c
Writing to output.gpw (mode='')

iter:  25 10:40:35  -351.498603c -6.38  -4.64c
iter:  26 10:40:42  -351.498604c -6.30  -4.77c
iter:  27 10:40:50  -351.498604c -6.92  -4.89c
iter:  28 10:40:57  -351.498604c -6.77  -4.95c
iter:  29 10:41:05  -351.498604c -7.00  -5.07c
Writing to output.gpw (mode='')

iter:  30 10:41:13  -351.498604c -6.94  -5.21c
iter:  31 10:41:20  -351.498604c -7.32  -5.38c
iter:  32 10:41:28  -351.498604c -7.09  -5.38c
iter:  33 10:41:35  -351.498604c -7.37  -5.41c
iter:  34 10:41:43  -351.498604c -7.34  -5.50c
Writing to output.gpw (mode='')

iter:  35 10:41:51  -351.498604c -7.37  -5.53c
iter:  36 10:42:00  -351.498604c -7.35  -5.57c
iter:  37 10:42:11  -351.498604c -7.76c -5.59c

Converged after 37 iterations.

Dipole moment: (-15.258214, -4.370269, 0.020684) |e|*Ang

Energy contributions relative to reference atoms: (reference = -16540.070923)

Kinetic:       +220.742030
Potential:     -203.933903
External:        +0.000000
XC:            -369.050554
Entropy (-ST):   -0.142025
Local:           +0.814836
--------------------------
Free energy:   -351.569616
Extrapolated:  -351.498604

Dipole-layer corrected work functions: 3.394801, 3.355040 eV

Showing only first 2 kpts
 Kpt  Band  Eigenvalues  Occupancy
  0    37     -3.61888    1.98491
  0    38     -3.50907    1.87204
  0    39     -3.22384    0.09291
  0    40     -3.11875    0.01184

  1    37     -3.42674    1.47631
  1    38     -3.37049    0.95574
  1    39     -3.34348    0.69559
  1    40     -3.26534    0.20100


Fermi level: -3.37492

No gap
Writing to output.gpw (mode='')


Forces in eV/Ang:
  0 Li    0.01094   -0.00252   -0.27149
  1 Li    0.00043    0.00122   -0.26288
  2 Li   -0.01129   -0.00171   -0.27216
  3 Li    0.00610    0.00869   -0.27130
  4 Li   -0.00010    0.00353   -0.28015
  5 Li   -0.00516    0.00751   -0.27184
  6 Li    0.00430   -0.00738   -0.27190
  7 Li   -0.00047   -0.00206   -0.28461
  8 Li   -0.00308   -0.00669   -0.27200
  9 Li   -0.00099    0.01287    0.30089
 10 Li    0.01865   -0.00761    0.25185
 11 Li   -0.01702   -0.00534    0.25235
 12 Li    0.00032   -0.01652    0.31576
 13 Li    0.01772    0.00566    0.25420
 14 Li   -0.01743    0.00526    0.25223
 15 Li   -0.00052    0.00809    0.24059
 16 Li   -0.02664    0.00225    0.26190
 17 Li    0.02567    0.00001    0.26784
 18 Li    0.05754   -0.00319   -0.06856
 19 Li   -0.00026   -0.00017    0.05167
 20 Li   -0.05806   -0.00129   -0.06353
 21 Li   -0.02033   -0.01347    0.04241
 22 Li   -0.00217    0.00619    0.03296
 23 Li    0.02133   -0.01585    0.04678
 24 Li   -0.01572    0.01851    0.05178
 25 Li   -0.00058   -0.00874    0.02972
 26 Li    0.01506    0.01868    0.05044
 27 Li   -0.01179    0.13760    0.09323
 28 Li    0.03058   -0.01822   -0.04044
 29 Li   -0.03177   -0.02030   -0.04885
 30 Li   -0.00064   -0.30177    0.31565
 31 Li    0.03447    0.01456   -0.03122
 32 Li   -0.02866    0.01766   -0.04005
 33 Li   -0.00252    0.00507   -0.02303
 34 Li   -0.00196   -0.00032   -0.01291
 35 Li    0.00551   -0.00047   -0.00766
 36 O     0.22247    6.13351   12.43385
 37 C     0.01368   -0.14252    0.02165
 38 C    -0.03876    0.03934    0.03399
 39 C    -1.08093    1.14674    1.89548
 40 C     0.00879   -0.04804    0.02190
 41 H    -0.03557   -0.05804   -0.00510
 42 H    -0.01926   -0.01160    0.06936
 43 H    -0.01427   -0.00328   -0.01793
 44 H    -0.01260   -0.00523   -0.01216
 45 H    -0.00103    0.08154    0.30930
 46 H    -0.66685    0.63035    0.18617
 47 H    -0.00622    0.00511   -0.03207
 48 H    -0.01281   -0.00181    0.01616
 49 H     0.00536    0.03434   -0.00281
 50 H    -0.94557   -8.50084    2.98860
 51 N    -0.00725    4.92420   -8.83691
 52 N     2.61300   -4.05293   -9.42582

System changes: positions 

Initializing position-dependent things.

Density initialized from wave functions
       .-----------------------.  
      /|                       |  
     / |                       |  
    /  |                       |  
   /   |                       |  
  /    |                       |  
 *     |                       |  
 |     |                       |  
 |     |                       |  
 |     |                       |  
 |     |                       |  
 |     |                       |  
 |     |          H     H      |  
 |O    |    HH   C  H   C      |  
 |     |      CLi H C  LH      |  
 |     |     H     H     H     |  
 |N    |     Li      Li      Li|  
 |N    |  Li      Li      Li   |  
 | Li  |   Li      Li          |  
 |     |Li      Li      Li     |  
 |     |                 Li    |  
 |   LLi     LLi     LLi       |  
 |     |  Li      Li      Li   |  
 | Li  |   Li      Li          |  
 |     |Li      Li      Li     |  
 Li    | Li      Li            |  
 |    Li      Li      Li       |  
 |     |                       |  
 |     |                       |  
 |     |                       |  
 |     |                       |  
 |     |                       |  
 |     |                       |  
 |     .-----------------------.  
 |    /                       /   
 |   /                       /    
 |  /                       /     
 | /                       /      
 |/                       /       
 *-----------------------*        

Positions:
   0 Li     1.617037    1.617037   10.000000    ( 0.0000,  0.0000,  0.0000)
   1 Li     4.851111    1.617037   10.000000    ( 0.0000,  0.0000,  0.0000)
   2 Li     8.085185    1.617037   10.000000    ( 0.0000,  0.0000,  0.0000)
   3 Li     1.617037    4.851111   10.000000    ( 0.0000,  0.0000,  0.0000)
   4 Li     4.851111    4.851111   10.000000    ( 0.0000,  0.0000,  0.0000)
   5 Li     8.085185    4.851111   10.000000    ( 0.0000,  0.0000,  0.0000)
   6 Li     1.617037    8.085185   10.000000    ( 0.0000,  0.0000,  0.0000)
   7 Li     4.851111    8.085185   10.000000    ( 0.0000,  0.0000,  0.0000)
   8 Li     8.085185    8.085185   10.000000    ( 0.0000,  0.0000,  0.0000)
   9 Li     0.000000    0.000000   11.617037    ( 0.0000,  0.0000,  0.0000)
  10 Li     3.234074    0.000000   11.617037    ( 0.0000,  0.0000,  0.0000)
  11 Li     6.468148    0.000000   11.617037    ( 0.0000,  0.0000,  0.0000)
  12 Li     0.000000    3.234074   11.617037    ( 0.0000,  0.0000,  0.0000)
  13 Li     3.234074    3.234074   11.617037    ( 0.0000,  0.0000,  0.0000)
  14 Li     6.468148    3.234074   11.617037    ( 0.0000,  0.0000,  0.0000)
  15 Li     0.000000    6.468148   11.617037    ( 0.0000,  0.0000,  0.0000)
  16 Li     3.234074    6.468148   11.617037    ( 0.0000,  0.0000,  0.0000)
  17 Li     6.468148    6.468148   11.617037    ( 0.0000,  0.0000,  0.0000)
  18 Li     1.617981    1.616977   13.468643    ( 0.0000,  0.0000,  0.0000)
  19 Li     4.851093    1.617020   13.470547    ( 0.0000,  0.0000,  0.0000)
  20 Li     8.084243    1.617022   13.468756    ( 0.0000,  0.0000,  0.0000)
  21 Li     1.616679    4.850865   13.470517    ( 0.0000,  0.0000,  0.0000)
  22 Li     4.851073    4.851228   13.470216    ( 0.0000,  0.0000,  0.0000)
  23 Li     8.085563    4.850821   13.470583    ( 0.0000,  0.0000,  0.0000)
  24 Li     1.616779    8.085504   13.470566    ( 0.0000,  0.0000,  0.0000)
  25 Li     4.851108    8.085027   13.470216    ( 0.0000,  0.0000,  0.0000)
  26 Li     8.085429    8.085498   13.470532    ( 0.0000,  0.0000,  0.0000)
  27 Li    -0.000245    0.001734   15.446579    ( 0.0000,  0.0000,  0.0000)
  28 Li     3.234584   -0.000315   15.445245    ( 0.0000,  0.0000,  0.0000)
  29 Li     6.467642   -0.000313   15.445178    ( 0.0000,  0.0000,  0.0000)
  30 Li     0.000066    3.229349   15.450413    ( 0.0000,  0.0000,  0.0000)
  31 Li     3.234734    3.234359   15.445322    ( 0.0000,  0.0000,  0.0000)
  32 Li     6.467607    3.234376   15.445270    ( 0.0000,  0.0000,  0.0000)
  33 Li    -0.000025    6.468188   15.445528    ( 0.0000,  0.0000,  0.0000)
  34 Li     3.233990    6.468119   15.445736    ( 0.0000,  0.0000,  0.0000)
  35 Li     6.468275    6.468129   15.445811    ( 0.0000,  0.0000,  0.0000)
  36 O      0.002119    1.672893   19.787299    ( 0.0000,  0.0000,  0.0000)
  37 C     -2.468502    1.604302   19.683030    ( 0.0000,  0.0000,  0.0000)
  38 C     -3.737461    2.458929   19.668831    ( 0.0000,  0.0000,  0.0000)
  39 C     -1.192742    2.439566   19.669312    ( 0.0000,  0.0000,  0.0000)
  40 C     -5.009484    1.608657   19.653109    ( 0.0000,  0.0000,  0.0000)
  41 H     -2.452837    0.970461   20.575175    ( 0.0000,  0.0000,  0.0000)
  42 H     -2.480455    0.934047   18.811187    ( 0.0000,  0.0000,  0.0000)
  43 H     -3.723858    3.118918   18.791828    ( 0.0000,  0.0000,  0.0000)
  44 H     -3.741681    3.115841   20.546147    ( 0.0000,  0.0000,  0.0000)
  45 H     -1.192658    3.094901   18.777893    ( 0.0000,  0.0000,  0.0000)
  46 H     -1.113334    3.064460   20.545921    ( 0.0000,  0.0000,  0.0000)
  47 H     -5.036947    0.966225   18.768123    ( 0.0000,  0.0000,  0.0000)
  48 H     -5.054852    0.958748   20.530364    ( 0.0000,  0.0000,  0.0000)
  49 H     -5.912543    2.222848   19.646623    ( 0.0000,  0.0000,  0.0000)
  50 H     -0.059175    0.977446   18.934247    ( 0.0000,  0.0000,  0.0000)
  51 N      0.000336    1.695033   17.092516    ( 0.0000,  0.0000,  0.0000)
  52 N      0.034087    1.512708   18.165080    ( 0.0000,  0.0000,  0.0000)

Unit cell:
           periodic     x           y           z      points  spacing
  1. axis:    yes    9.702222    0.000000    0.000000    60     0.1617
  2. axis:    yes    0.000000    9.702222    0.000000    60     0.1617
  3. axis:    no     0.000000    0.000000   26.601111   168     0.1583

  Lengths:   9.702222   9.702222  26.601111
  Angles:   90.000000  90.000000  90.000000

Effective grid spacing dv^(1/3) = 0.1606

     iter     time        total  log10-change:
                         energy  eigst   dens
iter:   1 10:42:23  -352.490112  -0.94
iter:   2 10:42:31  -352.476839  -1.53  -2.10
iter:   3 10:42:39  -352.466790c -1.40  -2.21
iter:   4 10:42:46  -352.456621c -1.52  -2.05
Writing to output.gpw (mode='')

iter:   5 10:42:54  -352.456732c -2.32  -2.47
iter:   6 10:43:02  -352.454186c -2.23  -2.50
iter:   7 10:43:10  -352.453517c -2.30  -2.61
iter:   8 10:43:17  -352.453071c -3.13  -2.89
iter:   9 10:43:25  -352.453350c -3.44  -2.88
Writing to output.gpw (mode='')

iter:  10 10:43:33  -352.453068c -3.17  -2.78
iter:  11 10:43:41  -352.452939c -3.30  -3.05
iter:  12 10:43:48  -352.452918c -4.15  -3.25
iter:  13 10:43:56  -352.452908c -4.14  -3.43
iter:  14 10:44:04  -352.452891c -4.13  -3.47
Writing to output.gpw (mode='')

iter:  15 10:44:11  -352.452872c -4.55  -3.47
iter:  16 10:44:19  -352.452872c -5.01  -3.78
iter:  17 10:44:27  -352.452878c -4.89  -3.89
iter:  18 10:44:34  -352.452878c -5.39  -3.91
iter:  19 10:44:47  -352.452877c -5.45  -4.00
Writing to output.gpw (mode='')

iter:  20 10:44:57  -352.452878c -5.70  -4.11c
iter:  21 10:45:04  -352.452877c -5.97  -4.21c
iter:  22 10:45:12  -352.452876c -5.97  -4.30c
iter:  23 10:45:20  -352.452876c -6.20  -4.37c
iter:  24 10:45:27  -352.452878c -6.35  -4.46c
Writing to output.gpw (mode='')

iter:  25 10:45:35  -352.452877c -6.54  -4.67c
iter:  26 10:45:43  -352.452877c -6.34  -4.77c
iter:  27 10:45:50  -352.452879c -6.62  -4.83c
iter:  28 10:45:58  -352.452878c -7.03  -5.05c
iter:  29 10:46:06  -352.452878c -6.77  -5.05c
Writing to output.gpw (mode='')

iter:  30 10:46:13  -352.452878c -7.11  -5.12c
iter:  31 10:46:21  -352.452878c -7.12  -5.29c
iter:  32 10:46:29  -352.452878c -7.18  -5.32c
iter:  33 10:46:36  -352.452878c -7.44c -5.46c

Converged after 33 iterations.

Dipole moment: (-15.717673, -4.362657, -0.032430) |e|*Ang

Energy contributions relative to reference atoms: (reference = -16540.070923)

Kinetic:       +218.353943
Potential:     -202.872921
External:        +0.000000
XC:            -368.678183
Entropy (-ST):   -0.141547
Local:           +0.815055
--------------------------
Free energy:   -352.523652
Extrapolated:  -352.452878

Dipole-layer corrected work functions: 3.397017, 3.459358 eV

Showing only first 2 kpts
 Kpt  Band  Eigenvalues  Occupancy
  0    37     -3.67206    1.98488
  0    38     -3.56349    1.87476
  0    39     -3.27746    0.09354
  0    40     -3.17176    0.01178

  1    37     -3.48305    1.49948
  1    38     -3.42122    0.93049
  1    39     -3.39800    0.70702
  1    40     -3.31743    0.19680


Fermi level: -3.42819

No gap
Writing to output.gpw (mode='')


Forces in eV/Ang:
  0 Li    0.01113   -0.00224   -0.27091
  1 Li    0.00055    0.00122   -0.26283
  2 Li   -0.01161   -0.00189   -0.27172
  3 Li    0.00609    0.00898   -0.27133
  4 Li   -0.00028    0.00396   -0.28072
  5 Li   -0.00496    0.00771   -0.27166
  6 Li    0.00440   -0.00789   -0.27198
  7 Li   -0.00046   -0.00195   -0.28493
  8 Li   -0.00314   -0.00686   -0.27208
  9 Li   -0.00083    0.01347    0.30095
 10 Li    0.01921   -0.00764    0.25113
 11 Li   -0.01768   -0.00590    0.25117
 12 Li    0.00001   -0.01645    0.31486
 13 Li    0.01828    0.00600    0.25315
 14 Li   -0.01761    0.00511    0.25232
 15 Li   -0.00045    0.00818    0.23978
 16 Li   -0.02740    0.00156    0.26194
 17 Li    0.02634    0.00063    0.26768
 18 Li    0.05737   -0.00238   -0.06573
 19 Li   -0.00034   -0.00050    0.05041
 20 Li   -0.05754   -0.00175   -0.06060
 21 Li   -0.02121   -0.01514    0.04507
 22 Li   -0.00160    0.00645    0.03161
 23 Li    0.02159   -0.01629    0.04758
 24 Li   -0.01599    0.01908    0.05260
 25 Li   -0.00070   -0.00912    0.03017
 26 Li    0.01539    0.01912    0.05137
 27 Li   -0.01196    0.10989    0.04805
 28 Li    0.03273   -0.01847   -0.04319
 29 Li   -0.03134   -0.01949   -0.04899
 30 Li   -0.00575   -0.28903    0.27570
 31 Li    0.03302    0.01506   -0.03162
 32 Li   -0.02901    0.01710   -0.03852
 33 Li   -0.00198    0.00336   -0.02186
 34 Li   -0.00303   -0.00022   -0.01191
 35 Li    0.00606   -0.00054   -0.00737
 36 O    -0.04914    4.64750   10.68669
 37 C     0.00270   -0.09358    0.04817
 38 C    -0.04312    0.02630    0.02795
 39 C    -0.84765    0.93424    1.69761
 40 C     0.00109   -0.04016    0.01945
 41 H    -0.03799   -0.05894   -0.00471
 42 H    -0.00620   -0.00698    0.06587
 43 H    -0.01531   -0.00264   -0.01622
 44 H    -0.01427   -0.00661   -0.01188
 45 H     0.03296    0.04383    0.28937
 46 H    -0.67767    0.66780    0.20247
 47 H    -0.00610    0.00326   -0.03089
 48 H    -0.01413   -0.00159    0.01459
 49 H     0.00059    0.03056   -0.00120
 50 H    -0.78229   -6.32325    3.64115
 51 N    -0.20111    4.68950   -8.71398
 52 N     2.70767   -4.31429   -8.17232

System changes: positions 

Initializing position-dependent things.

Density initialized from wave functions
       .-----------------------.  
      /|                       |  
     / |                       |  
    /  |                       |  
   /   |                       |  
  /    |                       |  
 *     |                       |  
 |     |                       |  
 |     |                       |  
 |     |                       |  
 |     |                       |  
 |     |                       |  
 |     |          H     H      |  
 |     |    HH   C  H   C O    |  
 |     |      CLi H C  LH      |  
 |     |     H     H     H     |  
 |N    |     Li      Li      Li|  
 |     |  Li      Li      Ni   |  
 | Li  |   Li      Li          |  
 |     |Li      Li      Li     |  
 |     |                 Li    |  
 |   LLi     LLi     LLi       |  
 |     |  Li      Li      Li   |  
 | Li  |   Li      Li          |  
 |     |Li      Li      Li     |  
 Li    | Li      Li            |  
 |    Li      Li      Li       |  
 |     |                       |  
[...]

No gap
Writing to output.gpw (mode='')


Forces in eV/Ang:
  0 Li    0.01487    0.00522   -0.26984
  1 Li    0.01439    0.00428   -0.26999
  2 Li   -0.02482    0.00256   -0.27338
  3 Li   -0.00458    0.02228   -0.26571
  4 Li    0.00434   -0.00043   -0.28962
  5 Li   -0.00224    0.01266   -0.27548
  6 Li   -0.00447   -0.02368   -0.27542
  7 Li    0.00355    0.00199   -0.28011
  8 Li   -0.00082   -0.01449   -0.28086
  9 Li   -0.00751   -0.01868    0.32748
 10 Li    0.02086   -0.03021    0.27850
 11 Li   -0.03046   -0.01153    0.26559
 12 Li   -0.01131    0.02708    0.28833
 13 Li    0.02790    0.03135    0.26411
 14 Li   -0.03036    0.00270    0.26959
 15 Li   -0.00202   -0.02063    0.22194
 16 Li   -0.01827   -0.01979    0.24673
 17 Li    0.02350   -0.00429    0.26884
 18 Li   -0.00289    0.00587    0.01490
 19 Li    0.00785    0.00300   -0.00577
 20 Li    0.00433    0.00775    0.00014
 21 Li   -0.00596   -0.01178    0.00527
 22 Li    0.00309    0.00609   -0.00562
 23 Li    0.00340   -0.01036    0.00415
 24 Li   -0.00764    0.00233   -0.00010
 25 Li    0.00025   -0.00144   -0.00450
 26 Li    0.00393    0.00337   -0.00382
 27 Li    0.00131    0.00999    0.01175
 28 Li    0.00798    0.00132    0.00572
 29 Li   -0.00268    0.00177    0.01246
 30 Li   -0.01726    0.04868   -0.02444
 31 Li   -0.00043   -0.00423   -0.00043
 32 Li    0.01390   -0.00102   -0.00101
 33 Li   -0.00191   -0.01108   -0.00271
 34 Li    0.00141    0.00296    0.00221
 35 Li    0.00285   -0.00346    0.00101
 36 O    -0.05641   -0.04251   -0.00660
 37 C    -0.01052   -0.01660    0.01316
 38 C    -0.00575   -0.00677    0.00732
 39 C    -0.01293    0.00598    0.00358
 40 C    -0.00432   -0.00339   -0.01817
 41 H    -0.01375   -0.00975    0.03158
 42 H     0.01389    0.00540   -0.01343
 43 H    -0.00674   -0.01273    0.00938
 44 H     0.02163    0.01137   -0.00281
 45 H     0.01087    0.01909    0.01425
 46 H     0.00569    0.03738   -0.00129
 47 H     0.00780   -0.01188   -0.01235
 48 H     0.02361    0.01416   -0.01783
 49 H    -0.00510   -0.01021   -0.02316
 50 H    -0.01008   -0.00053    0.02936
 51 N     0.00248   -0.01938   -0.01538
 52 N     0.00572    0.00605    0.01899

System changes: positions 

Initializing position-dependent things.

Density initialized from wave functions
       .-----------------------.  
      /|                       |  
     / |                       |  
    /  |                       |  
   /   |                       |  
  /    |                       |  
 *     |                       |  
 |     |                       |  
 |     |                       |  
 |     |                       |  
 |     |                       |  
 |     |               H       |  
 |     |         H             |  
 |     |    HH   C HC  CH O    |  
 |H    |     C Li H    Li      Li 
 |     |     H      H          |  
 |   Li|     Li      Li        |  
 | N   |  Li      Li      Li   |  
 | Li  |   Li      Li          |  
 |     |Li      Li      Li     |  
 |     |                       |  
 |   LLi     LLi     LLi       |  
 |     |  Li      Li      Li   |  
 | Li  |   Li      Li          |  
 |     |Li      Li      Li     |  
 Li    | Li      Li            |  
 |    Li      Li      Li       |  
 |     |                       |  
 |     |                       |  
 |     |                       |  
 |     |                       |  
 |     |                       |  
 |     |                       |  
 |     .-----------------------.  
 |    /                       /   
 |   /                       /    
 |  /                       /     
 | /                       /      
 |/                       /       
 *-----------------------*        

Positions:
   0 Li     1.617037    1.617037   10.000000    ( 0.0000,  0.0000,  0.0000)
   1 Li     4.851111    1.617037   10.000000    ( 0.0000,  0.0000,  0.0000)
   2 Li     8.085185    1.617037   10.000000    ( 0.0000,  0.0000,  0.0000)
   3 Li     1.617037    4.851111   10.000000    ( 0.0000,  0.0000,  0.0000)
   4 Li     4.851111    4.851111   10.000000    ( 0.0000,  0.0000,  0.0000)
   5 Li     8.085185    4.851111   10.000000    ( 0.0000,  0.0000,  0.0000)
   6 Li     1.617037    8.085185   10.000000    ( 0.0000,  0.0000,  0.0000)
   7 Li     4.851111    8.085185   10.000000    ( 0.0000,  0.0000,  0.0000)
   8 Li     8.085185    8.085185   10.000000    ( 0.0000,  0.0000,  0.0000)
   9 Li     0.000000    0.000000   11.617037    ( 0.0000,  0.0000,  0.0000)
  10 Li     3.234074    0.000000   11.617037    ( 0.0000,  0.0000,  0.0000)
  11 Li     6.468148    0.000000   11.617037    ( 0.0000,  0.0000,  0.0000)
  12 Li     0.000000    3.234074   11.617037    ( 0.0000,  0.0000,  0.0000)
  13 Li     3.234074    3.234074   11.617037    ( 0.0000,  0.0000,  0.0000)
  14 Li     6.468148    3.234074   11.617037    ( 0.0000,  0.0000,  0.0000)
  15 Li     0.000000    6.468148   11.617037    ( 0.0000,  0.0000,  0.0000)
  16 Li     3.234074    6.468148   11.617037    ( 0.0000,  0.0000,  0.0000)
  17 Li     6.468148    6.468148   11.617037    ( 0.0000,  0.0000,  0.0000)
  18 Li     1.620836    1.614623   13.389056    ( 0.0000,  0.0000,  0.0000)
  19 Li     4.822597    1.617110   13.483279    ( 0.0000,  0.0000,  0.0000)
  20 Li     8.078564    1.607160   13.451840    ( 0.0000,  0.0000,  0.0000)
  21 Li     1.604153    4.843403   13.497110    ( 0.0000,  0.0000,  0.0000)
  22 Li     4.853923    4.870931   13.473305    ( 0.0000,  0.0000,  0.0000)
  23 Li     8.106799    4.842390   13.514228    ( 0.0000,  0.0000,  0.0000)
  24 Li     1.610071    8.057386   13.469506    ( 0.0000,  0.0000,  0.0000)
  25 Li     4.842979    8.060742   13.474533    ( 0.0000,  0.0000,  0.0000)
  26 Li     8.097858    8.066685   13.490042    ( 0.0000,  0.0000,  0.0000)
  27 Li    -0.022263   -0.045985   15.424745    ( 0.0000,  0.0000,  0.0000)
  28 Li     3.270432   -0.054582   15.395479    ( 0.0000,  0.0000,  0.0000)
  29 Li     6.416937   -0.007007   15.359120    ( 0.0000,  0.0000,  0.0000)
  30 Li     0.005646    3.149599   15.490811    ( 0.0000,  0.0000,  0.0000)
  31 Li     3.277727    3.290816   15.407413    ( 0.0000,  0.0000,  0.0000)
  32 Li     6.425611    3.242124   15.408854    ( 0.0000,  0.0000,  0.0000)
  33 Li     0.014489    6.450092   15.487363    ( 0.0000,  0.0000,  0.0000)
  34 Li     3.226824    6.465502   15.444739    ( 0.0000,  0.0000,  0.0000)
  35 Li     6.460265    6.477987   15.455535    ( 0.0000,  0.0000,  0.0000)
  36 O     -0.076418    1.829194   20.273520    ( 0.0000,  0.0000,  0.0000)
  37 C     -2.505817    1.652666   19.784751    ( 0.0000,  0.0000,  0.0000)
  38 C     -3.800298    2.465511   19.657014    ( 0.0000,  0.0000,  0.0000)
  39 C     -1.269107    2.540216   19.927886    ( 0.0000,  0.0000,  0.0000)
  40 C     -5.062655    1.601459   19.588558    ( 0.0000,  0.0000,  0.0000)
  41 H     -2.559336    0.998013   20.660706    ( 0.0000,  0.0000,  0.0000)
  42 H     -2.391827    0.996861   18.909788    ( 0.0000,  0.0000,  0.0000)
  43 H     -3.745553    3.106634   18.765571    ( 0.0000,  0.0000,  0.0000)
  44 H     -3.879664    3.143716   20.513944    ( 0.0000,  0.0000,  0.0000)
  45 H     -1.119422    3.128907   19.009618    ( 0.0000,  0.0000,  0.0000)
  46 H     -1.423479    3.247997   20.745287    ( 0.0000,  0.0000,  0.0000)
  47 H     -5.055384    0.956042   18.704090    ( 0.0000,  0.0000,  0.0000)
  48 H     -5.151959    0.957820   20.467877    ( 0.0000,  0.0000,  0.0000)
  49 H     -5.964046    2.218886   19.547526    ( 0.0000,  0.0000,  0.0000)
  50 H      0.161550    1.255856   19.533713    ( 0.0000,  0.0000,  0.0000)
  51 N      0.390536    1.691866   16.737778    ( 0.0000,  0.0000,  0.0000)
  52 N      0.615949    0.763681   17.368963    ( 0.0000,  0.0000,  0.0000)

Unit cell:
           periodic     x           y           z      points  spacing
  1. axis:    yes    9.702222    0.000000    0.000000    60     0.1617
  2. axis:    yes    0.000000    9.702222    0.000000    60     0.1617
  3. axis:    no     0.000000    0.000000   26.601111   168     0.1583

  Lengths:   9.702222   9.702222  26.601111
  Angles:   90.000000  90.000000  90.000000

Effective grid spacing dv^(1/3) = 0.1606

     iter     time        total  log10-change:
                         energy  eigst   dens
iter:   1 14:56:19  -359.769921  -1.52
iter:   2 14:56:27  -359.770370  -2.34  -2.48
iter:   3 14:56:34  -359.770105c -2.87  -2.54
iter:   4 14:56:42  -359.769612c -3.27  -2.65
Writing to output.gpw (mode='')

iter:   5 14:56:50  -359.769001c -2.92  -2.79
iter:   6 14:56:57  -359.768832c -3.12  -2.89
iter:   7 14:57:05  -359.768871c -3.31  -3.15
iter:   8 14:57:13  -359.768800c -4.30  -3.25
iter:   9 14:57:20  -359.768767c -4.19  -3.30
Writing to output.gpw (mode='')

iter:  10 14:57:28  -359.768847c -4.45  -3.46
iter:  11 14:57:36  -359.768830c -4.66  -3.39
iter:  12 14:57:43  -359.768806c -4.45  -3.53
iter:  13 14:57:51  -359.768799c -4.97  -3.62
iter:  14 14:57:58  -359.768794c -4.98  -3.72
Writing to output.gpw (mode='')

iter:  15 14:58:06  -359.768793c -5.53  -4.01c
iter:  16 14:58:14  -359.768793c -5.89  -4.08c
iter:  17 14:58:21  -359.768790c -5.67  -4.11c
iter:  18 14:58:29  -359.768789c -6.12  -4.27c
iter:  19 14:58:37  -359.768788c -6.10  -4.42c
Writing to output.gpw (mode='')

iter:  20 14:58:44  -359.768788c -6.40  -4.59c
iter:  21 14:58:52  -359.768789c -6.75  -4.66c
iter:  22 14:59:00  -359.768790c -6.86  -4.72c
iter:  23 14:59:07  -359.768790c -7.21  -4.81c
iter:  24 14:59:15  -359.768789c -7.09  -4.90c
Writing to output.gpw (mode='')

iter:  25 14:59:23  -359.768789c -7.48c -5.00c

Converged after 25 iterations.

Dipole moment: (-11.147740, -4.489578, -0.297788) |e|*Ang

Energy contributions relative to reference atoms: (reference = -16540.070923)

Kinetic:       +184.367480
Potential:     -181.233043
External:        +0.000000
XC:            -363.670228
Entropy (-ST):   -0.145773
Local:           +0.839888
--------------------------
Free energy:   -359.841676
Extrapolated:  -359.768789

Dipole-layer corrected work functions: 3.408781, 3.981231 eV

Showing only first 2 kpts
 Kpt  Band  Eigenvalues  Occupancy
  0    37     -3.94184    1.98575
  0    38     -3.88828    1.95895
  0    39     -3.57565    0.16833
  0    40     -3.46417    0.01958

  1    37     -3.75811    1.55876
  1    38     -3.68015    0.85248
  1    39     -3.64741    0.55704
  1    40     -3.55780    0.12083


Fermi level: -3.69501

No gap

Forces in eV/Ang:
  0 Li    0.01455    0.00538   -0.26975
  1 Li    0.01440    0.00423   -0.26976
  2 Li   -0.02487    0.00252   -0.27314
  3 Li   -0.00457    0.02248   -0.26582
  4 Li    0.00428   -0.00017   -0.28928
  5 Li   -0.00252    0.01277   -0.27582
  6 Li   -0.00440   -0.02343   -0.27479
  7 Li    0.00340    0.00211   -0.28097
  8 Li   -0.00095   -0.01400   -0.28064
  9 Li   -0.00764   -0.02145    0.32423
 10 Li    0.02216   -0.03216    0.27697
 11 Li   -0.02955   -0.01321    0.26555
 12 Li   -0.01140    0.02596    0.28910
 13 Li    0.02978    0.03107    0.26338
 14 Li   -0.02828    0.00096    0.27025
 15 Li   -0.00153   -0.02131    0.22123
 16 Li   -0.01757   -0.01989    0.24703
 17 Li    0.02429   -0.00297    0.27051
 18 Li   -0.00405    0.00946    0.02016
 19 Li    0.00780    0.00298   -0.00632
 20 Li    0.00286    0.01211    0.00032
 21 Li   -0.00877   -0.01188    0.00699
 22 Li    0.00218    0.00710   -0.00693
 23 Li    0.00377   -0.01191    0.00548
 24 Li   -0.00770    0.00302    0.00016
 25 Li    0.00107   -0.00250   -0.00395
 26 Li    0.00282    0.00453   -0.00480
 27 Li    0.00211    0.00856    0.01554
 28 Li    0.01105    0.00053    0.00581
 29 Li   -0.00312    0.00176    0.01401
 30 Li   -0.01514    0.03837   -0.01843
 31 Li   -0.00138   -0.00434    0.00045
 32 Li    0.01222   -0.00054   -0.00257
 33 Li   -0.00282   -0.00761   -0.00281
 34 Li    0.00185    0.00292    0.00204
 35 Li    0.00437   -0.00506    0.00139
 36 O    -0.03248   -0.02546    0.02136
 37 C    -0.00303   -0.01013   -0.00593
 38 C    -0.00820   -0.01552    0.00741
 39 C    -0.01408    0.02101    0.00275
 40 C    -0.02211   -0.00795   -0.01235
 41 H    -0.03524    0.00230    0.01520
 42 H     0.00515   -0.00281   -0.00335
 43 H     0.00127   -0.01881    0.02044
 44 H     0.00718    0.01109   -0.00586
 45 H     0.01662    0.00781   -0.00103
 46 H     0.01010    0.02665    0.01693
 47 H     0.01003    0.00057   -0.00857
 48 H     0.03183    0.00818   -0.01174
 49 H    -0.00999   -0.00437   -0.03301
 50 H     0.00856   -0.01771    0.02433
 51 N     0.02359   -0.00929   -0.03940
 52 N     0.03210    0.00308    0.00596

Timing:                                      incl.     excl.
-------------------------------------------------------------------
Density initialized from wave functions:     2.739     2.737   0.0% |
 Symmetrize density:                         0.002     0.002   0.0% |
Forces:                                     32.248    32.248   0.2% |
Hamiltonian:                               416.351     0.011   0.0% |
 Atomic:                                     0.018     0.017   0.0% |
  XC Correction:                             0.000     0.000   0.0% |
 Calculate atomic Hamiltonians:              0.033     0.033   0.0% |
 Communicate:                                4.776     4.776   0.0% |
 Hartree integrate/restrict:                 1.492     1.492   0.0% |
 Initialize Hamiltonian:                     0.000     0.000   0.0% |
 Poisson:                                   19.998     7.523   0.0% |
  Communicate from 1D:                       1.966     1.966   0.0% |
  Communicate from 2D:                       1.918     1.918   0.0% |
  Communicate to 1D:                         1.260     1.260   0.0% |
  Communicate to 2D:                         2.384     2.384   0.0% |
  FFT 1D:                                    2.514     2.514   0.0% |
  FFT 2D:                                    2.433     2.433   0.0% |
 XC 3D grid:                               389.697    61.387   0.3% |
  VdW-DF integral:                         328.309     2.744   0.0% |
   Convolution:                             30.071    30.071   0.2% |
   FFT:                                     12.791    12.791   0.1% |
   gather:                                 113.300   113.300   0.6% |
   hmm1:                                    10.681    10.681   0.1% |
   hmm2:                                    14.170    14.170   0.1% |
   iFFT:                                    13.164    13.164   0.1% |
   potential:                              127.633     3.546   0.0% |
    collect:                                19.712    19.712   0.1% |
    p1:                                     58.563    58.563   0.3% |
    p2:                                     21.934    21.934   0.1% |
    sum:                                    23.878    23.878   0.1% |
   splines:                                  3.755     3.755   0.0% |
 vbar:                                       0.328     0.328   0.0% |
LCAO initialization:                         1.264     0.184   0.0% |
 LCAO eigensolver:                           0.238     0.000   0.0% |
  Calculate projections:                     0.000     0.000   0.0% |
  DenseAtomicCorrection:                     0.000     0.000   0.0% |
  Distribute overlap matrix:                 0.215     0.215   0.0% |
  Orbital Layouts:                           0.020     0.020   0.0% |
  Potential matrix:                          0.001     0.001   0.0% |
  Sum over cells:                            0.002     0.002   0.0% |
 LCAO to grid:                               0.718     0.718   0.0% |
 Set positions (LCAO WFS):                   0.125     0.078   0.0% |
  Basic WFS set positions:                   0.001     0.001   0.0% |
  Basis functions set positions:             0.000     0.000   0.0% |
  P tci:                                     0.000     0.000   0.0% |
  ST tci:                                    0.013     0.013   0.0% |
  mktci:                                     0.033     0.033   0.0% |
Redistribute:                                0.044     0.044   0.0% |
SCF-cycle:                               17210.672   311.296   1.8% ||
 Davidson:                                4912.944  1449.587   8.2% |--|
  Apply hamiltonian:                       304.411   304.411   1.7% ||
  Subspace diag:                           920.281     0.253   0.0% |
   calc_h_matrix:                          483.763   174.822   1.0% |
    Apply hamiltonian:                     308.941   308.941   1.7% ||
   diagonalize:                             26.934    26.934   0.2% |
   rotate_psi:                             409.331   409.331   2.3% ||
  calc. matrices:                         1566.439   823.822   4.6% |-|
   Apply hamiltonian:                      742.617   742.617   4.2% |-|
  diagonalize:                              15.945    15.945   0.1% |
  rotate_psi:                              656.280   656.280   3.7% ||
 Density:                                   86.170     0.060   0.0% |
  Atomic density matrices:                  11.258    11.258   0.1% |
  Mix:                                      35.996    35.996   0.2% |
  Multipole moments:                         2.829     2.829   0.0% |
  Pseudo density:                           36.026    35.972   0.2% |
   Symmetrize density:                       0.054     0.054   0.0% |
 Hamiltonian:                            11886.340     0.299   0.0% |
  Atomic:                                    0.586     0.580   0.0% |
   XC Correction:                            0.006     0.006   0.0% |
  Calculate atomic Hamiltonians:             0.915     0.915   0.0% |
  Communicate:                             178.402   178.402   1.0% |
  Hartree integrate/restrict:               43.757    43.757   0.2% |
  Poisson:                                 566.511   210.231   1.2% |
   Communicate from 1D:                     56.768    56.768   0.3% |
   Communicate from 2D:                     56.801    56.801   0.3% |
   Communicate to 1D:                       31.378    31.378   0.2% |
   Communicate to 2D:                       68.890    68.890   0.4% |
   FFT 1D:                                  72.173    72.173   0.4% |
   FFT 2D:                                  70.269    70.269   0.4% |
  XC 3D grid:                            11086.236  1765.217   9.9% |---|
   VdW-DF integral:                       9321.019    78.300   0.4% |
    Convolution:                           863.486   863.486   4.9% |-|
    FFT:                                   367.244   367.244   2.1% ||
    gather:                               3222.874  3222.874  18.1% |------|
    hmm1:                                  305.503   305.503   1.7% ||
    hmm2:                                  407.420   407.420   2.3% ||
    iFFT:                                  379.136   379.136   2.1% ||
    potential:                            3697.036   103.096   0.6% |
     collect:                              568.814   568.814   3.2% ||
     p1:                                  1672.797  1672.797   9.4% |---|
     p2:                                   632.664   632.664   3.6% ||
     sum:                                  719.665   719.665   4.1% |-|
    splines:                                 0.019     0.019   0.0% |
  vbar:                                      9.634     9.634   0.1% |
 Orthonormalize:                            13.921     0.010   0.0% |
  calc_s_matrix:                             2.296     2.296   0.0% |
  inverse-cholesky:                          3.115     3.115   0.0% |
  projections:                               0.002     0.002   0.0% |
  rotate_psi_s:                              8.499     8.499   0.0% |
Set symmetry:                                0.002     0.002   0.0% |
Other:                                      96.737    96.737   0.5% |
-------------------------------------------------------------------
Total:                                             17760.058 100.0%

Memory usage: 1.16 GiB
Date: Fri Mar 10 14:59:24 2023
