
  ___ ___ ___ _ _ _  
 |   |   |_  | | | | 
 | | | | | . | | | | 
 |__ |  _|___|_____|  22.8.0
 |___|_|             

User:   vazumah@c21.hercules
Date:   Wed Mar  1 02:17:05 2023
Arch:   x86_64
Pid:    13259
CWD:    /home/vazumah/Python_projects/LiNRR/Li_adsorb_studies/proton_donors/on_pure_surface/Li_BCC100/adsorbates/HBr/bridge/0.0_1.617
Python: 3.10.8
gpaw:   /home/vazumah/.conda/envs/GPAW/lib/python3.10/site-packages/gpaw
_gpaw:  /home/vazumah/.conda/envs/GPAW/lib/python3.10/site-packages/
        _gpaw.cpython-310-x86_64-linux-gnu.so
ase:    /home/vazumah/.conda/envs/GPAW/lib/python3.10/site-packages/ase (version 3.22.1)
numpy:  /home/vazumah/.conda/envs/GPAW/lib/python3.10/site-packages/numpy (version 1.24.1)
scipy:  /home/vazumah/.conda/envs/GPAW/lib/python3.10/site-packages/scipy (version 1.10.0)
libxc:  5.2.3
units:  Angstrom and eV
cores: 24
OpenMP: True
OMP_NUM_THREADS: 1

Input parameters:
  h: 0.16
  kpts: {size: [4, 4, 1]}
  occupations: {name: fermi-dirac,
                width: 0.05}
  poissonsolver: {dipolelayer: xy}
  xc: BEEF-vdW

System changes: positions, numbers, cell, pbc, initial_charges, initial_magmoms 

Initialize ...

species:
  Li:
    name: Lithium
    id: 830b4218f175192f93f959cfc0aad614
    Z: 3.0
    valence: 1
    core: 2
    charge: 0.0
    file: /home/vazumah/.conda/envs/GPAW/share/gpaw/Li.PBE.gz
    compensation charges: {type: gauss,
                           rc: 0.33,
                           lmax: 2}
    cutoffs: {filter: 1.91,
              core: 2.55}
    valence states:
      #              energy  rcut
      - 2s(1.00)    -2.874   1.058
      - 2p(0.00)    -1.090   1.058
      -  s          24.337   1.058
  
    # Using partial waves for Li as LCAO basis

  Br:
    name: Bromine
    id: 39dc90fcf3bf77f2d83386b416c2c495
    Z: 35.0
    valence: 7
    core: 28
    charge: 0.0
    file: /home/vazumah/.conda/envs/GPAW/share/gpaw/Br.PBE.gz
    compensation charges: {type: gauss,
                           rc: 0.35,
                           lmax: 2}
    cutoffs: {filter: 1.98,
              core: 2.38}
    valence states:
      #              energy  rcut
      - 4s(2.00)   -20.121   1.111
      - 4p(5.00)    -7.861   1.111
      -  s           7.091   1.111
      -  p          19.351   1.111
      -  d           0.000   1.111
  
    # Using partial waves for Br as LCAO basis

  H:
    name: Hydrogen
    id: d65de229564ff8ea4db303e23b6d1ecf
    Z: 1.0
    valence: 1
    core: 0
    charge: 0.0
    file: /home/vazumah/.conda/envs/GPAW/share/gpaw/H.PBE.gz
    compensation charges: {type: gauss,
                           rc: 0.15,
                           lmax: 2}
    cutoffs: {filter: 0.85,
              core: 0.53}
    valence states:
      #              energy  rcut
      - 1s(1.00)    -6.494   0.476
      -  s          20.717   0.476
      -  p           0.000   0.476
  
    # Using partial waves for H as LCAO basis

Reference energy: -78215.099420  # eV

Spin-paired calculation

Convergence criteria:
 Maximum [total energy] change in last 3 cyles: 0.0005 eV / electron
 Maximum integral of absolute [dens]ity change: 0.0001 electrons / valence electron
 Maximum integral of absolute [eigenst]ate change: 4e-08 eV^2 / valence electron
 Maximum number of scf [iter]ations: 333
 (Square brackets indicate name in SCF output, whereas a 'c' in
 the SCF output indicates the quantity has converged.)

Symmetries present (total): 1

  ( 1  0  0)
  ( 0  1  0)
  ( 0  0  1)

16 k-points: 4 x 4 x 1 Monkhorst-Pack grid
8 k-points in the irreducible part of the Brillouin zone
       k-points in crystal coordinates                weights
   0:     0.12500000   -0.37500000    0.00000000          2/16
   1:     0.12500000   -0.12500000    0.00000000          2/16
   2:     0.12500000    0.12500000    0.00000000          2/16
   3:     0.12500000    0.37500000    0.00000000          2/16
   4:     0.37500000   -0.37500000    0.00000000          2/16
   5:     0.37500000   -0.12500000    0.00000000          2/16
   6:     0.37500000    0.12500000    0.00000000          2/16
   7:     0.37500000    0.37500000    0.00000000          2/16

Wave functions: Uniform real-space grid
  Kinetic energy operator: 6*3+1=19 point O(h^6) finite-difference Laplacian
  ScaLapack parameters: grid=1x1, blocksize=None
  Wavefunction extrapolation:
    Improved wavefunction reuse through dual PAW basis 

Occupation numbers: Fermi-Dirac:
  width: 0.0500  # eV
 

Eigensolver
   Davidson(niter=2) 

Densities:
  Coarse grid: 60*60*156 grid
  Fine grid: 120*120*312 grid
  Total Charge: 0.000000 

Density mixing:
  Method: separate
  Backend: pulay
  Linear mixing parameter: 0.05
  old densities: 5
  Damping of long wavelength oscillations: 50 

Hamiltonian:
  XC and Coulomb potentials evaluated on a 120*120*312 grid
  Using the BEEF-vdW Exchange-Correlation functional
  Interpolation: tri-quintic (5. degree polynomial)
  Poisson solver: FastPoissonSolver using
    Stencil: 6*3+1=19 point O(h^6) finite-difference Laplacian
    FFT axes: [0, 1]
    FST axes: [2]

Dipole correction along z-axis 

XC parameters: BEEF-vdW with 2 nearest neighbor stencil

Memory estimate:
  Process memory now: 215.97 MiB
  Calculator: 337.99 MiB
    Density: 117.36 MiB
      Arrays: 36.75 MiB
      Localized functions: 66.61 MiB
      Mixer: 14.01 MiB
    Hamiltonian: 29.30 MiB
      Arrays: 24.03 MiB
      XC: 0.00 MiB
      Poisson: 0.00 MiB
      vbar: 5.26 MiB
    Wavefunctions: 191.33 MiB
      Arrays psit_nG: 86.85 MiB
      Eigensolver: 101.00 MiB
      Projections: 0.03 MiB
      Projectors: 3.45 MiB

Total number of cores used: 24
Parallelization over k-points: 8
Domain decomposition: 1 x 1 x 3

Number of atoms: 38
Number of atomic orbitals: 149
Number of bands in calculation: 31
Number of valence electrons: 44
Bands to converge: occupied

... initialized

Initializing position-dependent things.

Density initialized from atomic densities
Creating initial wave functions:
  31 bands from LCAO basis set

       .-----------------------.  
      /|                       |  
     / |                       |  
    /  |                       |  
   /   |                       |  
  /    |                       |  
 *     |                       |  
 |     |                       |  
 |     |                       |  
 |     |                       |  
 |     |                       |  
 |     |                       |  
 |     |                       |  
 |Br   |                H      |  
 |   Li|     Li      Li        |  
 |     |  Li      Li      Li   |  
 | Li  |   Li      Li          |  
 |     |Li      Li      Li     |  
 Li    | Li      Li            |  
 |   LLi     LLi     LLi       |  
 |     |  Li      Li      Li   |  
 | Li  |   Li      Li          |  
 |     |Li      Li      Li     |  
 Li    | Li      Li            |  
 |    Li      Li      Li       |  
 |     |                       |  
 |     |                       |  
 |     |                       |  
 |     |                       |  
 |     |                       |  
 |     |                       |  
 |     .-----------------------.  
 |    /                       /   
 |   /                       /    
 |  /                       /     
 | /                       /      
 |/                       /       
 *-----------------------*        

Positions:
   0 Li     1.617037    1.617037   10.000000    ( 0.0000,  0.0000,  0.0000)
   1 Li     4.851111    1.617037   10.000000    ( 0.0000,  0.0000,  0.0000)
   2 Li     8.085185    1.617037   10.000000    ( 0.0000,  0.0000,  0.0000)
   3 Li     1.617037    4.851111   10.000000    ( 0.0000,  0.0000,  0.0000)
   4 Li     4.851111    4.851111   10.000000    ( 0.0000,  0.0000,  0.0000)
   5 Li     8.085185    4.851111   10.000000    ( 0.0000,  0.0000,  0.0000)
   6 Li     1.617037    8.085185   10.000000    ( 0.0000,  0.0000,  0.0000)
   7 Li     4.851111    8.085185   10.000000    ( 0.0000,  0.0000,  0.0000)
   8 Li     8.085185    8.085185   10.000000    ( 0.0000,  0.0000,  0.0000)
   9 Li     0.000000    0.000000   11.617037    ( 0.0000,  0.0000,  0.0000)
  10 Li     3.234074    0.000000   11.617037    ( 0.0000,  0.0000,  0.0000)
  11 Li     6.468148    0.000000   11.617037    ( 0.0000,  0.0000,  0.0000)
  12 Li     0.000000    3.234074   11.617037    ( 0.0000,  0.0000,  0.0000)
  13 Li     3.234074    3.234074   11.617037    ( 0.0000,  0.0000,  0.0000)
  14 Li     6.468148    3.234074   11.617037    ( 0.0000,  0.0000,  0.0000)
  15 Li     0.000000    6.468148   11.617037    ( 0.0000,  0.0000,  0.0000)
  16 Li     3.234074    6.468148   11.617037    ( 0.0000,  0.0000,  0.0000)
  17 Li     6.468148    6.468148   11.617037    ( 0.0000,  0.0000,  0.0000)
  18 Li     1.617038    1.617038   13.469728    ( 0.0000,  0.0000,  0.0000)
  19 Li     4.851111    1.617038   13.469729    ( 0.0000,  0.0000,  0.0000)
  20 Li     8.085184    1.617038   13.469728    ( 0.0000,  0.0000,  0.0000)
  21 Li     1.617038    4.851111   13.469729    ( 0.0000,  0.0000,  0.0000)
  22 Li     4.851111    4.851111   13.469730    ( 0.0000,  0.0000,  0.0000)
  23 Li     8.085184    4.851111   13.469729    ( 0.0000,  0.0000,  0.0000)
  24 Li     1.617038    8.085184   13.469728    ( 0.0000,  0.0000,  0.0000)
  25 Li     4.851111    8.085184   13.469729    ( 0.0000,  0.0000,  0.0000)
  26 Li     8.085184    8.085184   13.469728    ( 0.0000,  0.0000,  0.0000)
  27 Li    -0.000000   -0.000000   15.445939    ( 0.0000,  0.0000,  0.0000)
  28 Li     3.234074    0.000000   15.445939    ( 0.0000,  0.0000,  0.0000)
  29 Li     6.468148    0.000000   15.445939    ( 0.0000,  0.0000,  0.0000)
  30 Li     0.000000    3.234074   15.445939    ( 0.0000,  0.0000,  0.0000)
  31 Li     3.234076    3.234076   15.445938    ( 0.0000,  0.0000,  0.0000)
  32 Li     6.468146    3.234076   15.445938    ( 0.0000,  0.0000,  0.0000)
  33 Li     0.000000    6.468148   15.445939    ( 0.0000,  0.0000,  0.0000)
  34 Li     3.234076    6.468146   15.445938    ( 0.0000,  0.0000,  0.0000)
  35 Li     6.468146    6.468146   15.445938    ( 0.0000,  0.0000,  0.0000)
  36 Br     0.000000    1.617037   18.445939    ( 0.0000,  0.0000,  0.0000)
  37 H     -1.000000    1.617037   18.445939    ( 0.0000,  0.0000,  0.0000)

Unit cell:
           periodic     x           y           z      points  spacing
  1. axis:    yes    9.702222    0.000000    0.000000    60     0.1617
  2. axis:    yes    0.000000    9.702222    0.000000    60     0.1617
  3. axis:    no     0.000000    0.000000   24.851111   156     0.1593

  Lengths:   9.702222   9.702222  24.851111
  Angles:   90.000000  90.000000  90.000000

Effective grid spacing dv^(1/3) = 0.1609

     iter     time        total  log10-change:
                         energy  eigst   dens
iter:   1 02:20:04  -343.341841
iter:   2 02:22:33  -285.691111  +2.06  -0.19
iter:   3 02:24:56  -266.136837  +2.10  -0.37
iter:   4 02:27:26  -271.282326  +2.75  -0.43
Writing to output.gpw (mode='')

iter:   5 02:29:50  -267.735411  +1.86  -0.36
iter:   6 02:32:08  -275.679005  +1.86  -0.66
iter:   7 02:34:34  -302.424066  +2.40  -0.77
iter:   8 02:36:51  -288.104388  +1.53  -0.43
iter:   9 02:39:08  -290.166069  +1.10  -0.94
Writing to output.gpw (mode='')

iter:  10 02:41:37  -290.691142  +0.81  -0.94
iter:  11 02:43:52  -291.066689  +0.48  -0.97
iter:  12 02:46:11  -292.241492  +0.61  -0.97
iter:  13 02:48:38  -291.431159  -0.15  -0.96
iter:  14 02:51:01  -290.310756  +0.61  -1.01
Writing to output.gpw (mode='')

iter:  15 02:53:26  -289.612422  +0.37  -0.91
iter:  16 02:55:45  -289.672373  +0.34  -1.19
iter:  17 02:58:00  -289.761942  +0.17  -1.21
iter:  18 03:00:19  -289.507694  -0.09  -1.14
iter:  19 03:02:46  -289.498638  -0.30  -1.42
Writing to output.gpw (mode='')

iter:  20 03:05:14  -289.474970  -0.37  -1.47
iter:  21 03:07:31  -289.491108  -0.85  -1.57
iter:  22 03:09:48  -289.498369  -1.10  -1.60
iter:  23 03:12:06  -289.502674c -1.20  -1.65
iter:  24 03:14:43  -289.534951  -1.08  -1.68
Writing to output.gpw (mode='')

iter:  25 03:17:13  -289.540255  -1.52  -1.96
iter:  26 03:19:45  -289.542156c -1.65  -2.01
iter:  27 03:22:04  -289.550938c -1.32  -2.05
iter:  28 03:24:21  -289.560660c -1.54  -2.23
iter:  29 03:26:42  -289.562723c -1.80  -2.29
Writing to output.gpw (mode='')

iter:  30 03:29:06  -289.563752c -1.98  -2.30
iter:  31 03:31:28  -289.564129c -2.00  -2.31
iter:  32 03:33:46  -289.565224c -2.21  -2.55
iter:  33 03:36:04  -289.565808c -2.13  -2.68
iter:  34 03:38:17  -289.566337c -2.24  -2.78
Writing to output.gpw (mode='')

iter:  35 03:40:47  -289.566848c -2.26  -2.81
iter:  36 03:43:04  -289.567171c -2.50  -2.77
iter:  37 03:45:25  -289.567466c -2.49  -2.78
iter:  38 03:47:36  -289.567749c -2.88  -2.85
iter:  39 03:49:53  -289.567925c -2.81  -3.02
Writing to output.gpw (mode='')

iter:  40 03:52:25  -289.568104c -2.77  -3.11
iter:  41 03:54:47  -289.568216c -2.89  -3.23
iter:  42 03:57:02  -289.568307c -3.08  -3.34
iter:  43 03:59:15  -289.568413c -3.00  -3.37
iter:  44 04:01:30  -289.568475c -3.22  -3.54
Writing to output.gpw (mode='')

iter:  45 04:03:57  -289.568526c -3.42  -3.64
iter:  46 04:06:15  -289.568570c -3.47  -3.75
iter:  47 04:08:24  -289.568602c -3.48  -3.83
iter:  48 04:10:40  -289.568626c -3.66  -3.89
iter:  49 04:12:57  -289.568645c -3.74  -3.89
Writing to output.gpw (mode='')

iter:  50 04:15:17  -289.568664c -3.86  -3.85
iter:  51 04:17:35  -289.568678c -4.01  -3.95
iter:  52 04:20:00  -289.568689c -3.99  -4.00
iter:  53 04:22:20  -289.568697c -4.10  -4.02c
iter:  54 04:24:45  -289.568706c -4.02  -4.01c
Writing to output.gpw (mode='')

iter:  55 04:27:16  -289.568710c -4.26  -3.93
iter:  56 04:29:50  -289.568714c -4.16  -3.93
iter:  57 04:32:14  -289.568718c -4.46  -3.90
iter:  58 04:34:40  -289.568721c -4.53  -3.93
iter:  59 04:37:02  -289.568723c -4.46  -3.91
Writing to output.gpw (mode='')

iter:  60 04:39:21  -289.568725c -4.35  -3.91
iter:  61 04:41:52  -289.568726c -4.53  -3.89
iter:  62 04:44:09  -289.568727c -4.58  -3.89
iter:  63 04:46:31  -289.568729c -4.69  -3.86
iter:  64 04:48:44  -289.568728c -4.82  -3.86
Writing to output.gpw (mode='')

iter:  65 04:51:04  -289.568732c -4.81  -3.84
iter:  66 04:53:14  -289.568733c -4.98  -3.93
iter:  67 04:55:36  -289.568734c -4.94  -3.96
iter:  68 04:58:03  -289.568734c -5.01  -3.94
iter:  69 05:00:19  -289.568729c -4.90  -4.02c
Writing to output.gpw (mode='')

iter:  70 05:02:37  -289.568729c -5.25  -4.15c
iter:  71 05:04:56  -289.568731c -5.00  -4.18c
iter:  72 05:07:17  -289.568729c -5.27  -4.31c
iter:  73 05:09:40  -289.568728c -5.36  -4.38c
iter:  74 05:12:02  -289.568729c -5.35  -4.41c
Writing to output.gpw (mode='')

iter:  75 05:14:28  -289.568729c -5.42  -4.48c
iter:  76 05:16:44  -289.568728c -5.61  -4.51c
iter:  77 05:19:07  -289.568729c -5.67  -4.68c
iter:  78 05:21:31  -289.568729c -5.57  -4.75c
iter:  79 05:23:52  -289.568728c -5.78  -4.80c
Writing to output.gpw (mode='')

iter:  80 05:26:14  -289.568729c -5.73  -4.88c
iter:  81 05:28:28  -289.568729c -5.86  -5.07c
iter:  82 05:30:49  -289.568729c -5.90  -5.21c
iter:  83 05:33:05  -289.568728c -5.94  -5.23c
iter:  84 05:35:29  -289.568728c -6.04  -5.22c
Writing to output.gpw (mode='')

iter:  85 05:37:45  -289.568729c -6.09  -5.25c
iter:  86 05:39:56  -289.568728c -6.16  -5.40c
iter:  87 05:42:10  -289.568728c -6.20  -5.45c
iter:  88 05:44:31  -289.568728c -6.24  -5.44c
iter:  89 05:46:52  -289.568728c -6.29  -5.40c
Writing to output.gpw (mode='')

iter:  90 05:49:18  -289.568728c -6.37  -5.37c
iter:  91 05:51:45  -289.568728c -6.40  -5.34c
iter:  92 05:53:57  -289.568728c -6.43  -5.30c
iter:  93 05:56:14  -289.568728c -6.47  -5.30c
iter:  94 05:58:25  -289.568728c -6.55  -5.25c
Writing to output.gpw (mode='')

iter:  95 06:00:51  -289.568728c -6.45  -5.27c
iter:  96 06:03:02  -289.568728c -6.45  -5.31c
iter:  97 06:05:16  -289.568728c -6.70  -5.28c
iter:  98 06:07:30  -289.568728c -6.59  -5.28c
iter:  99 06:09:42  -289.568728c -6.78  -5.35c
Writing to output.gpw (mode='')

iter: 100 06:12:16  -289.568728c -6.84  -5.34c
iter: 101 06:14:31  -289.568728c -6.58  -5.29c
iter: 102 06:16:52  -289.568728c -6.85  -5.43c
iter: 103 06:19:03  -289.568728c -6.91  -5.39c
iter: 104 06:21:25  -289.568728c -6.98  -5.39c
Writing to output.gpw (mode='')

iter: 105 06:23:55  -289.568728c -6.96  -5.35c
iter: 106 06:26:09  -289.568728c -7.06  -5.42c
iter: 107 06:28:24  -289.568728c -7.02  -5.36c
iter: 108 06:30:40  -289.568728c -6.91  -5.43c
iter: 109 06:32:44  -289.568728c -7.12  -5.32c
Writing to output.gpw (mode='')

iter: 110 06:35:04  -289.568728c -7.07  -5.42c
iter: 111 06:37:20  -289.568728c -7.08  -5.53c
iter: 112 06:39:39  -289.568728c -7.15  -5.58c
iter: 113 06:41:56  -289.568728c -7.21  -5.71c
iter: 114 06:44:12  -289.568728c -7.25  -5.75c
Writing to output.gpw (mode='')

iter: 115 06:46:30  -289.568728c -7.06  -5.79c
iter: 116 06:48:45  -289.568728c -7.15  -5.93c
iter: 117 06:51:05  -289.568728c -7.33  -6.04c
iter: 118 06:53:28  -289.568728c -7.37  -6.30c
iter: 119 06:55:42  -289.568728c -7.45c -6.41c

Converged after 119 iterations.

Dipole moment: (-4.921482, -3.523048, 0.109761) |e|*Ang

Energy contributions relative to reference atoms: (reference = -78215.099420)

Kinetic:       +129.890011
Potential:     -108.081361
External:        +0.000000
XC:            -311.074204
Entropy (-ST):   -0.151587
Local:           -0.227380
--------------------------
Free energy:   -289.644521
Extrapolated:  -289.568728

Dipole-layer corrected work functions: 3.383388, 3.172389 eV

Showing only first 2 kpts
 Kpt  Band  Eigenvalues  Occupancy
  0    20     -3.53095    1.98740
  0    21     -3.44511    1.93184
  0    22     -3.11510    0.07424
  0    23     -3.02463    0.01255

  1    20     -3.30113    1.22828
  1    21     -3.27244    0.94557
  1    22     -3.23627    0.60627
  1    23     -3.22775    0.53682


Fermi level: -3.27789

No gap
Writing to output.gpw (mode='')


Forces in eV/Ang:
  0 Li    0.00405    0.00000   -0.27074
  1 Li    0.00157    0.00000   -0.27216
  2 Li   -0.00543    0.00000   -0.27110
  3 Li    0.00038    0.00382   -0.27131
  4 Li   -0.00116   -0.00131   -0.27506
  5 Li    0.00063    0.00115   -0.27113
  6 Li    0.00037   -0.00382   -0.27131
  7 Li   -0.00116    0.00131   -0.27506
  8 Li    0.00063   -0.00115   -0.27113
  9 Li   -0.00026    0.00286    0.26998
 10 Li    0.00648   -0.00277    0.25596
 11 Li   -0.00647   -0.00073    0.25604
 12 Li   -0.00026   -0.00286    0.26998
 13 Li    0.00647    0.00277    0.25596
 14 Li   -0.00647    0.00073    0.25604
 15 Li    0.00039   -0.00000    0.25190
 16 Li   -0.00864   -0.00000    0.25993
 17 Li    0.00841   -0.00000    0.26454
 18 Li    0.00964   -0.00000    0.01304
 19 Li   -0.00215   -0.00000    0.04395
 20 Li   -0.00778   -0.00000    0.02896
 21 Li   -0.00406   -0.00715    0.04441
 22 Li   -0.00048    0.00617    0.03042
 23 Li    0.00474   -0.00722    0.04397
 24 Li   -0.00406    0.00715    0.04441
 25 Li   -0.00048   -0.00617    0.03042
 26 Li    0.00474    0.00723    0.04397
 27 Li   -0.00033   -0.01224   -0.01082
 28 Li    0.02549   -0.01067   -0.04470
 29 Li   -0.01891   -0.00384   -0.04605
 30 Li   -0.00033    0.01224   -0.01082
 31 Li    0.02548    0.01067   -0.04469
 32 Li   -0.01891    0.00384   -0.04605
 33 Li    0.00029   -0.00000   -0.02428
 34 Li   -0.00536    0.00000   -0.02144
 35 Li    0.00506    0.00000   -0.01885
 36 Br   35.53131   -0.00000    0.03452
 37 H   -35.53579   -0.00000    0.00766

System changes: positions 

Initializing position-dependent things.

Density initialized from wave functions
       .-----------------------.  
      /|                       |  
     / |                       |  
    /  |                       |  
   /   |                       |  
  /    |                       |  
 *     |                       |  
 |     |                       |  
 |     |                       |  
 |     |                       |  
 |     |                       |  
 |     |                       |  
 |     |       Li      Li      Li 
 |Br   |               H       |  
 |   Li|     Li      Li        |  
 |     |  Li      Li      Li   |  
 |     |   Li      Li      Li  |  
 |     |Li      Li      Li     |  
 |     |                       |  
 |   LLi     LLi     LLi       |  
 |     |  Li      Li      Li   |  
 | Li  |   Li      Li          |  
 |     |Li      Li      Li     |  
 Li    | Li      Li            |  
 |    Li      Li      Li       |  
 |     |                       |  
 |     |                       |  
 |     |                       |  
 |     |                       |  
 |     |                       |  
 |     |                       |  
 |     .-----------------------.  
 |    /                       /   
 |   /                       /    
 |  /                       /     
 | /                       /      
 |/                       /       
 *-----------------------*        

Positions:
   0 Li     1.617037    1.617037   10.000000    ( 0.0000,  0.0000,  0.0000)
   1 Li     4.851111    1.617037   10.000000    ( 0.0000,  0.0000,  0.0000)
   2 Li     8.085185    1.617037   10.000000    ( 0.0000,  0.0000,  0.0000)
   3 Li     1.617037    4.851111   10.000000    ( 0.0000,  0.0000,  0.0000)
   4 Li     4.851111    4.851111   10.000000    ( 0.0000,  0.0000,  0.0000)
   5 Li     8.085185    4.851111   10.000000    ( 0.0000,  0.0000,  0.0000)
   6 Li     1.617037    8.085185   10.000000    ( 0.0000,  0.0000,  0.0000)
   7 Li     4.851111    8.085185   10.000000    ( 0.0000,  0.0000,  0.0000)
   8 Li     8.085185    8.085185   10.000000    ( 0.0000,  0.0000,  0.0000)
   9 Li     0.000000    0.000000   11.617037    ( 0.0000,  0.0000,  0.0000)
  10 Li     3.234074    0.000000   11.617037    ( 0.0000,  0.0000,  0.0000)
  11 Li     6.468148    0.000000   11.617037    ( 0.0000,  0.0000,  0.0000)
  12 Li     0.000000    3.234074   11.617037    ( 0.0000,  0.0000,  0.0000)
  13 Li     3.234074    3.234074   11.617037    ( 0.0000,  0.0000,  0.0000)
  14 Li     6.468148    3.234074   11.617037    ( 0.0000,  0.0000,  0.0000)
  15 Li     0.000000    6.468148   11.617037    ( 0.0000,  0.0000,  0.0000)
  16 Li     3.234074    6.468148   11.617037    ( 0.0000,  0.0000,  0.0000)
  17 Li     6.468148    6.468148   11.617037    ( 0.0000,  0.0000,  0.0000)
  18 Li     1.617049    1.617038   13.469743    ( 0.0000,  0.0000,  0.0000)
  19 Li     4.851109    1.617038   13.469779    ( 0.0000,  0.0000,  0.0000)
  20 Li     8.085175    1.617038   13.469760    ( 0.0000,  0.0000,  0.0000)
  21 Li     1.617034    4.851103   13.469779    ( 0.0000,  0.0000,  0.0000)
  22 Li     4.851110    4.851118   13.469764    ( 0.0000,  0.0000,  0.0000)
  23 Li     8.085189    4.851103   13.469779    ( 0.0000,  0.0000,  0.0000)
  24 Li     1.617034    8.085192   13.469778    ( 0.0000,  0.0000,  0.0000)
  25 Li     4.851110    8.085177   13.469764    ( 0.0000,  0.0000,  0.0000)
  26 Li     8.085189    8.085192   13.469777    ( 0.0000,  0.0000,  0.0000)
  27 Li    -0.000000   -0.000014   15.445927    ( 0.0000,  0.0000,  0.0000)
  28 Li     3.234102   -0.000012   15.445889    ( 0.0000,  0.0000,  0.0000)
  29 Li     6.468127   -0.000004   15.445887    ( 0.0000,  0.0000,  0.0000)
  30 Li    -0.000000    3.234088   15.445927    ( 0.0000,  0.0000,  0.0000)
  31 Li     3.234105    3.234088   15.445888    ( 0.0000,  0.0000,  0.0000)
  32 Li     6.468124    3.234081   15.445886    ( 0.0000,  0.0000,  0.0000)
  33 Li     0.000000    6.468148   15.445911    ( 0.0000,  0.0000,  0.0000)
  34 Li     3.234070    6.468146   15.445914    ( 0.0000,  0.0000,  0.0000)
  35 Li     6.468151    6.468146   15.445917    ( 0.0000,  0.0000,  0.0000)
  36 Br     0.039995    1.617037   18.445978    ( 0.0000,  0.0000,  0.0000)
  37 H     -1.040000    1.617037   18.445948    ( 0.0000,  0.0000,  0.0000)

Unit cell:
           periodic     x           y           z      points  spacing
  1. axis:    yes    9.702222    0.000000    0.000000    60     0.1617
  2. axis:    yes    0.000000    9.702222    0.000000    60     0.1617
  3. axis:    no     0.000000    0.000000   24.851111   156     0.1593

  Lengths:   9.702222   9.702222  24.851111
  Angles:   90.000000  90.000000  90.000000

Effective grid spacing dv^(1/3) = 0.1609

     iter     time        total  log10-change:
                         energy  eigst   dens
iter:   1 06:58:33  -292.365840  -0.65
iter:   2 07:00:52  -292.027429  -0.44  -1.12
iter:   3 07:03:07  -291.939014  -1.26  -1.36
iter:   4 07:05:30  -291.913448  -0.55  -1.68
Writing to output.gpw (mode='')

iter:   5 07:07:48  -291.902285  -0.89  -1.62
iter:   6 07:10:05  -291.873122  -1.13  -1.69
iter:   7 07:12:23  -291.874180  -1.80  -2.26
iter:   8 07:14:38  -291.874170c -2.17  -2.34
iter:   9 07:17:00  -291.875365c -1.84  -2.55
Writing to output.gpw (mode='')

iter:  10 07:19:21  -291.875468c -2.49  -2.39
iter:  11 07:21:40  -291.875267c -2.22  -2.44
iter:  12 07:24:02  -291.875424c -2.85  -2.73
iter:  13 07:26:21  -291.875442c -2.98  -2.77
iter:  14 07:28:39  -291.875531c -3.18  -2.85
Writing to output.gpw (mode='')

iter:  15 07:31:01  -291.875694c -3.01  -2.89
iter:  16 07:33:17  -291.875615c -3.54  -2.94
iter:  17 07:35:33  -291.875620c -3.26  -3.10
iter:  18 07:37:50  -291.875639c -3.94  -3.21
iter:  19 07:40:03  -291.875652c -3.98  -3.33
Writing to output.gpw (mode='')

iter:  20 07:42:23  -291.875662c -4.05  -3.34
iter:  21 07:44:36  -291.875669c -4.27  -3.33
iter:  22 07:46:46  -291.875664c -4.53  -3.35
iter:  23 07:49:04  -291.875668c -4.49  -3.35
iter:  24 07:51:27  -291.875676c -4.42  -3.41
Writing to output.gpw (mode='')

iter:  25 07:53:51  -291.875680c -4.61  -3.62
iter:  26 07:56:04  -291.875683c -4.89  -3.70
iter:  27 07:58:20  -291.875680c -5.05  -3.83
iter:  28 08:00:41  -291.875675c -4.82  -3.94
iter:  29 08:03:05  -291.875681c -5.25  -4.00c
Writing to output.gpw (mode='')

iter:  30 08:05:35  -291.875678c -5.39  -4.20c
iter:  31 08:07:50  -291.875678c -5.37  -4.36c
iter:  32 08:10:09  -291.875678c -5.53  -4.42c
iter:  33 08:12:21  -291.875679c -5.31  -4.48c
iter:  34 08:14:39  -291.875679c -5.89  -4.70c
Writing to output.gpw (mode='')

iter:  35 08:17:08  -291.875679c -5.77  -4.73c
iter:  36 08:19:33  -291.875679c -5.75  -4.79c
iter:  37 08:21:49  -291.875677c -5.84  -4.80c
iter:  38 08:24:16  -291.875678c -6.30  -4.83c
iter:  39 08:26:31  -291.875678c -6.09  -4.90c
Writing to output.gpw (mode='')

iter:  40 08:29:06  -291.875678c -5.94  -4.98c
iter:  41 08:31:21  -291.875678c -6.29  -4.94c
iter:  42 08:33:32  -291.875677c -6.44  -5.34c
iter:  43 08:35:47  -291.875677c -6.41  -5.40c
iter:  44 08:38:06  -291.875677c -6.46  -5.43c
Writing to output.gpw (mode='')

iter:  45 08:40:36  -291.875677c -6.60  -5.47c
iter:  46 08:43:03  -291.875677c -6.44  -5.54c
iter:  47 08:45:29  -291.875677c -6.56  -5.62c
iter:  48 08:47:47  -291.875677c -6.56  -5.63c
iter:  49 08:50:01  -291.875677c -6.73  -5.68c
Writing to output.gpw (mode='')

iter:  50 08:52:27  -291.875677c -6.90  -5.82c
iter:  51 08:54:39  -291.875677c -6.93  -5.88c
iter:  52 08:56:55  -291.875677c -6.99  -5.78c
iter:  53 08:59:18  -291.875677c -7.01  -5.76c
iter:  54 09:01:45  -291.875677c -7.04  -5.69c
Writing to output.gpw (mode='')

iter:  55 09:04:18  -291.875677c -7.11  -5.68c
iter:  56 09:06:35  -291.875677c -6.82  -5.62c
iter:  57 09:08:55  -291.875677c -7.11  -5.54c
iter:  58 09:11:10  -291.875677c -7.15  -5.54c
iter:  59 09:13:24  -291.875677c -7.12  -5.53c
Writing to output.gpw (mode='')

iter:  60 09:15:51  -291.875677c -7.26  -5.53c
iter:  61 09:18:16  -291.875677c -7.36  -5.47c
iter:  62 09:20:30  -291.875677c -7.43c -5.43c

Converged after 62 iterations.

Dipole moment: (-7.719699, -3.528139, 0.109579) |e|*Ang

Energy contributions relative to reference atoms: (reference = -78215.099420)

Kinetic:       +116.484164
Potential:      -98.280569
External:        +0.000000
XC:            -309.752895
Entropy (-ST):   -0.151566
Local:           -0.250594
--------------------------
Free energy:   -291.951460
Extrapolated:  -291.875677

Dipole-layer corrected work functions: 3.382979, 3.172330 eV

Showing only first 2 kpts
 Kpt  Band  Eigenvalues  Occupancy
  0    20     -3.53080    1.98743
  0    21     -3.44506    1.93209
  0    22     -3.11435    0.07351
  0    23     -3.02450    0.01257

  1    20     -3.30079    1.22729
  1    21     -3.27233    0.94679
  1    22     -3.23606    0.60650
  1    23     -3.22750    0.53666


Fermi level: -3.27765

No gap
Writing to output.gpw (mode='')


Forces in eV/Ang:
  0 Li    0.00412    0.00000   -0.27079
  1 Li    0.00161    0.00000   -0.27207
  2 Li   -0.00552    0.00000   -0.27107
  3 Li    0.00030    0.00393   -0.27129
  4 Li   -0.00113   -0.00131   -0.27501
  5 Li    0.00065    0.00126   -0.27109
  6 Li    0.00030   -0.00393   -0.27129
  7 Li   -0.00113    0.00131   -0.27501
  8 Li    0.00065   -0.00126   -0.27109
  9 Li   -0.00022    0.00282    0.27030
 10 Li    0.00648   -0.00276    0.25618
 11 Li   -0.00656   -0.00071    0.25606
 12 Li   -0.00022   -0.00281    0.27030
 13 Li    0.00648    0.00276    0.25618
 14 Li   -0.00656    0.00071    0.25606
 15 Li    0.00035   -0.00000    0.25174
 16 Li   -0.00855   -0.00000    0.25993
 17 Li    0.00837   -0.00000    0.26452
 18 Li    0.00969   -0.00000    0.01210
 19 Li   -0.00229   -0.00000    0.04421
 20 Li   -0.00779   -0.00000    0.02881
 21 Li   -0.00405   -0.00707    0.04420
 22 Li   -0.00049    0.00625    0.03029
 23 Li    0.00479   -0.00731    0.04403
 24 Li   -0.00405    0.00708    0.04420
 25 Li   -0.00049   -0.00625    0.03029
 26 Li    0.00478    0.00731    0.04403
 27 Li    0.00053   -0.01200   -0.00930
 28 Li    0.02635   -0.01098   -0.04501
 29 Li   -0.01922   -0.00366   -0.04610
 30 Li    0.00053    0.01200   -0.00929
 31 Li    0.02635    0.01098   -0.04500
 32 Li   -0.01921    0.00366   -0.04609
 33 Li    0.00021   -0.00000   -0.02431
 34 Li   -0.00535    0.00000   -0.02136
 35 Li    0.00513    0.00000   -0.01879
 36 Br   22.85449    0.00000    0.02544
 37 H   -22.86643    0.00000    0.00660

System changes: positions 

Initializing position-dependent things.

Density initialized from wave functions
       .-----------------------.  
      /|                       |  
     / |                       |  
    /  |                       |  
   /   |                       |  
  /    |                       |  
 *     |                       |  
 |     |                       |  
 |     |                       |  
 |     |                       |  
 |     |                       |  
 |     |                       |  
 |     Li      Li      Li      |  
 |Br   |               H       |  
 |   Li|     Li      Li        |  
 |     |  Li      Li      Li   |  
 | Li  |   Li      Li          |  
 |     |Li      Li      Li     |  
 |     |                       |  
 |   LLi     LLi     LLi       |  
 |     |  Li      Li      Li   |  
 | Li  |   Li      Li          |  
 |     |Li      Li      Li     |  
 Li    | Li      Li            |  
 |    Li      Li      Li       |  
 |     |                       |  
 |     |                       |  
 |     |                       |  
 |     |                       |  
 |     |                       |  
 |     |                       |  
 |     .-----------------------.  
 |    /                       /   
 |   /                       /    
 |  /                       /     
 | /                       /      
 |/                       /       
 *-----------------------*        

Positions:
   0 Li     1.617037    1.617037   10.000000    ( 0.0000,  0.0000,  0.0000)
   1 Li     4.851111    1.617037   10.000000    ( 0.0000,  0.0000,  0.0000)
   2 Li     8.085185    1.617037   10.000000    ( 0.0000,  0.0000,  0.0000)
   3 Li     1.617037    4.851111   10.000000    ( 0.0000,  0.0000,  0.0000)
   4 Li     4.851111    4.851111   10.000000    ( 0.0000,  0.0000,  0.0000)
   5 Li     8.085185    4.851111   10.000000    ( 0.0000,  0.0000,  0.0000)
   6 Li     1.617037    8.085185   10.000000    ( 0.0000,  0.0000,  0.0000)
   7 Li     4.851111    8.085185   10.000000    ( 0.0000,  0.0000,  0.0000)
   8 Li     8.085185    8.085185   10.000000    ( 0.0000,  0.0000,  0.0000)
   9 Li     0.000000    0.000000   11.617037    ( 0.0000,  0.0000,  0.0000)
  10 Li     3.234074    0.000000   11.617037    ( 0.0000,  0.0000,  0.0000)
  11 Li     6.468148    0.000000   11.617037    ( 0.0000,  0.0000,  0.0000)
  12 Li     0.000000    3.234074   11.617037    ( 0.0000,  0.0000,  0.0000)
  13 Li     3.234074    3.234074   11.617037    ( 0.0000,  0.0000,  0.0000)
  14 Li     6.468148    3.234074   11.617037    ( 0.0000,  0.0000,  0.0000)
  15 Li     0.000000    6.468148   11.617037    ( 0.0000,  0.0000,  0.0000)
  16 Li     3.234074    6.468148   11.617037    ( 0.0000,  0.0000,  0.0000)
  17 Li     6.468148    6.468148   11.617037    ( 0.0000,  0.0000,  0.0000)
  18 Li     1.617137    1.617038   13.469839    ( 0.0000,  0.0000,  0.0000)
  19 Li     4.851086    1.617038   13.470181    ( 0.0000,  0.0000,  0.0000)
  20 Li     8.085105    1.617038   13.470018    ( 0.0000,  0.0000,  0.0000)
  21 Li     1.616997    4.851040   13.470176    ( 0.0000,  0.0000,  0.0000)
  22 Li     4.851106    4.851175   13.470036    ( 0.0000,  0.0000,  0.0000)
  23 Li     8.085233    4.851036   13.470177    ( 0.0000,  0.0000,  0.0000)
  24 Li     1.616997    8.085255   13.470174    ( 0.0000,  0.0000,  0.0000)
  25 Li     4.851106    8.085119   13.470035    ( 0.0000,  0.0000,  0.0000)
  26 Li     8.085233    8.085259   13.470176    ( 0.0000,  0.0000,  0.0000)
  27 Li     0.000016   -0.000119   15.445863    ( 0.0000,  0.0000,  0.0000)
  28 Li     3.234352   -0.000115   15.445478    ( 0.0000,  0.0000,  0.0000)
  29 Li     6.467950   -0.000035   15.445470    ( 0.0000,  0.0000,  0.0000)
  30 Li     0.000016    3.234193   15.445863    ( 0.0000,  0.0000,  0.0000)
  31 Li     3.234354    3.234192   15.445478    ( 0.0000,  0.0000,  0.0000)
  32 Li     6.467947    3.234111   15.445470    ( 0.0000,  0.0000,  0.0000)
  33 Li     0.000001    6.468148   15.445692    ( 0.0000,  0.0000,  0.0000)
  34 Li     3.234022    6.468146   15.445722    ( 0.0000,  0.0000,  0.0000)
  35 Li     6.468198    6.468146   15.445748    ( 0.0000,  0.0000,  0.0000)
  36 Br     0.079789    1.617037   18.446089    ( 0.0000,  0.0000,  0.0000)
  37 H     -1.080000    1.617037   18.445994    ( 0.0000,  0.0000,  0.0000)

Unit cell:
           periodic     x           y           z      points  spacing
  1. axis:    yes    9.702222    0.000000    0.000000    60     0.1617
  2. axis:    yes    0.000000    9.702222    0.000000    60     0.1617
  3. axis:    no     0.000000    0.000000   24.851111   156     0.1593

  Lengths:   9.702222   9.702222  24.851111
  Angles:   90.000000  90.000000  90.000000

Effective grid spacing dv^(1/3) = 0.1609

     iter     time        total  log10-change:
                         energy  eigst   dens
iter:   1 09:23:22  -293.805759  -0.62
iter:   2 09:25:40  -293.464045  -0.13  -1.12
iter:   3 09:27:58  -293.383361  -1.12  -1.38
iter:   4 09:30:14  -293.355932  -0.52  -1.67
Writing to output.gpw (mode='')

iter:   5 09:32:41  -293.350811  -0.86  -1.65
iter:   6 09:35:01  -293.322900  -1.07  -1.69
iter:   7 09:37:22  -293.323123  -1.69  -2.26
iter:   8 09:39:48  -293.323760c -1.65  -2.30
iter:   9 09:42:13  -293.323918c -2.01  -2.39
Writing to output.gpw (mode='')

iter:  10 09:44:34  -293.323948c -2.44  -2.55
iter:  11 09:46:54  -293.324258c -2.19  -2.64
iter:  12 09:49:09  -293.324459c -2.73  -2.81
iter:  13 09:51:24  -293.324563c -2.73  -2.84
iter:  14 09:53:45  -293.324638c -3.08  -2.95
Writing to output.gpw (mode='')

iter:  15 09:56:15  -293.324799c -2.82  -3.21
iter:  16 09:58:31  -293.324806c -3.43  -3.26
iter:  17 10:00:48  -293.324837c -3.58  -3.30
iter:  18 10:03:04  -293.324865c -3.70  -3.29
iter:  19 10:05:09  -293.324933c -3.52  -3.27
Writing to output.gpw (mode='')

iter:  20 10:07:39  -293.324959c -3.77  -3.21
iter:  21 10:10:02  -293.324964c -3.86  -3.19
iter:  22 10:12:21  -293.324904c -4.29  -3.19
iter:  23 10:14:35  -293.324898c -4.36  -3.38
iter:  24 10:16:54  -293.324898c -4.47  -3.42
Writing to output.gpw (mode='')

iter:  25 10:19:20  -293.324884c -4.33  -3.43
iter:  26 10:21:42  -293.324895c -4.94  -3.40
iter:  27 10:24:00  -293.324898c -4.45  -3.50
iter:  28 10:26:16  -293.324892c -5.03  -3.55
iter:  29 10:28:36  -293.324889c -4.89  -3.74
Writing to output.gpw (mode='')

iter:  30 10:31:05  -293.324890c -4.95  -3.83
iter:  31 10:33:21  -293.324889c -5.18  -3.98
iter:  32 10:35:40  -293.324889c -5.57  -4.07c
iter:  33 10:38:03  -293.324890c -5.32  -4.11c
iter:  34 10:40:22  -293.324889c -5.69  -4.23c
Writing to output.gpw (mode='')

iter:  35 10:42:47  -293.324890c -5.71  -4.33c
iter:  36 10:45:02  -293.324890c -5.92  -4.44c
iter:  37 10:47:22  -293.324889c -5.86  -4.45c
iter:  38 10:49:39  -293.324890c -5.88  -4.52c
iter:  39 10:51:58  -293.324890c -6.02  -4.68c
Writing to output.gpw (mode='')

iter:  40 10:54:32  -293.324890c -5.91  -4.81c
iter:  41 10:56:57  -293.324889c -6.10  -4.93c
iter:  42 10:59:25  -293.324889c -6.34  -5.01c
iter:  43 11:01:46  -293.324889c -6.02  -5.02c
iter:  44 11:04:09  -293.324889c -6.25  -5.19c
Writing to output.gpw (mode='')

iter:  45 11:06:27  -293.324889c -6.58  -5.26c
iter:  46 11:08:46  -293.324889c -6.55  -5.29c
iter:  47 11:11:06  -293.324889c -6.55  -5.41c
iter:  48 11:13:29  -293.324889c -6.73  -5.66c
iter:  49 11:15:51  -293.324889c -6.72  -5.74c
Writing to output.gpw (mode='')

iter:  50 11:18:08  -293.324889c -6.89  -5.76c
iter:  51 11:20:18  -293.324889c -6.88  -5.86c
iter:  52 11:22:36  -293.324889c -6.95  -5.93c
iter:  53 11:24:50  -293.324889c -6.95  -5.99c
iter:  54 11:27:08  -293.324889c -6.94  -6.08c
Writing to output.gpw (mode='')

iter:  55 11:29:36  -293.324889c -7.11  -6.09c
iter:  56 11:31:51  -293.324889c -7.18  -6.05c
iter:  57 11:34:04  -293.324889c -7.19  -5.87c
iter:  58 11:36:27  -293.324889c -7.10  -5.85c
iter:  59 11:38:44  -293.324889c -7.18  -5.82c
Writing to output.gpw (mode='')

iter:  60 11:41:03  -293.324889c -7.27  -5.83c
iter:  61 11:43:18  -293.324889c -7.41c -5.87c

Converged after 61 iterations.

Dipole moment: (-10.274828, -3.527224, 0.107500) |e|*Ang

Energy contributions relative to reference atoms: (reference = -78215.099420)

Kinetic:       +105.817821
Potential:      -90.228539
External:        +0.000000
XC:            -308.584839
Entropy (-ST):   -0.151538
Local:           -0.253563
--------------------------
Free energy:   -293.400658
Extrapolated:  -293.324889

Dipole-layer corrected work functions: 3.382453, 3.175800 eV

Showing only first 2 kpts
 Kpt  Band  Eigenvalues  Occupancy
  0    20     -3.53234    1.98744
  0    21     -3.44678    1.93241
  0    22     -3.11509    0.07247
  0    23     -3.02604    0.01259

  1    20     -3.30208    1.22559
  1    21     -3.27393    0.94806
  1    22     -3.23764    0.60742
  1    23     -3.22898    0.53671


Fermi level: -3.27913

No gap
Writing to output.gpw (mode='')


Forces in eV/Ang:
  0 Li    0.00419    0.00000   -0.27085
  1 Li    0.00167    0.00000   -0.27200
  2 Li   -0.00562    0.00000   -0.27111
  3 Li    0.00024    0.00407   -0.27128
  4 Li   -0.00111   -0.00125   -0.27497
  5 Li    0.00067    0.00136   -0.27108
  6 Li    0.00024   -0.00407   -0.27128
  7 Li   -0.00111    0.00125   -0.27497
  8 Li    0.00067   -0.00136   -0.27108
  9 Li   -0.00022    0.00273    0.27089
 10 Li    0.00653   -0.00281    0.25669
 11 Li   -0.00666   -0.00070    0.25640
 12 Li   -0.00022   -0.00273    0.27089
 13 Li    0.00653    0.00281    0.25669
 14 Li   -0.00666    0.00070    0.25640
 15 Li    0.00035   -0.00000    0.25186
 16 Li   -0.00853   -0.00000    0.26010
 17 Li    0.00838   -0.00000    0.26475
 18 Li    0.00959   -0.00000    0.01077
 19 Li   -0.00242   -0.00000    0.04347
 20 Li   -0.00763   -0.00000    0.02812
 21 Li   -0.00399   -0.00688    0.04324
 22 Li   -0.00050    0.00638    0.02952
 23 Li    0.00479   -0.00724    0.04330
 24 Li   -0.00399    0.00688    0.04324
 25 Li   -0.00050   -0.00637    0.02952
 26 Li    0.00479    0.00724    0.04330
 27 Li    0.00139   -0.01151   -0.00698
 28 Li    0.02690   -0.01118   -0.04454
 29 Li   -0.01925   -0.00326   -0.04523
 30 Li    0.00139    0.01151   -0.00697
 31 Li    0.02690    0.01118   -0.04454
 32 Li   -0.01924    0.00326   -0.04523
 33 Li    0.00017   -0.00000   -0.02399
 34 Li   -0.00526    0.00000   -0.02099
 35 Li    0.00507    0.00000   -0.01841
 36 Br   13.99707   -0.00000    0.02852
 37 H   -14.00697   -0.00000    0.01486

System changes: positions 

Initializing position-dependent things.

Density initialized from wave functions
       .-----------------------.  
      /|                       |  
     / |                       |  
    /  |                       |  
   /   |                       |  
  /    |                       |  
 *     |                       |  
 |     |                       |  
 |     |                       |  
 |     |                       |  
 |     |                       |  
 |     |                       |  
 |     Li      Li      Li      |  
 |Br   |               H       |  
 |   Li|     Li      Li        |  
 |     |  Li      Li      Li   |  
 | Li  |   Li      Li          |  
 |     |Li      Li      Li     |  
 |     |                       |  
 |   LLi     LLi     LLi       |  
 |     |  Li      Li      Li   |  
 | Li  |   Li      Li          |  
 |     |Li      Li      Li     |  
 Li    | Li      Li            |  
 |    Li      Li      Li       |  
 |     |                       |  
 |     |                       |  
 |     |                       |  
 |     |                       |  
 |     |                       |  
 |     |                       |  
 |     .-----------------------.  
 |    /                       /   
 |   /                       /    
 |  /                       /     
 | /                       /      
 |/                       /       
 *-----------------------*        

Positions:
   0 Li     1.617037    1.617037   10.000000    ( 0.0000,  0.0000,  0.0000)
   1 Li     4.851111    1.617037   10.000000    ( 0.0000,  0.0000,  0.0000)
   2 Li     8.085185    1.617037   10.000000    ( 0.0000,  0.0000,  0.0000)
   3 Li     1.617037    4.851111   10.000000    ( 0.0000,  0.0000,  0.0000)
   4 Li     4.851111    4.851111   10.000000    ( 0.0000,  0.0000,  0.0000)
   5 Li     8.085185    4.851111   10.000000    ( 0.0000,  0.0000,  0.0000)
   6 Li     1.617037    8.085185   10.000000    ( 0.0000,  0.0000,  0.0000)
   7 Li     4.851111    8.085185   10.000000    ( 0.0000,  0.0000,  0.0000)
   8 Li     8.085185    8.085185   10.000000    ( 0.0000,  0.0000,  0.0000)
   9 Li     0.000000    0.000000   11.617037    ( 0.0000,  0.0000,  0.0000)
  10 Li     3.234074    0.000000   11.617037    ( 0.0000,  0.0000,  0.0000)
  11 Li     6.468148    0.000000   11.617037    ( 0.0000,  0.0000,  0.0000)
  12 Li     0.000000    3.234074   11.617037    ( 0.0000,  0.0000,  0.0000)
  13 Li     3.234074    3.234074   11.617037    ( 0.0000,  0.0000,  0.0000)
  14 Li     6.468148    3.234074   11.617037    ( 0.0000,  0.0000,  0.0000)
  15 Li     0.000000    6.468148   11.617037    ( 0.0000,  0.0000,  0.0000)
  16 Li     3.234074    6.468148   11.617037    ( 0.0000,  0.0000,  0.0000)
  17 Li     6.468148    6.468148   11.617037    ( 0.0000,  0.0000,  0.0000)
  18 Li     1.617310    1.617038   13.470014    ( 0.0000,  0.0000,  0.0000)
  19 Li     4.851040    1.617038   13.470965    ( 0.0000,  0.0000,  0.0000)
  20 Li     8.084968    1.617038   13.470520    ( 0.0000,  0.0000,  0.0000)
  21 Li     1.616926    4.850918   13.470948    ( 0.0000,  0.0000,  0.0000)
  22 Li     4.851097    4.851292   13.470563    ( 0.0000,  0.0000,  0.0000)
  23 Li     8.085320    4.850904   13.470955    ( 0.0000,  0.0000,  0.0000)
  24 Li     1.616926    8.085377   13.470946    ( 0.0000,  0.0000,  0.0000)
  25 Li     4.851097    8.085002   13.470562    ( 0.0000,  0.0000,  0.0000)
  26 Li     8.085320    8.085391   13.470954    ( 0.0000,  0.0000,  0.0000)
  27 Li     0.000057   -0.000321   15.445770    ( 0.0000,  0.0000,  0.0000)
  28 Li     3.234851   -0.000322   15.444673    ( 0.0000,  0.0000,  0.0000)
  29 Li     6.467598   -0.000089   15.444658    ( 0.0000,  0.0000,  0.0000)
  30 Li     0.000057    3.234395   15.445769    ( 0.0000,  0.0000,  0.0000)
  31 Li     3.234854    3.234399   15.444672    ( 0.0000,  0.0000,  0.0000)
  32 Li     6.467595    3.234166   15.444658    ( 0.0000,  0.0000,  0.0000)
  33 Li     0.000003    6.468148   15.445260    ( 0.0000,  0.0000,  0.0000)
  34 Li     3.233928    6.468146   15.445347    ( 0.0000,  0.0000,  0.0000)
  35 Li     6.468290    6.468146   15.445419    ( 0.0000,  0.0000,  0.0000)
  36 Br     0.119522    1.617037   18.446500    ( 0.0000,  0.0000,  0.0000)
  37 H     -1.119999    1.617037   18.446291    ( 0.0000,  0.0000,  0.0000)

Unit cell:
           periodic     x           y           z      points  spacing
  1. axis:    yes    9.702222    0.000000    0.000000    60     0.1617
  2. axis:    yes    0.000000    9.702222    0.000000    60     0.1617
  3. axis:    no     0.000000    0.000000   24.851111   156     0.1593

  Lengths:   9.702222   9.702222  24.851111
  Angles:   90.000000  90.000000  90.000000

Effective grid spacing dv^(1/3) = 0.1609

     iter     time        total  log10-change:
                         energy  eigst   dens
iter:   1 11:46:11  -294.637916  -0.52
iter:   2 11:48:22  -294.316044  -0.14  -1.14
iter:   3 11:50:36  -294.241291  -1.12  -1.39
iter:   4 11:52:50  -294.212007  -0.52  -1.67
Writing to output.gpw (mode='')

iter:   5 11:55:09  -294.208690  -0.89  -1.67
iter:   6 11:57:31  -294.184221  -1.05  -1.71
iter:   7 11:59:47  -294.183094  -1.61  -2.23
iter:   8 12:02:04  -294.184148c -1.54  -2.30
iter:   9 12:04:23  -294.183972c -2.10  -2.36
Writing to output.gpw (mode='')

iter:  10 12:06:45  -294.183867c -2.47  -2.55
iter:  11 12:09:10  -294.184070c -2.29  -2.65
iter:  12 12:11:31  -294.184311c -2.53  -2.83
iter:  13 12:13:48  -294.184364c -2.95  -2.86
iter:  14 12:16:08  -294.184472c -3.06  -3.00
Writing to output.gpw (mode='')

iter:  15 12:18:31  -294.184752c -2.82  -3.14
iter:  16 12:20:51  -294.184774c -3.32  -2.96
iter:  17 12:23:11  -294.184690c -3.38  -3.01
iter:  18 12:25:30  -294.184690c -3.62  -3.20
iter:  19 12:27:49  -294.184710c -4.02  -3.21
Writing to output.gpw (mode='')

iter:  20 12:30:15  -294.184671c -3.99  -3.21
iter:  21 12:32:30  -294.184681c -4.27  -3.29
iter:  22 12:34:46  -294.184687c -4.38  -3.43
iter:  23 12:37:05  -294.184692c -4.29  -3.48
iter:  24 12:39:27  -294.184693c -4.44  -3.50
Writing to output.gpw (mode='')

iter:  25 12:41:44  -294.184698c -4.79  -3.57
iter:  26 12:44:05  -294.184704c -4.75  -3.72
iter:  27 12:46:23  -294.184702c -4.83  -3.91
iter:  28 12:48:44  -294.184705c -4.93  -3.80
iter:  29 12:51:10  -294.184705c -5.26  -3.93
Writing to output.gpw (mode='')

iter:  30 12:53:32  -294.184703c -5.19  -3.95
iter:  31 12:55:47  -294.184703c -5.30  -4.12c
iter:  32 12:57:57  -294.184703c -5.36  -4.32c
iter:  33 13:00:11  -294.184703c -5.50  -4.36c
iter:  34 13:02:36  -294.184701c -5.43  -4.37c
Writing to output.gpw (mode='')

iter:  35 13:04:49  -294.184701c -5.89  -4.49c
iter:  36 13:06:59  -294.184701c -5.78  -4.58c
iter:  37 13:09:14  -294.184702c -5.76  -4.79c
iter:  38 13:11:25  -294.184701c -6.00  -4.85c
iter:  39 13:13:36  -294.184701c -6.29  -5.05c
Writing to output.gpw (mode='')

iter:  40 13:15:50  -294.184701c -6.22  -5.14c
iter:  41 13:18:09  -294.184701c -6.29  -5.22c
iter:  42 13:20:19  -294.184701c -6.31  -5.26c
iter:  43 13:22:34  -294.184701c -6.45  -5.29c
iter:  44 13:24:50  -294.184701c -6.75  -5.34c
Writing to output.gpw (mode='')

iter:  45 13:27:17  -294.184701c -6.86  -5.34c
iter:  46 13:29:37  -294.184701c -6.44  -5.39c
iter:  47 13:31:55  -294.184701c -6.68  -5.58c
iter:  48 13:34:05  -294.184701c -7.09  -5.64c
iter:  49 13:36:16  -294.184701c -6.95  -5.75c
Writing to output.gpw (mode='')

iter:  50 13:38:33  -294.184701c -6.84  -5.87c
iter:  51 13:40:50  -294.184701c -6.98  -5.97c
iter:  52 13:43:12  -294.184701c -6.94  -6.24c
iter:  53 13:45:36  -294.184700c -7.09  -6.19c
iter:  54 13:47:54  -294.184701c -7.17  -6.05c
Writing to output.gpw (mode='')

iter:  55 13:50:20  -294.184700c -7.32  -5.89c
iter:  56 13:52:38  -294.184700c -7.39  -5.96c
iter:  57 13:55:02  -294.184700c -7.20  -5.93c
iter:  58 13:57:16  -294.184700c -7.23  -5.87c
iter:  59 13:59:28  -294.184700c -7.24  -5.92c
Writing to output.gpw (mode='')

iter:  60 14:01:53  -294.184700c -7.22  -5.83c
iter:  61 14:04:14  -294.184700c -7.60c -5.83c

Converged after 61 iterations.

Dipole moment: (-12.510123, -3.518445, 0.102426) |e|*Ang

Energy contributions relative to reference atoms: (reference = -78215.099420)

Kinetic:        +97.464501
Potential:      -83.760733
External:        +0.000000
XC:            -307.563792
Entropy (-ST):   -0.151495
Local:           -0.248929
--------------------------
Free energy:   -294.260448
Extrapolated:  -294.184700

Dipole-layer corrected work functions: 3.381677, 3.184780 eV

Showing only first 2 kpts
 Kpt  Band  Eigenvalues  Occupancy
  0    20     -3.53649    1.98746
  0    21     -3.45122    1.93285
  0    22     -3.11815    0.07104
  0    23     -3.03022    0.01261

  1    20     -3.30594    1.22330
  1    21     -3.27818    0.94951
  1    22     -3.24192    0.60895
  1    23     -3.23308    0.53671


Fermi level: -3.28323

No gap
Writing to output.gpw (mode='')


Forces in eV/Ang:
  0 Li    0.00425    0.00000   -0.27091
  1 Li    0.00176    0.00000   -0.27193
  2 Li   -0.00573    0.00000   -0.27118
  3 Li    0.00020    0.00428   -0.27127
  4 Li   -0.00110   -0.00112   -0.27492
  5 Li    0.00069    0.00147   -0.27107
  6 Li    0.00020   -0.00428   -0.27127
  7 Li   -0.00110    0.00112   -0.27492
  8 Li    0.00069   -0.00147   -0.27107
  9 Li   -0.00026    0.00260    0.27184
 10 Li    0.00664   -0.00291    0.25754
 11 Li   -0.00678   -0.00071    0.25712
 12 Li   -0.00026   -0.00260    0.27184
 13 Li    0.00664    0.00292    0.25754
 14 Li   -0.00678    0.00072    0.25712
 15 Li    0.00040   -0.00000    0.25226
 16 Li   -0.00859   -0.00000    0.26043
 17 Li    0.00842   -0.00000    0.26524
 18 Li    0.00929   -0.00000    0.00904
 19 Li   -0.00254   -0.00000    0.04162
 20 Li   -0.00728   -0.00000    0.02683
 21 Li   -0.00389   -0.00657    0.04147
 22 Li   -0.00050    0.00653    0.02809
 23 Li    0.00475   -0.00701    0.04172
 24 Li   -0.00388    0.00657    0.04148
 25 Li   -0.00050   -0.00653    0.02809
 26 Li    0.00475    0.00702    0.04172
 27 Li    0.00222   -0.01060   -0.00348
 28 Li    0.02702   -0.01119   -0.04313
 29 Li   -0.01884   -0.00252   -0.04310
 30 Li    0.00222    0.01060   -0.00348
 31 Li    0.02701    0.01119   -0.04312
 32 Li   -0.01884    0.00252   -0.04309
 33 Li    0.00016   -0.00000   -0.02329
 34 Li   -0.00508    0.00000   -0.02031
 35 Li    0.00489    0.00000   -0.01772
 36 Br    7.91403    0.00000    0.00764
 37 H    -7.94027    0.00000    0.01925

System changes: positions 

Initializing position-dependent things.

Density initialized from wave functions
       .-----------------------.  
      /|                       |  
     / |                       |  
    /  |                       |  
   /   |                       |  
  /    |                       |  
 *     |                       |  
 |     |                       |  
 |     |                       |  
 |     |                       |  
 |     |                       |  
 |     |                       |  
 |     Li      Li      Li      |  
 |Br   |               H       |  
 |   Li|     Li      Li        |  
 |     |  Li      Li      Li   |  
 | Li  |   Li      Li          |  
 |     |Li      Li      Li     |  
 |     |                       |  
 |   LLi     LLi     LLi       |  
 |     |  Li      Li      Li   |  
 | Li  |   Li      Li          |  
 |     |Li      Li      Li     |  
 Li    | Li      Li            |  
 |    Li      Li      Li       |  
 |     |                       |  
 |     |                       |  
 |     |                       |  
 |     |                       |  
 |     |                       |  
 |     |                       |  
 |     .-----------------------.  
 |    /                       /   
 |   /                       /    
 |  /                       /     
 | /                       /      
 |/                       /       
 *-----------------------*        

Positions:
   0 Li     1.617037    1.617037   10.000000    ( 0.0000,  0.0000,  0.0000)
   1 Li     4.851111    1.617037   10.000000    ( 0.0000,  0.0000,  0.0000)
   2 Li     8.085185    1.617037   10.000000    ( 0.0000,  0.0000,  0.0000)
   3 Li     1.617037    4.851111   10.000000    ( 0.0000,  0.0000,  0.0000)
   4 Li     4.851111    4.851111   10.000000    ( 0.0000,  0.0000,  0.0000)
   5 Li     8.085185    4.851111   10.000000    ( 0.0000,  0.0000,  0.0000)
   6 Li     1.617037    8.085185   10.000000    ( 0.0000,  0.0000,  0.0000)
   7 Li     4.851111    8.085185   10.000000    ( 0.0000,  0.0000,  0.0000)
   8 Li     8.085185    8.085185   10.000000    ( 0.0000,  0.0000,  0.0000)
   9 Li     0.000000    0.000000   11.617037    ( 0.0000,  0.0000,  0.0000)
  10 Li     3.234074    0.000000   11.617037    ( 0.0000,  0.0000,  0.0000)
  11 Li     6.468148    0.000000   11.617037    ( 0.0000,  0.0000,  0.0000)
  12 Li     0.000000    3.234074   11.617037    ( 0.0000,  0.0000,  0.0000)
  13 Li     3.234074    3.234074   11.617037    ( 0.0000,  0.0000,  0.0000)
  14 Li     6.468148    3.234074   11.617037    ( 0.0000,  0.0000,  0.0000)
  15 Li     0.000000    6.468148   11.617037    ( 0.0000,  0.0000,  0.0000)
  16 Li     3.234074    6.468148   11.617037    ( 0.0000,  0.0000,  0.0000)
  17 Li     6.468148    6.468148   11.617037    ( 0.0000,  0.0000,  0.0000)
  18 Li     1.617579    1.617038   13.470262    ( 0.0000,  0.0000,  0.0000)
  19 Li     4.850965    1.617038   13.472170    ( 0.0000,  0.0000,  0.0000)
  20 Li     8.084757    1.617038   13.471292    ( 0.0000,  0.0000,  0.0000)
  21 Li     1.616814    4.850730   13.472141    ( 0.0000,  0.0000,  0.0000)
  22 Li     4.851082    4.851482   13.471372    ( 0.0000,  0.0000,  0.0000)
  23 Li     8.085457    4.850701   13.472160    ( 0.0000,  0.0000,  0.0000)
  24 Li     1.616814    8.085565   13.472140    ( 0.0000,  0.0000,  0.0000)
  25 Li     4.851082    8.084813   13.471371    ( 0.0000,  0.0000,  0.0000)
  26 Li     8.085457    8.085594   13.472158    ( 0.0000,  0.0000,  0.0000)
  27 Li     0.000133   -0.000624   15.445688    ( 0.0000,  0.0000,  0.0000)
  28 Li     3.235643   -0.000650   15.443424    ( 0.0000,  0.0000,  0.0000)
  29 Li     6.467050   -0.000160   15.443413    ( 0.0000,  0.0000,  0.0000)
  30 Li     0.000133    3.234698   15.445688    ( 0.0000,  0.0000,  0.0000)
  31 Li     3.235646    3.234726   15.443423    ( 0.0000,  0.0000,  0.0000)
  32 Li     6.467047    3.234237   15.443412    ( 0.0000,  0.0000,  0.0000)
  33 Li     0.000007    6.468148   15.444588    ( 0.0000,  0.0000,  0.0000)
  34 Li     3.233781    6.468146   15.444762    ( 0.0000,  0.0000,  0.0000)
  35 Li     6.468432    6.468146   15.444909    ( 0.0000,  0.0000,  0.0000)
  36 Br     0.158737    1.617037   18.446696    ( 0.0000,  0.0000,  0.0000)
  37 H     -1.159995    1.617037   18.446858    ( 0.0000,  0.0000,  0.0000)

Unit cell:
           periodic     x           y           z      points  spacing
  1. axis:    yes    9.702222    0.000000    0.000000    60     0.1617
  2. axis:    yes    0.000000    9.702222    0.000000    60     0.1617
  3. axis:    no     0.000000    0.000000   24.851111   156     0.1593

  Lengths:   9.702222   9.702222  24.851111
  Angles:   90.000000  90.000000  90.000000

Effective grid spacing dv^(1/3) = 0.1609

     iter     time        total  log10-change:
                         energy  eigst   dens
iter:   1 14:07:09  -295.049831  -0.42
iter:   2 14:09:27  -294.762547  -0.19  -1.17
iter:   3 14:11:41  -294.695176  -1.21  -1.41
iter:   4 14:13:52  -294.664410  -0.57  -1.68
Writing to output.gpw (mode='')

iter:   5 14:16:25  -294.660840  -0.96  -1.69
iter:   6 14:18:41  -294.641284  -1.05  -1.74
iter:   7 14:21:10  -294.638877c -1.56  -2.20
iter:   8 14:23:28  -294.639959c -1.57  -2.31
iter:   9 14:25:45  -294.639510c -2.20  -2.35
Writing to output.gpw (mode='')

iter:  10 14:28:04  -294.639389c -2.54  -2.57
iter:  11 14:30:26  -294.639546c -2.48  -2.68
iter:  12 14:32:51  -294.639738c -2.53  -2.79
iter:  13 14:35:10  -294.639825c -2.96  -2.89
iter:  14 14:37:32  -294.639891c -3.03  -2.93
Writing to output.gpw (mode='')

iter:  15 14:39:58  -294.639993c -3.22  -3.12
iter:  16 14:42:12  -294.640096c -3.01  -3.14
iter:  17 14:44:36  -294.640114c -3.51  -3.10
iter:  18 14:46:52  -294.640101c -3.50  -3.18
iter:  19 14:49:10  -294.640101c -4.05  -3.43
Writing to output.gpw (mode='')

iter:  20 14:51:32  -294.640111c -4.24  -3.46
iter:  21 14:53:50  -294.640114c -4.02  -3.42
iter:  22 14:56:16  -294.640122c -4.25  -3.43
iter:  23 14:58:31  -294.640122c -4.58  -3.40
iter:  24 15:00:52  -294.640122c -4.51  -3.46
Writing to output.gpw (mode='')

iter:  25 15:03:17  -294.640120c -4.49  -3.48
iter:  26 15:05:34  -294.640118c -5.04  -3.46
iter:  27 15:07:59  -294.640114c -4.98  -3.47
iter:  28 15:10:14  -294.640112c -5.23  -3.49
iter:  29 15:12:36  -294.640101c -4.44  -3.63
Writing to output.gpw (mode='')

iter:  30 15:14:52  -294.640103c -5.09  -3.58
iter:  31 15:17:09  -294.640108c -5.34  -3.57
iter:  32 15:19:26  -294.640109c -5.22  -3.69
iter:  33 15:21:43  -294.640110c -5.46  -3.72
iter:  34 15:24:07  -294.640112c -5.16  -4.07c
Writing to output.gpw (mode='')

iter:  35 15:26:30  -294.640112c -5.51  -4.34c
iter:  36 15:28:44  -294.640111c -5.94  -4.33c
iter:  37 15:31:00  -294.640110c -5.86  -4.37c
iter:  38 15:33:18  -294.640111c -5.68  -4.45c
iter:  39 15:35:42  -294.640111c -6.18  -4.47c
Writing to output.gpw (mode='')

iter:  40 15:38:09  -294.640110c -6.15  -4.58c
iter:  41 15:40:27  -294.640110c -6.27  -4.64c
iter:  42 15:42:41  -294.640110c -6.31  -4.82c
iter:  43 15:44:57  -294.640110c -6.53  -4.95c
iter:  44 15:47:16  -294.640110c -6.66  -5.01c
Writing to output.gpw (mode='')

iter:  45 15:49:48  -294.640110c -6.72  -5.04c
iter:  46 15:52:10  -294.640110c -6.76  -5.12c
iter:  47 15:54:22  -294.640110c -6.66  -5.19c
iter:  48 15:56:35  -294.640110c -6.93  -5.23c
iter:  49 15:58:53  -294.640110c -6.77  -5.24c
Writing to output.gpw (mode='')

iter:  50 16:01:30  -294.640110c -7.26  -5.34c
iter:  51 16:03:44  -294.640110c -7.36  -5.77c
iter:  52 16:05:56  -294.640110c -7.37  -5.84c
iter:  53 16:08:09  -294.640110c -7.32  -5.85c
iter:  54 16:10:26  -294.640110c -7.19  -6.04c
Writing to output.gpw (mode='')

iter:  55 16:13:01  -294.640110c -7.53c -6.22c

Converged after 55 iterations.

Dipole moment: (-14.344635, -3.498934, 0.092756) |e|*Ang

Energy contributions relative to reference atoms: (reference = -78215.099420)

Kinetic:        +91.044678
Potential:      -78.681239
External:        +0.000000
XC:            -306.685999
Entropy (-ST):   -0.151429
Local:           -0.241834
--------------------------
Free energy:   -294.715824
Extrapolated:  -294.640110

Dipole-layer corrected work functions: 3.380621, 3.202311 eV

Showing only first 2 kpts
 Kpt  Band  Eigenvalues  Occupancy
  0    20     -3.54479    1.98747
  0    21     -3.45989    1.93342
  0    22     -3.12492    0.06906
  0    23     -3.03854    0.01263

  1    20     -3.31393    1.22092
  1    21     -3.28657    0.95110
  1    22     -3.25041    0.61107
  1    23     -3.24125    0.53618


Fermi level: -3.29147

No gap

Forces in eV/Ang:
  0 Li    0.00429    0.00000   -0.27097
  1 Li    0.00188    0.00000   -0.27184
  2 Li   -0.00586    0.00000   -0.27133
  3 Li    0.00020    0.00458   -0.27128
  4 Li   -0.00114   -0.00086   -0.27488
  5 Li    0.00070    0.00163   -0.27109
  6 Li    0.00020   -0.00458   -0.27128
  7 Li   -0.00114    0.00086   -0.27488
  8 Li    0.00070   -0.00163   -0.27109
  9 Li   -0.00034    0.00244    0.27327
 10 Li    0.00680   -0.00310    0.25877
 11 Li   -0.00692   -0.00075    0.25831
 12 Li   -0.00034   -0.00244    0.27327
 13 Li    0.00680    0.00310    0.25877
 14 Li   -0.00692    0.00075    0.25831
 15 Li    0.00051   -0.00000    0.25294
 16 Li   -0.00874   -0.00000    0.26087
 17 Li    0.00848   -0.00000    0.26597
 18 Li    0.00880   -0.00000    0.00684
 19 Li   -0.00262   -0.00000    0.03846
 20 Li   -0.00673   -0.00000    0.02467
 21 Li   -0.00374   -0.00612    0.03880
 22 Li   -0.00048    0.00673    0.02592
 23 Li    0.00468   -0.00659    0.03915
 24 Li   -0.00374    0.00612    0.03880
 25 Li   -0.00048   -0.00672    0.02592
 26 Li    0.00467    0.00659    0.03915
 27 Li    0.00297   -0.00908    0.00176
 28 Li    0.02657   -0.01097   -0.04052
 29 Li   -0.01789   -0.00136   -0.03926
 30 Li    0.00297    0.00908    0.00176
 31 Li    0.02657    0.01097   -0.04051
 32 Li   -0.01789    0.00136   -0.03926
 33 Li    0.00021   -0.00000   -0.02221
 34 Li   -0.00477    0.00000   -0.01931
 35 Li    0.00450    0.00000   -0.01670
 36 Br    3.82274   -0.00000   -0.00487
 37 H    -3.83998   -0.00000    0.01789

System changes: positions 

Initializing position-dependent things.

Density initialized from wave functions
       .-----------------------.  
      /|                       |  
     / |                       |  
    /  |                       |  
   /   |                       |  
  /    |                       |  
 *     |                       |  
 |     |                       |  
 |     |                       |  
 |     |                       |  
 |     |                       |  
 |     |                       |  
 |     Li      Li      Li      |  
 |Br   |               H       |  
 |   Li|     Li      Li        |  
 |     |  Li      Li      Li   |  
 | Li  |   Li      Li          |  
 |     |Li      Li      Li     |  
 |     |                       |  
 |   LLi     LLi     LLi       |  
 |     |  Li      Li      Li   |  
 | Li  |   Li      Li          |  
 |     |Li      Li      Li     |  
 Li    | Li      Li            |  
 |    Li      Li      Li       |  
 |     |                       |  
 |     |                       |  
 |     |                       |  
 |     |                       |  
 |     |                       |  
 |     |                       |  
 |     .-----------------------.  
 |    /                       /   
 |   /                       /    
 |  /                       /     
 | /                       /      
 |/                       /       
 *-----------------------*        

Positions:
   0 Li     1.617037    1.617037   10.000000    ( 0.0000,  0.0000,  0.0000)
   1 Li     4.851111    1.617037   10.000000    ( 0.0000,  0.0000,  0.0000)
   2 Li     8.085185    1.617037   10.000000    ( 0.0000,  0.0000,  0.0000)
   3 Li     1.617037    4.851111   10.000000    ( 0.0000,  0.0000,  0.0000)
   4 Li     4.851111    4.851111   10.000000    ( 0.0000,  0.0000,  0.0000)
   5 Li     8.085185    4.851111   10.000000    ( 0.0000,  0.0000,  0.0000)
   6 Li     1.617037    8.085185   10.000000    ( 0.0000,  0.0000,  0.0000)
   7 Li     4.851111    8.085185   10.000000    ( 0.0000,  0.0000,  0.0000)
   8 Li     8.085185    8.085185   10.000000    ( 0.0000,  0.0000,  0.0000)
   9 Li     0.000000    0.000000   11.617037    ( 0.0000,  0.0000,  0.0000)
  10 Li     3.234074    0.000000   11.617037    ( 0.0000,  0.0000,  0.0000)
  11 Li     6.468148    0.000000   11.617037    ( 0.0000,  0.0000,  0.0000)
  12 Li     0.000000    3.234074   11.617037    ( 0.0000,  0.0000,  0.0000)
  13 Li     3.234074    3.234074   11.617037    ( 0.0000,  0.0000,  0.0000)
  14 Li     6.468148    3.234074   11.617037    ( 0.0000,  0.0000,  0.0000)
  15 Li     0.000000    6.468148   11.617037    ( 0.0000,  0.0000,  0.0000)
  16 Li     3.234074    6.468148   11.617037    ( 0.0000,  0.0000,  0.0000)
  17 Li     6.468148    6.468148   11.617037    ( 0.0000,  0.0000,  0.0000)
  18 Li     1.617950    1.617038   13.470562    ( 0.0000,  0.0000,  0.0000)
  19 Li     4.850856    1.617038   13.473807    ( 0.0000,  0.0000,  0.0000)
  20 Li     8.084472    1.617038   13.472339    ( 0.0000,  0.0000,  0.0000)
  21 Li     1.616658    4.850472   13.473779    ( 0.0000,  0.0000,  0.0000)
  22 Li     4.851062    4.851758   13.472471    ( 0.0000,  0.0000,  0.0000)
  23 Li     8.085652    4.850421   13.473814    ( 0.0000,  0.0000,  0.0000)
  24 Li     1.616657    8.085823   13.473777    ( 0.0000,  0.0000,  0.0000)
  25 Li     4.851062    8.084537   13.472471    ( 0.0000,  0.0000,  0.0000)
  26 Li     8.085652    8.085874   13.473813    ( 0.0000,  0.0000,  0.0000)
  27 Li     0.000257   -0.001018   15.445707    ( 0.0000,  0.0000,  0.0000)
  28 Li     3.236759   -0.001110   15.441709    ( 0.0000,  0.0000,  0.0000)
  29 Li     6.466293   -0.000231   15.441736    ( 0.0000,  0.0000,  0.0000)
  30 Li     0.000257    3.235091   15.445707    ( 0.0000,  0.0000,  0.0000)
  31 Li     3.236762    3.235187   15.441709    ( 0.0000,  0.0000,  0.0000)
  32 Li     6.466290    3.234307   15.441736    ( 0.0000,  0.0000,  0.0000)
  33 Li     0.000014    6.468148   15.443655    ( 0.0000,  0.0000,  0.0000)
  34 Li     3.233580    6.468146   15.443952    ( 0.0000,  0.0000,  0.0000)
  35 Li     6.468625    6.468146   15.444205    ( 0.0000,  0.0000,  0.0000)
  36 Br     0.195426    1.617037   18.446643    ( 0.0000,  0.0000,  0.0000)
  37 H     -1.197542    1.617037   18.447628    ( 0.0000,  0.0000,  0.0000)

Unit cell:
           periodic     x           y           z      points  spacing
  1. axis:    yes    9.702222    0.000000    0.000000    60     0.1617
  2. axis:    yes    0.000000    9.702222    0.000000    60     0.1617
  3. axis:    no     0.000000    0.000000   24.851111   156     0.1593

  Lengths:   9.702222   9.702222  24.851111
  Angles:   90.000000  90.000000  90.000000

Effective grid spacing dv^(1/3) = 0.1609

     iter     time        total  log10-change:
                         energy  eigst   dens
iter:   1 16:15:45  -295.147120  -0.36
iter:   2 16:18:05  -294.926480  -0.31  -1.23
iter:   3 16:20:28  -294.873110  -1.38  -1.45
iter:   4 16:22:44  -294.844433  -0.66  -1.72
Writing to output.gpw (mode='')

iter:   5 16:25:12  -294.838265  -1.12  -1.72
iter:   6 16:27:26  -294.827600c -1.07  -1.83
iter:   7 16:29:39  -294.824045c -1.54  -2.18
iter:   8 16:31:54  -294.824876c -1.71  -2.34
iter:   9 16:34:17  -294.824058c -2.38  -2.37
Writing to output.gpw (mode='')

iter:  10 16:36:47  -294.824065c -2.71  -2.62
iter:  11 16:39:00  -294.824168c -2.77  -2.74
iter:  12 16:41:16  -294.824272c -2.70  -2.80
iter:  13 16:43:31  -294.824343c -3.13  -2.94
iter:  14 16:45:39  -294.824398c -3.16  -2.98
Writing to output.gpw (mode='')

iter:  15 16:48:06  -294.824505c -3.05  -3.08
iter:  16 16:50:29  -294.824501c -3.62  -3.15
iter:  17 16:52:45  -294.824526c -3.73  -3.33
iter:  18 16:55:01  -294.824526c -3.85  -3.40
iter:  19 16:57:16  -294.824540c -4.18  -3.54
Writing to output.gpw (mode='')

iter:  20 16:59:43  -294.824568c -3.79  -3.66
iter:  21 17:01:54  -294.824571c -4.29  -3.66
iter:  22 17:04:11  -294.824575c -4.02  -3.65
iter:  23 17:06:22  -294.824588c -4.29  -3.64
iter:  24 17:08:37  -294.824601c -4.30  -3.58
Writing to output.gpw (mode='')

iter:  25 17:11:05  -294.824600c -4.54  -3.51
iter:  26 17:13:31  -294.824597c -4.73  -3.53
iter:  27 17:15:46  -294.824595c -4.72  -3.53
iter:  28 17:18:03  -294.824583c -5.08  -3.52
iter:  29 17:20:20  -294.824582c -5.42  -3.54
Writing to output.gpw (mode='')

iter:  30 17:22:39  -294.824582c -5.28  -3.54
iter:  31 17:24:58  -294.824580c -5.60  -3.64
iter:  32 17:27:16  -294.824577c -5.08  -3.65
iter:  33 17:29:35  -294.824575c -5.20  -3.77
iter:  34 17:31:51  -294.824575c -5.12  -3.94
Writing to output.gpw (mode='')

iter:  35 17:34:12  -294.824574c -5.51  -4.08c
iter:  36 17:36:40  -294.824575c -5.85  -4.08c
iter:  37 17:38:52  -294.824577c -5.77  -4.17c
iter:  38 17:41:14  -294.824577c -6.25  -4.37c
iter:  39 17:43:31  -294.824576c -6.09  -4.44c
Writing to output.gpw (mode='')

iter:  40 17:45:55  -294.824577c -6.30  -4.58c
iter:  41 17:48:09  -294.824577c -6.68  -4.70c
iter:  42 17:50:21  -294.824577c -6.47  -4.73c
iter:  43 17:52:43  -294.824577c -6.48  -4.95c
iter:  44 17:55:04  -294.824577c -6.75  -5.04c
Writing to output.gpw (mode='')

iter:  45 17:57:22  -294.824577c -7.09  -5.08c
iter:  46 17:59:38  -294.824577c -6.99  -5.07c
iter:  47 18:02:00  -294.824577c -7.08  -5.08c
iter:  48 18:04:18  -294.824577c -7.07  -5.10c
iter:  49 18:06:49  -294.824577c -7.16  -5.11c
Writing to output.gpw (mode='')

iter:  50 18:09:23  -294.824577c -7.32  -5.19c
iter:  51 18:11:35  -294.824577c -7.38  -5.22c
iter:  52 18:13:56  -294.824577c -7.50c -5.34c

Converged after 52 iterations.

Dipole moment: (-15.695248, -3.465274, 0.076418) |e|*Ang

Energy contributions relative to reference atoms: (reference = -78215.099420)

Kinetic:        +86.423518
Potential:      -74.957505
External:        +0.000000
XC:            -305.981590
Entropy (-ST):   -0.151341
Local:           -0.233330
--------------------------
Free energy:   -294.900248
Extrapolated:  -294.824577

Dipole-layer corrected work functions: 3.379256, 3.232355 eV

Showing only first 2 kpts
 Kpt  Band  Eigenvalues  Occupancy
  0    20     -3.55921    1.98749
  0    21     -3.47478    1.93411
  0    22     -3.13725    0.06642
  0    23     -3.05299    0.01266

  1    20     -3.32817    1.21997
  1    21     -3.30101    0.95209
  1    22     -3.26505    0.61358
  1    23     -3.25537    0.53447


Fermi level: -3.30581

No gap
Writing to output.gpw (mode='')


Forces in eV/Ang:
  0 Li    0.00434    0.00000   -0.27098
  1 Li    0.00202    0.00000   -0.27169
  2 Li   -0.00602    0.00000   -0.27150
  3 Li    0.00026    0.00503   -0.27129
  4 Li   -0.00121   -0.00042   -0.27483
  5 Li    0.00069    0.00187   -0.27110
  6 Li    0.00026   -0.00503   -0.27129
  7 Li   -0.00121    0.00042   -0.27483
  8 Li    0.00069   -0.00187   -0.27110
  9 Li   -0.00046    0.00222    0.27527
 10 Li    0.00702   -0.00336    0.26041
 11 Li   -0.00707   -0.00083    0.26004
 12 Li   -0.00046   -0.00222    0.27527
 13 Li    0.00702    0.00336    0.26041
 14 Li   -0.00707    0.00083    0.26004
 15 Li    0.00070   -0.00000    0.25384
 16 Li   -0.00899   -0.00000    0.26136
 17 Li    0.00855   -0.00000    0.26688
 18 Li    0.00811   -0.00000    0.00410
 19 Li   -0.00266   -0.00000    0.03385
 20 Li   -0.00597   -0.00000    0.02146
 21 Li   -0.00356   -0.00554    0.03518
 22 Li   -0.00043    0.00695    0.02301
 23 Li    0.00456   -0.00596    0.03552
 24 Li   -0.00356    0.00555    0.03518
 25 Li   -0.00043   -0.00694    0.02301
 26 Li    0.00456    0.00596    0.03553
 27 Li    0.00366   -0.00674    0.00941
 28 Li    0.02542   -0.01049   -0.03649
 29 Li   -0.01627    0.00026   -0.03328
 30 Li    0.00366    0.00674    0.00941
 31 Li    0.02542    0.01049   -0.03648
 32 Li   -0.01627   -0.00027   -0.03328
 33 Li    0.00035   -0.00000   -0.02074
 34 Li   -0.00430    0.00000   -0.01800
 35 Li    0.00388    0.00000   -0.01540
 36 Br    1.26154    0.00000   -0.02137
 37 H    -1.28724    0.00000    0.00476

System changes: positions 

Initializing position-dependent things.

Density initialized from wave functions
       .-----------------------.  
      /|                       |  
     / |                       |  
    /  |                       |  
   /   |                       |  
  /    |                       |  
 *     |                       |  
 |     |                       |  
 |     |                       |  
 |     |                       |  
 |     |                       |  
 |     |                       |  
 |     Li      Li      Li      |  
 | Br  |               H       |  
 |   Li|     Li      Li        |  
 |     |  Li      Li      Li   |  
 | Li  |   Li      Li          |  
 |     |Li      Li      Li     |  
 |     |                       |  
 |   LLi     LLi     LLi       |  
 |     |  Li      Li      Li   |  
 | Li  |   Li      Li          |  
 |     |Li      Li      Li     |  
 Li    | Li      Li            |  
 |    Li      Li      Li       |  
 |     |                       |  
 |     |                       |  
 |     |                       |  
 |     |                       |  
 |     |                       |  
 |     |                       |  
 |     .-----------------------.  
 |    /                       /   
 |   /                       /    
 |  /                       /     
 | /                       /      
 |/                       /       
 *-----------------------*        

Positions:
   0 Li     1.617037    1.617037   10.000000    ( 0.0000,  0.0000,  0.0000)
   1 Li     4.851111    1.617037   10.000000    ( 0.0000,  0.0000,  0.0000)
   2 Li     8.085185    1.617037   10.000000    ( 0.0000,  0.0000,  0.0000)
   3 Li     1.617037    4.851111   10.000000    ( 0.0000,  0.0000,  0.0000)
   4 Li     4.851111    4.851111   10.000000    ( 0.0000,  0.0000,  0.0000)
   5 Li     8.085185    4.851111   10.000000    ( 0.0000,  0.0000,  0.0000)
   6 Li     1.617037    8.085185   10.000000    ( 0.0000,  0.0000,  0.0000)
   7 Li     4.851111    8.085185   10.000000    ( 0.0000,  0.0000,  0.0000)
   8 Li     8.085185    8.085185   10.000000    ( 0.0000,  0.0000,  0.0000)
   9 Li     0.000000    0.000000   11.617037    ( 0.0000,  0.0000,  0.0000)
  10 Li     3.234074    0.000000   11.617037    ( 0.0000,  0.0000,  0.0000)
  11 Li     6.468148    0.000000   11.617037    ( 0.0000,  0.0000,  0.0000)
  12 Li     0.000000    3.234074   11.617037    ( 0.0000,  0.0000,  0.0000)
  13 Li     3.234074    3.234074   11.617037    ( 0.0000,  0.0000,  0.0000)
  14 Li     6.468148    3.234074   11.617037    ( 0.0000,  0.0000,  0.0000)
  15 Li     0.000000    6.468148   11.617037    ( 0.0000,  0.0000,  0.0000)
  16 Li     3.234074    6.468148   11.617037    ( 0.0000,  0.0000,  0.0000)
  17 Li     6.468148    6.468148   11.617037    ( 0.0000,  0.0000,  0.0000)
  18 Li     1.618248    1.617038   13.470752    ( 0.0000,  0.0000,  0.0000)
  19 Li     4.850762    1.617038   13.475081    ( 0.0000,  0.0000,  0.0000)
  20 Li     8.084248    1.617038   13.473149    ( 0.0000,  0.0000,  0.0000)
  21 Li     1.616529    4.850267   13.475078    ( 0.0000,  0.0000,  0.0000)
  22 Li     4.851046    4.851997   13.473331    ( 0.0000,  0.0000,  0.0000)
  23 Li     8.085814    4.850200   13.475127    ( 0.0000,  0.0000,  0.0000)
  24 Li     1.616529    8.086028   13.475077    ( 0.0000,  0.0000,  0.0000)
  25 Li     4.851046    8.084297   13.473331    ( 0.0000,  0.0000,  0.0000)
  26 Li     8.085814    8.086095   13.475126    ( 0.0000,  0.0000,  0.0000)
  27 Li     0.000377   -0.001295   15.445906    ( 0.0000,  0.0000,  0.0000)
  28 Li     3.237675   -0.001488   15.440355    ( 0.0000,  0.0000,  0.0000)
  29 Li     6.465691   -0.000251   15.440461    ( 0.0000,  0.0000,  0.0000)
  30 Li     0.000377    3.235369   15.445906    ( 0.0000,  0.0000,  0.0000)
  31 Li     3.237678    3.235565   15.440354    ( 0.0000,  0.0000,  0.0000)
  32 Li     6.465689    3.234327   15.440460    ( 0.0000,  0.0000,  0.0000)
  33 Li     0.000023    6.468148   15.442900    ( 0.0000,  0.0000,  0.0000)
  34 Li     3.233421    6.468146   15.443297    ( 0.0000,  0.0000,  0.0000)
  35 Li     6.468772    6.468146   15.443641    ( 0.0000,  0.0000,  0.0000)
  36 Br     0.213636    1.617037   18.446192    ( 0.0000,  0.0000,  0.0000)
  37 H     -1.216612    1.617037   18.447988    ( 0.0000,  0.0000,  0.0000)

Unit cell:
           periodic     x           y           z      points  spacing
  1. axis:    yes    9.702222    0.000000    0.000000    60     0.1617
  2. axis:    yes    0.000000    9.702222    0.000000    60     0.1617
  3. axis:    no     0.000000    0.000000   24.851111   156     0.1593

  Lengths:   9.702222   9.702222  24.851111
  Angles:   90.000000  90.000000  90.000000

Effective grid spacing dv^(1/3) = 0.1609

     iter     time        total  log10-change:
                         energy  eigst   dens
iter:   1 18:16:50  -294.918869  -0.93
iter:   2 18:19:15  -294.877100  -1.16  -1.61
iter:   3 18:21:38  -294.867336  -2.21  -1.81
iter:   4 18:23:53  -294.859615c -1.22  -2.04
Writing to output.gpw (mode='')

iter:   5 18:26:18  -294.857253c -1.77  -2.02
iter:   6 18:28:36  -294.857411c -1.53  -2.23
iter:   7 18:30:53  -294.854669c -1.98  -2.38
iter:   8 18:33:09  -294.854911c -2.40  -2.64
iter:   9 18:35:25  -294.854425c -3.03  -2.62
Writing to output.gpw (mode='')

iter:  10 18:37:51  -294.854405c -3.29  -2.97
iter:  11 18:40:16  -294.854420c -3.45  -3.07
iter:  12 18:42:38  -294.854430c -3.80  -3.12
iter:  13 18:44:54  -294.854421c -3.80  -3.16
iter:  14 18:47:05  -294.854469c -3.73  -3.29
Writing to output.gpw (mode='')

iter:  15 18:49:28  -294.854447c -4.11  -3.38
iter:  16 18:51:51  -294.854443c -4.13  -3.65
iter:  17 18:54:08  -294.854449c -4.69  -3.72
iter:  18 18:56:28  -294.854452c -4.64  -3.76
iter:  19 18:58:52  -294.854453c -4.78  -3.84
Writing to output.gpw (mode='')

iter:  20 19:01:19  -294.854453c -5.02  -3.94
iter:  21 19:03:31  -294.854456c -4.89  -3.97
iter:  22 19:05:50  -294.854456c -5.07  -3.96
iter:  23 19:08:09  -294.854457c -5.52  -4.02c
iter:  24 19:10:30  -294.854458c -5.67  -4.17c
Writing to output.gpw (mode='')

iter:  25 19:12:56  -294.854459c -5.59  -4.29c
iter:  26 19:15:20  -294.854458c -5.87  -4.55c
iter:  27 19:17:33  -294.854459c -5.99  -4.65c
iter:  28 19:19:58  -294.854458c -5.96  -4.67c
iter:  29 19:22:21  -294.854458c -6.18  -4.75c
Writing to output.gpw (mode='')

iter:  30 19:24:43  -294.854458c -6.13  -4.88c
iter:  31 19:27:00  -294.854458c -6.06  -4.93c
iter:  32 19:29:16  -294.854458c -6.40  -4.89c
iter:  33 19:31:30  -294.854458c -6.63  -4.91c
iter:  34 19:33:54  -294.854459c -6.53  -4.85c
Writing to output.gpw (mode='')

iter:  35 19:36:27  -294.854459c -6.67  -4.76c
iter:  36 19:38:47  -294.854459c -6.53  -4.74c
iter:  37 19:41:09  -294.854459c -6.65  -4.72c
iter:  38 19:43:38  -294.854458c -7.01  -4.74c
iter:  39 19:45:55  -294.854458c -6.77  -4.69c
Writing to output.gpw (mode='')

iter:  40 19:48:24  -294.854458c -6.99  -4.66c
iter:  41 19:50:47  -294.854458c -7.10  -4.67c
iter:  42 19:53:09  -294.854458c -7.05  -4.66c
iter:  43 19:55:30  -294.854457c -7.11  -4.78c
iter:  44 19:57:43  -294.854457c -7.12  -4.81c
Writing to output.gpw (mode='')

iter:  45 20:00:05  -294.854458c -7.57c -4.94c

Converged after 45 iterations.

Dipole moment: (-16.232229, -3.438890, 0.064108) |e|*Ang

Energy contributions relative to reference atoms: (reference = -78215.099420)

Kinetic:        +84.548286
Potential:      -73.425133
External:        +0.000000
XC:            -305.672486
Entropy (-ST):   -0.151290
Local:           -0.229480
--------------------------
Free energy:   -294.930102
Extrapolated:  -294.854458

Dipole-layer corrected work functions: 3.378416, 3.255178 eV

Showing only first 2 kpts
 Kpt  Band  Eigenvalues  Occupancy
  0    20     -3.57021    1.98749
  0    21     -3.48610    1.93453
  0    22     -3.14685    0.06465
  0    23     -3.06403    0.01267

  1    20     -3.33927    1.22098
  1    21     -3.31194    0.95147
  1    22     -3.27626    0.61543
  1    23     -3.26616    0.53292


Fermi level: -3.31680

No gap

Forces in eV/Ang:
  0 Li    0.00439    0.00000   -0.27097
  1 Li    0.00209    0.00000   -0.27161
  2 Li   -0.00612    0.00000   -0.27162
  3 Li    0.00035    0.00538   -0.27133
  4 Li   -0.00128   -0.00005   -0.27484
  5 Li    0.00067    0.00208   -0.27114
  6 Li    0.00035   -0.00538   -0.27133
  7 Li   -0.00128    0.00005   -0.27483
  8 Li    0.00067   -0.00208   -0.27114
  9 Li   -0.00055    0.00204    0.27671
 10 Li    0.00721   -0.00360    0.26157
 11 Li   -0.00720   -0.00090    0.26136
 12 Li   -0.00055   -0.00204    0.27671
 13 Li    0.00721    0.00360    0.26157
 14 Li   -0.00720    0.00091    0.26136
 15 Li    0.00086   -0.00000    0.25455
 16 Li   -0.00923   -0.00000    0.26175
 17 Li    0.00866   -0.00000    0.26756
[...]
  2. axis:    yes    0.000000    9.702222    0.000000    60     0.1617
  3. axis:    no     0.000000    0.000000   24.851111   156     0.1593

  Lengths:   9.702222   9.702222  24.851111
  Angles:   90.000000  90.000000  90.000000

Effective grid spacing dv^(1/3) = 0.1609

     iter     time        total  log10-change:
                         energy  eigst   dens
iter:   1 20:03:00  -294.862736  -1.88
iter:   2 20:05:18  -294.860076  -2.56  -2.21
iter:   3 20:07:42  -294.859250c -3.56  -2.35
iter:   4 20:09:59  -294.858487c -2.06  -2.53
Writing to output.gpw (mode='')

iter:   5 20:12:20  -294.857542c -2.72  -2.42
iter:   6 20:14:33  -294.857535c -2.41  -2.80
iter:   7 20:16:51  -294.857385c -3.28  -3.03
iter:   8 20:19:05  -294.857406c -3.90  -3.14
iter:   9 20:21:27  -294.857360c -3.88  -3.13
Writing to output.gpw (mode='')

iter:  10 20:23:55  -294.857357c -4.23  -3.44
iter:  11 20:26:14  -294.857359c -4.26  -3.54
iter:  12 20:28:30  -294.857361c -4.76  -3.59
iter:  13 20:30:37  -294.857361c -4.69  -3.70
iter:  14 20:33:00  -294.857367c -4.75  -3.81
Writing to output.gpw (mode='')

iter:  15 20:35:26  -294.857364c -5.39  -3.83
iter:  16 20:37:45  -294.857362c -5.53  -3.85
iter:  17 20:39:55  -294.857362c -5.41  -4.02c
iter:  18 20:42:08  -294.857361c -5.71  -4.21c
iter:  19 20:44:26  -294.857360c -5.90  -4.28c
Writing to output.gpw (mode='')

iter:  20 20:46:47  -294.857360c -6.08  -4.36c
iter:  21 20:49:12  -294.857360c -6.21  -4.38c
iter:  22 20:51:30  -294.857360c -6.59  -4.42c
iter:  23 20:53:48  -294.857360c -6.75  -4.48c
iter:  24 20:56:14  -294.857361c -6.53  -4.60c
Writing to output.gpw (mode='')

iter:  25 20:58:36  -294.857361c -7.08  -4.79c
iter:  26 21:00:59  -294.857361c -6.96  -4.80c
iter:  27 21:03:25  -294.857362c -7.00  -4.88c
iter:  28 21:05:40  -294.857361c -7.27  -5.11c
iter:  29 21:08:05  -294.857361c -7.30  -5.15c
Writing to output.gpw (mode='')

iter:  30 21:10:32  -294.857361c -7.73c -5.23c

Converged after 30 iterations.

Dipole moment: (-16.403471, -3.425282, 0.058705) |e|*Ang

Energy contributions relative to reference atoms: (reference = -78215.099420)

Kinetic:        +83.926137
Potential:      -72.912202
External:        +0.000000
XC:            -305.568206
Entropy (-ST):   -0.151270
Local:           -0.227455
--------------------------
Free energy:   -294.932996
Extrapolated:  -294.857361

Dipole-layer corrected work functions: 3.378103, 3.265252 eV

Showing only first 2 kpts
 Kpt  Band  Eigenvalues  Occupancy
  0    20     -3.57502    1.98747
  0    21     -3.49112    1.93471
  0    22     -3.15108    0.06385
  0    23     -3.06885    0.01265

  1    20     -3.34420    1.22154
  1    21     -3.31672    0.95047
  1    22     -3.28132    0.61697
  1    23     -3.27098    0.53245


Fermi level: -3.32168

No gap

Forces in eV/Ang:
  0 Li    0.00442    0.00000   -0.27098
  1 Li    0.00214    0.00000   -0.27160
  2 Li   -0.00618    0.00000   -0.27168
  3 Li    0.00037    0.00552   -0.27139
  4 Li   -0.00131    0.00011   -0.27489
  5 Li    0.00067    0.00215   -0.27119
  6 Li    0.00037   -0.00552   -0.27139
  7 Li   -0.00131   -0.00011   -0.27489
  8 Li    0.00067   -0.00215   -0.27119
  9 Li   -0.00064    0.00194    0.27755
 10 Li    0.00736   -0.00375    0.26234
 11 Li   -0.00729   -0.00096    0.26223
 12 Li   -0.00064   -0.00194    0.27755
 13 Li    0.00736    0.00375    0.26234
 14 Li   -0.00729    0.00096    0.26223
 15 Li    0.00090   -0.00000    0.25521
 16 Li   -0.00946   -0.00000    0.26225
 17 Li    0.00886   -0.00000    0.26822
 18 Li    0.00705   -0.00000    0.00167
 19 Li   -0.00254   -0.00000    0.02770
 20 Li   -0.00485   -0.00000    0.01758
 21 Li   -0.00341   -0.00495    0.03051
 22 Li   -0.00027    0.00706    0.01911
 23 Li    0.00442   -0.00529    0.03085
 24 Li   -0.00341    0.00495    0.03051
 25 Li   -0.00027   -0.00706    0.01912
 26 Li    0.00442    0.00529    0.03085
 27 Li    0.00421   -0.00405    0.01728
 28 Li    0.02354   -0.00965   -0.03157
 29 Li   -0.01426    0.00168   -0.02650
 30 Li    0.00421    0.00405    0.01728
 31 Li    0.02353    0.00965   -0.03157
 32 Li   -0.01425   -0.00168   -0.02650
 33 Li    0.00053   -0.00000   -0.01861
 34 Li   -0.00374    0.00000   -0.01610
 35 Li    0.00309    0.00000   -0.01357
 36 Br    0.01903    0.00000   -0.02742
 37 H    -0.05025    0.00000   -0.00603

System changes: positions 

Initializing position-dependent things.

Density initialized from wave functions
       .-----------------------.  
      /|                       |  
     / |                       |  
    /  |                       |  
   /   |                       |  
  /    |                       |  
 *     |                       |  
 |     |                       |  
 |     |                       |  
 |     |                       |  
 |     |                       |  
 |     |                       |  
 |     Li      Li      Li      |  
 | Br  |               H       |  
 |   Li|     Li      Li        |  
 |     |  Li      Li      Li   |  
 | Li  |   Li      Li          |  
 |     |Li      Li      Li     |  
 |     |                       |  
 |   LLi     LLi     LLi       |  
 |     |  Li      Li      Li   |  
 | Li  |   Li      Li          |  
 |     |Li      Li      Li     |  
 Li    | Li      Li            |  
 |    Li      Li      Li       |  
 |     |                       |  
 |     |                       |  
 |     |                       |  
 |     |                       |  
 |     |                       |  
 |     |                       |  
 |     .-----------------------.  
 |    /                       /   
 |   /                       /    
 |  /                       /     
 | /                       /      
 |/                       /       
 *-----------------------*        

Positions:
   0 Li     1.617037    1.617037   10.000000    ( 0.0000,  0.0000,  0.0000)
   1 Li     4.851111    1.617037   10.000000    ( 0.0000,  0.0000,  0.0000)
   2 Li     8.085185    1.617037   10.000000    ( 0.0000,  0.0000,  0.0000)
   3 Li     1.617037    4.851111   10.000000    ( 0.0000,  0.0000,  0.0000)
   4 Li     4.851111    4.851111   10.000000    ( 0.0000,  0.0000,  0.0000)
   5 Li     8.085185    4.851111   10.000000    ( 0.0000,  0.0000,  0.0000)
   6 Li     1.617037    8.085185   10.000000    ( 0.0000,  0.0000,  0.0000)
   7 Li     4.851111    8.085185   10.000000    ( 0.0000,  0.0000,  0.0000)
   8 Li     8.085185    8.085185   10.000000    ( 0.0000,  0.0000,  0.0000)
   9 Li     0.000000    0.000000   11.617037    ( 0.0000,  0.0000,  0.0000)
  10 Li     3.234074    0.000000   11.617037    ( 0.0000,  0.0000,  0.0000)
  11 Li     6.468148    0.000000   11.617037    ( 0.0000,  0.0000,  0.0000)
  12 Li     0.000000    3.234074   11.617037    ( 0.0000,  0.0000,  0.0000)
  13 Li     3.234074    3.234074   11.617037    ( 0.0000,  0.0000,  0.0000)
  14 Li     6.468148    3.234074   11.617037    ( 0.0000,  0.0000,  0.0000)
  15 Li     0.000000    6.468148   11.617037    ( 0.0000,  0.0000,  0.0000)
  16 Li     3.234074    6.468148   11.617037    ( 0.0000,  0.0000,  0.0000)
  17 Li     6.468148    6.468148   11.617037    ( 0.0000,  0.0000,  0.0000)
  18 Li     1.618612    1.617038   13.470891    ( 0.0000,  0.0000,  0.0000)
  19 Li     4.850638    1.617038   13.476561    ( 0.0000,  0.0000,  0.0000)
  20 Li     8.083987    1.617038   13.474086    ( 0.0000,  0.0000,  0.0000)
  21 Li     1.616362    4.850015   13.476657    ( 0.0000,  0.0000,  0.0000)
  22 Li     4.851029    4.852333   13.474345    ( 0.0000,  0.0000,  0.0000)
  23 Li     8.086030    4.849930   13.476723    ( 0.0000,  0.0000,  0.0000)
  24 Li     1.616362    8.086281   13.476656    ( 0.0000,  0.0000,  0.0000)
  25 Li     4.851029    8.083962   13.474345    ( 0.0000,  0.0000,  0.0000)
  26 Li     8.086030    8.086365   13.476722    ( 0.0000,  0.0000,  0.0000)
  27 Li     0.000566   -0.001552   15.446551    ( 0.0000,  0.0000,  0.0000)
  28 Li     3.238851   -0.001972   15.438720    ( 0.0000,  0.0000,  0.0000)
  29 Li     6.464958   -0.000205   15.439026    ( 0.0000,  0.0000,  0.0000)
  30 Li     0.000566    3.235626   15.446551    ( 0.0000,  0.0000,  0.0000)
  31 Li     3.238853    3.236048   15.438720    ( 0.0000,  0.0000,  0.0000)
  32 Li     6.464956    3.234281   15.439026    ( 0.0000,  0.0000,  0.0000)
  33 Li     0.000044    6.468148   15.441954    ( 0.0000,  0.0000,  0.0000)
  34 Li     3.233228    6.468146   15.442477    ( 0.0000,  0.0000,  0.0000)
  35 Li     6.468940    6.468146   15.442945    ( 0.0000,  0.0000,  0.0000)
  36 Br     0.221240    1.617037   18.445098    ( 0.0000,  0.0000,  0.0000)
  37 H     -1.225614    1.617037   18.447939    ( 0.0000,  0.0000,  0.0000)

Unit cell:
           periodic     x           y           z      points  spacing
  1. axis:    yes    9.702222    0.000000    0.000000    60     0.1617
  2. axis:    yes    0.000000    9.702222    0.000000    60     0.1617
  3. axis:    no     0.000000    0.000000   24.851111   156     0.1593

  Lengths:   9.702222   9.702222  24.851111
  Angles:   90.000000  90.000000  90.000000

Effective grid spacing dv^(1/3) = 0.1609

     iter     time        total  log10-change:
                         energy  eigst   dens
iter:   1 21:13:21  -294.857877  -3.40
iter:   2 21:15:49  -294.857748  -4.07  -2.84
iter:   3 21:18:09  -294.857734c -4.64  -3.19
iter:   4 21:20:23  -294.857717c -3.44  -3.19
Writing to output.gpw (mode='')

iter:   5 21:22:49  -294.857669c -4.47  -3.23
iter:   6 21:25:14  -294.857661c -4.63  -3.63
iter:   7 21:27:30  -294.857667c -4.42  -3.79
iter:   8 21:29:45  -294.857665c -5.56  -3.74
iter:   9 21:32:07  -294.857664c -5.22  -3.91
Writing to output.gpw (mode='')

iter:  10 21:34:34  -294.857662c -5.49  -3.98
iter:  11 21:36:50  -294.857662c -5.95  -4.05c
iter:  12 21:39:08  -294.857666c -5.78  -4.17c
iter:  13 21:41:23  -294.857665c -5.99  -4.38c
iter:  14 21:43:41  -294.857664c -6.61  -4.37c
Writing to output.gpw (mode='')

iter:  15 21:46:01  -294.857664c -7.30  -4.42c
iter:  16 21:48:16  -294.857663c -6.60  -4.48c
iter:  17 21:50:33  -294.857663c -7.27  -4.70c
iter:  18 21:52:54  -294.857663c -7.62c -4.83c

Converged after 18 iterations.

Dipole moment: (-16.434549, -3.420034, 0.057595) |e|*Ang

Energy contributions relative to reference atoms: (reference = -78215.099420)

Kinetic:        +83.807427
Potential:      -72.812857
External:        +0.000000
XC:            -305.548927
Entropy (-ST):   -0.151263
Local:           -0.227675
--------------------------
Free energy:   -294.933295
Extrapolated:  -294.857663

Dipole-layer corrected work functions: 3.378021, 3.267304 eV

Showing only first 2 kpts
 Kpt  Band  Eigenvalues  Occupancy
  0    20     -3.57591    1.98745
  0    21     -3.49213    1.93474
  0    22     -3.15186    0.06360
  0    23     -3.06974    0.01263

  1    20     -3.34518    1.22141
  1    21     -3.31764    0.94985
  1    22     -3.28245    0.61820
  1    23     -3.27199    0.53262


Fermi level: -3.32266

No gap
Writing to output.gpw (mode='')


Forces in eV/Ang:
  0 Li    0.00447    0.00000   -0.27101
  1 Li    0.00213    0.00000   -0.27165
  2 Li   -0.00622    0.00000   -0.27176
  3 Li    0.00041    0.00557   -0.27143
  4 Li   -0.00133    0.00019   -0.27491
  5 Li    0.00064    0.00219   -0.27125
  6 Li    0.00041   -0.00557   -0.27143
  7 Li   -0.00133   -0.00019   -0.27491
  8 Li    0.00064   -0.00219   -0.27125
  9 Li   -0.00068    0.00188    0.27797
 10 Li    0.00747   -0.00389    0.26271
 11 Li   -0.00736   -0.00101    0.26272
 12 Li   -0.00068   -0.00188    0.27797
 13 Li    0.00747    0.00390    0.26271
 14 Li   -0.00736    0.00101    0.26272
 15 Li    0.00093   -0.00000    0.25568
 16 Li   -0.00966   -0.00000    0.26260
 17 Li    0.00904   -0.00000    0.26858
 18 Li    0.00664   -0.00000    0.00152
 19 Li   -0.00241   -0.00000    0.02618
 20 Li   -0.00445   -0.00000    0.01689
 21 Li   -0.00340   -0.00485    0.02930
 22 Li   -0.00019    0.00702    0.01807
 23 Li    0.00439   -0.00523    0.02973
 24 Li   -0.00340    0.00485    0.02930
 25 Li   -0.00019   -0.00702    0.01808
 26 Li    0.00439    0.00523    0.02974
 27 Li    0.00425   -0.00367    0.01791
 28 Li    0.02304   -0.00934   -0.03060
 29 Li   -0.01385    0.00174   -0.02557
 30 Li    0.00425    0.00367    0.01791
 31 Li    0.02304    0.00934   -0.03060
 32 Li   -0.01385   -0.00174   -0.02557
 33 Li    0.00052   -0.00000   -0.01797
 34 Li   -0.00364    0.00000   -0.01553
 35 Li    0.00296    0.00000   -0.01306
 36 Br   -0.04083    0.00000   -0.02842
 37 H     0.01007    0.00000   -0.00648

Timing:                                      incl.     excl.
-------------------------------------------------------------------
Density initialized from wave functions:    15.916    15.916   0.0% |
 Symmetrize density:                         0.000     0.000   0.0% |
Forces:                                     60.964    60.964   0.1% |
Hamiltonian:                               949.719     0.002   0.0% |
 Atomic:                                     1.556     0.024   0.0% |
  XC Correction:                             1.533     1.533   0.0% |
 Calculate atomic Hamiltonians:              4.916     4.916   0.0% |
 Communicate:                                6.244     6.244   0.0% |
 Hartree integrate/restrict:                 1.790     1.790   0.0% |
 Initialize Hamiltonian:                     0.014     0.014   0.0% |
 Poisson:                                   33.443    15.060   0.0% |
  Communicate from 1D:                       2.357     2.357   0.0% |
  Communicate from 2D:                       4.410     4.410   0.0% |
  Communicate to 1D:                         0.925     0.925   0.0% |
  Communicate to 2D:                         4.036     4.036   0.0% |
  FFT 1D:                                    3.494     3.494   0.0% |
  FFT 2D:                                    3.160     3.160   0.0% |
 XC 3D grid:                               901.355    85.478   0.1% |
  VdW-DF integral:                         815.878     1.825   0.0% |
   Convolution:                             52.649    52.649   0.1% |
   FFT:                                      8.269     8.269   0.0% |
   gather:                                 648.788   648.788   0.9% |
   hmm1:                                     8.814     8.814   0.0% |
   hmm2:                                    10.058    10.058   0.0% |
   iFFT:                                     9.159     9.159   0.0% |
   potential:                               64.165     0.740   0.0% |
    collect:                                 6.126     6.126   0.0% |
    p1:                                     26.332    26.332   0.0% |
    p2:                                     16.458    16.458   0.0% |
    sum:                                    14.509    14.509   0.0% |
   splines:                                 12.151    12.151   0.0% |
 vbar:                                       0.397     0.397   0.0% |
LCAO initialization:                         9.864     0.335   0.0% |
 LCAO eigensolver:                           3.584     0.001   0.0% |
  Calculate projections:                     0.000     0.000   0.0% |
  DenseAtomicCorrection:                     0.000     0.000   0.0% |
  Distribute overlap matrix:                 3.398     3.398   0.0% |
  Orbital Layouts:                           0.061     0.061   0.0% |
  Potential matrix:                          0.106     0.106   0.0% |
  Sum over cells:                            0.018     0.018   0.0% |
 LCAO to grid:                               4.495     4.495   0.0% |
 Set positions (LCAO WFS):                   1.449     1.004   0.0% |
  Basic WFS set positions:                   0.014     0.014   0.0% |
  Basis functions set positions:             0.001     0.001   0.0% |
  P tci:                                     0.000     0.000   0.0% |
  ST tci:                                    0.276     0.276   0.0% |
  mktci:                                     0.154     0.154   0.0% |
Redistribute:                                0.008     0.008   0.0% |
SCF-cycle:                               69309.947  1315.511   1.9% ||
 Davidson:                               15389.788  6624.845   9.4% |---|
  Apply hamiltonian:                      1011.039  1011.039   1.4% ||
  Subspace diag:                          2099.360     0.130   0.0% |
   calc_h_matrix:                         1324.945   333.742   0.5% |
    Apply hamiltonian:                     991.203   991.203   1.4% ||
   diagonalize:                             86.747    86.747   0.1% |
   rotate_psi:                             687.539   687.539   1.0% |
  calc. matrices:                         4350.031  2506.059   3.6% ||
   Apply hamiltonian:                     1843.972  1843.972   2.6% ||
  diagonalize:                               4.199     4.199   0.0% |
  rotate_psi:                             1300.314  1300.314   1.8% ||
 Density:                                  433.095     0.020   0.0% |
  Atomic density matrices:                 123.967   123.967   0.2% |
  Mix:                                     144.303   144.303   0.2% |
  Multipole moments:                         1.962     1.962   0.0% |
  Pseudo density:                          162.844   162.828   0.2% |
   Symmetrize density:                       0.016     0.016   0.0% |
 Hamiltonian:                            52150.872     0.123   0.0% |
  Atomic:                                   79.081     1.145   0.0% |
   XC Correction:                           77.937    77.937   0.1% |
  Calculate atomic Hamiltonians:           255.779   255.779   0.4% |
  Communicate:                             259.726   259.726   0.4% |
  Hartree integrate/restrict:               89.249    89.249   0.1% |
  Poisson:                                1950.710   883.520   1.3% ||
   Communicate from 1D:                    139.647   139.647   0.2% |
   Communicate from 2D:                    249.096   249.096   0.4% |
   Communicate to 1D:                       60.281    60.281   0.1% |
   Communicate to 2D:                      223.753   223.753   0.3% |
   FFT 1D:                                 195.941   195.941   0.3% |
   FFT 2D:                                 198.471   198.471   0.3% |
  XC 3D grid:                            49493.794  4740.627   6.7% |--|
   VdW-DF integral:                      44753.167   105.309   0.1% |
    Convolution:                          2894.196  2894.196   4.1% |-|
    FFT:                                   479.104   479.104   0.7% |
    gather:                              36107.605 36107.605  51.2% |-------------------|
    hmm1:                                  479.673   479.673   0.7% |
    hmm2:                                  639.980   639.980   0.9% |
    iFFT:                                  505.180   505.180   0.7% |
    potential:                            3542.114    40.522   0.1% |
     collect:                              329.836   329.836   0.5% |
     p1:                                  1406.153  1406.153   2.0% ||
     p2:                                   908.917   908.917   1.3% ||
     sum:                                  856.686   856.686   1.2% |
    splines:                                 0.005     0.005   0.0% |
  vbar:                                     22.410    22.410   0.0% |
 Orthonormalize:                            20.680     0.002   0.0% |
  calc_s_matrix:                             2.693     2.693   0.0% |
  inverse-cholesky:                          0.870     0.870   0.0% |
  projections:                              10.278    10.278   0.0% |
  rotate_psi_s:                              6.837     6.837   0.0% |
Set symmetry:                                0.003     0.003   0.0% |
Other:                                     210.677   210.677   0.3% |
-------------------------------------------------------------------
Total:                                             70557.097 100.0%

Memory usage: 1.44 GiB
Date: Wed Mar  1 21:53:03 2023
