
  ___ ___ ___ _ _ _  
 |   |   |_  | | | | 
 | | | | | . | | | | 
 |__ |  _|___|_____|  22.8.0
 |___|_|             

User:   vazumah@r384.ib.bridges2.psc.edu
Date:   Wed Mar  8 22:15:15 2023
Arch:   x86_64
Pid:    49109
CWD:    /jet/home/vazumah/Calcs/N2_with_proton_donor/CH3CH2OH_x/ontop/9.702_9.702/N2_y
Python: 3.11.0
gpaw:   /jet/home/vazumah/.conda/envs/GPAW_mpich/lib/python3.11/site-packages/gpaw
_gpaw:  /jet/home/vazumah/.conda/envs/GPAW_mpich/lib/python3.11/site-packages/
        _gpaw.cpython-311-x86_64-linux-gnu.so
ase:    /jet/home/vazumah/.conda/envs/GPAW_mpich/lib/python3.11/site-packages/ase (version 3.22.1)
numpy:  /jet/home/vazumah/.conda/envs/GPAW_mpich/lib/python3.11/site-packages/numpy (version 1.24.2)
scipy:  /jet/home/vazumah/.conda/envs/GPAW_mpich/lib/python3.11/site-packages/scipy (version 1.10.1)
libxc:  5.2.3
units:  Angstrom and eV
cores: 128
OpenMP: True
OMP_NUM_THREADS: 1

Input parameters:
  h: 0.16
  kpts: {size: [4, 4, 1]}
  occupations: {name: fermi-dirac,
                width: 0.05}
  poissonsolver: {dipolelayer: xy}
  xc: BEEF-vdW

System changes: positions, numbers, cell, pbc, initial_charges, initial_magmoms 

Initialize ...

species:
  Li:
    name: Lithium
    id: 830b4218f175192f93f959cfc0aad614
    Z: 3.0
    valence: 1
    core: 2
    charge: 0.0
    file: /jet/home/vazumah/datasets/gpaw-setups-0.9.20000/Li.PBE.gz
    compensation charges: {type: gauss,
                           rc: 0.33,
                           lmax: 2}
    cutoffs: {filter: 1.91,
              core: 2.55}
    valence states:
      #              energy  rcut
      - 2s(1.00)    -2.874   1.058
      - 2p(0.00)    -1.090   1.058
      -  s          24.337   1.058
  
    # Using partial waves for Li as LCAO basis

  O:
    name: Oxygen
    id: 32ecd46bf208036f09c70b0ec9a88b78
    Z: 8.0
    valence: 6
    core: 2
    charge: 0.0
    file: /jet/home/vazumah/datasets/gpaw-setups-0.9.20000/O.PBE.gz
    compensation charges: {type: gauss,
                           rc: 0.21,
                           lmax: 2}
    cutoffs: {filter: 1.17,
              core: 0.83}
    valence states:
      #              energy  rcut
      - 2s(2.00)   -23.961   0.688
      - 2p(4.00)    -9.029   0.598
      -  s           3.251   0.688
      -  p          18.182   0.598
      -  d           0.000   0.619
  
    # Using partial waves for O as LCAO basis

  C:
    name: Carbon
    id: 4aa54d4b901d75f77cc0ea3eec22967b
    Z: 6.0
    valence: 4
    core: 2
    charge: 0.0
    file: /jet/home/vazumah/datasets/gpaw-setups-0.9.20000/C.PBE.gz
    compensation charges: {type: gauss,
                           rc: 0.20,
                           lmax: 2}
    cutoffs: {filter: 1.14,
              core: 1.14}
    valence states:
      #              energy  rcut
      - 2s(2.00)   -13.751   0.635
      - 2p(2.00)    -5.284   0.635
      -  s          13.461   0.635
      -  p          21.927   0.635
      -  d           0.000   0.635
  
    # Using partial waves for C as LCAO basis

  H:
    name: Hydrogen
    id: d65de229564ff8ea4db303e23b6d1ecf
    Z: 1.0
    valence: 1
    core: 0
    charge: 0.0
    file: /jet/home/vazumah/datasets/gpaw-setups-0.9.20000/H.PBE.gz
    compensation charges: {type: gauss,
                           rc: 0.15,
                           lmax: 2}
    cutoffs: {filter: 0.85,
              core: 0.53}
    valence states:
      #              energy  rcut
      - 1s(1.00)    -6.494   0.476
      -  s          20.717   0.476
      -  p           0.000   0.476
  
    # Using partial waves for H as LCAO basis

  N:
    name: Nitrogen
    id: f7500608b86eaa90eef8b1d9a670dc53
    Z: 7.0
    valence: 5
    core: 2
    charge: 0.0
    file: /jet/home/vazumah/datasets/gpaw-setups-0.9.20000/N.PBE.gz
    compensation charges: {type: gauss,
                           rc: 0.18,
                           lmax: 2}
    cutoffs: {filter: 1.11,
              core: 0.96}
    valence states:
      #              energy  rcut
      - 2s(2.00)   -18.583   0.603
      - 2p(3.00)    -7.089   0.529
      -  s           8.629   0.603
      -  p          20.123   0.529
      -  d           0.000   0.577
  
    # Using partial waves for N as LCAO basis

Reference energy: -14434.854043  # eV

Spin-paired calculation

Convergence criteria:
 Maximum [total energy] change in last 3 cyles: 0.0005 eV / electron
 Maximum integral of absolute [dens]ity change: 0.0001 electrons / valence electron
 Maximum integral of absolute [eigenst]ate change: 4e-08 eV^2 / valence electron
 Maximum number of scf [iter]ations: 333
 (Square brackets indicate name in SCF output, whereas a 'c' in
 the SCF output indicates the quantity has converged.)

Symmetries present (total): 1

  ( 1  0  0)
  ( 0  1  0)
  ( 0  0  1)

16 k-points: 4 x 4 x 1 Monkhorst-Pack grid
8 k-points in the irreducible part of the Brillouin zone
       k-points in crystal coordinates                weights
   0:     0.12500000   -0.37500000    0.00000000          2/16
   1:     0.12500000   -0.12500000    0.00000000          2/16
   2:     0.12500000    0.12500000    0.00000000          2/16
   3:     0.12500000    0.37500000    0.00000000          2/16
   4:     0.37500000   -0.37500000    0.00000000          2/16
   5:     0.37500000   -0.12500000    0.00000000          2/16
   6:     0.37500000    0.12500000    0.00000000          2/16
   7:     0.37500000    0.37500000    0.00000000          2/16

Wave functions: Uniform real-space grid
  Kinetic energy operator: 6*3+1=19 point O(h^6) finite-difference Laplacian
  ScaLapack parameters: grid=1x1, blocksize=None
  Wavefunction extrapolation:
    Improved wavefunction reuse through dual PAW basis 

Occupation numbers: Fermi-Dirac:
  width: 0.0500  # eV
 

Eigensolver
   Davidson(niter=2) 

Densities:
  Coarse grid: 60*60*164 grid
  Fine grid: 120*120*328 grid
  Total Charge: 0.000000 

Density mixing:
  Method: separate
  Backend: pulay
  Linear mixing parameter: 0.05
  old densities: 5
  Damping of long wavelength oscillations: 50 

Hamiltonian:
  XC and Coulomb potentials evaluated on a 120*120*328 grid
  Using the BEEF-vdW Exchange-Correlation functional
  Interpolation: tri-quintic (5. degree polynomial)
  Poisson solver: FastPoissonSolver using
    Stencil: 6*3+1=19 point O(h^6) finite-difference Laplacian
    FFT axes: [0, 1]
    FST axes: [2]

Dipole correction along z-axis 

XC parameters: BEEF-vdW with 2 nearest neighbor stencil

Memory estimate:
  Process memory now: 128.61 MiB
  Calculator: 80.22 MiB
    Density: 22.47 MiB
      Arrays: 7.22 MiB
      Localized functions: 12.50 MiB
      Mixer: 2.75 MiB
    Hamiltonian: 5.71 MiB
      Arrays: 4.72 MiB
      XC: 0.00 MiB
      Poisson: 0.00 MiB
      vbar: 0.99 MiB
    Wavefunctions: 52.04 MiB
      Arrays psit_nG: 24.17 MiB
      Eigensolver: 27.21 MiB
      Projections: 0.01 MiB
      Projectors: 0.65 MiB

Total number of cores used: 128
Parallelization over k-points: 8
Domain decomposition: 2 x 2 x 4

Number of atoms: 47
Number of atomic orbitals: 170
Number of bands in calculation: 44
Number of valence electrons: 66
Bands to converge: occupied

... initialized

Initializing position-dependent things.

Density initialized from atomic densities
Creating initial wave functions:
  44 bands from LCAO basis set

       .-----------------------.  
      /|                       |  
     / |                       |  
    /  |                       |  
   /   |                       |  
  /    |                       |  
 *     |                       |  
 |     |                       |  
 |     |                       |  
 |     |                H      H  
 |     |                 C     |  
 |     |                H      N  
 |     |                       |  
 |     |                       |  
 |     |               H       |  
 |   Li|     Li  H   LiC       |  
 |     |               H O     |  
 | Li  |  LLi     LLi     Ni   |  
 |     |                       |  
 Li    |LLi     LLi     Li     |  
 |   Li|     Li      Li        |  
 |    Li  Li  Li  Li  Li  Li   |  
 | Li  |   Li      Li          |  
 |     |Li      Li      Li     |  
 Li    | Li      Li            |  
 |    Li      Li      Li       |  
 |     |                       |  
 |     |                       |  
 |     |                       |  
 |     |                       |  
 |     |                       |  
 |     |                       |  
 |     .-----------------------.  
 |    /                       /   
 |   /                       /    
 |  /                       /     
 | /                       /      
 |/                       /       
 *-----------------------*        

Positions:
   0 Li     1.617037    1.617037   10.000000    ( 0.0000,  0.0000,  0.0000)
   1 Li     4.851111    1.617037   10.000000    ( 0.0000,  0.0000,  0.0000)
   2 Li     8.085185    1.617037   10.000000    ( 0.0000,  0.0000,  0.0000)
   3 Li     1.617037    4.851111   10.000000    ( 0.0000,  0.0000,  0.0000)
   4 Li     4.851111    4.851111   10.000000    ( 0.0000,  0.0000,  0.0000)
   5 Li     8.085185    4.851111   10.000000    ( 0.0000,  0.0000,  0.0000)
   6 Li     1.617037    8.085185   10.000000    ( 0.0000,  0.0000,  0.0000)
   7 Li     4.851111    8.085185   10.000000    ( 0.0000,  0.0000,  0.0000)
   8 Li     8.085185    8.085185   10.000000    ( 0.0000,  0.0000,  0.0000)
   9 Li     0.000000    0.000000   11.617037    ( 0.0000,  0.0000,  0.0000)
  10 Li     3.234074    0.000000   11.617037    ( 0.0000,  0.0000,  0.0000)
  11 Li     6.468148    0.000000   11.617037    ( 0.0000,  0.0000,  0.0000)
  12 Li     0.000000    3.234074   11.617037    ( 0.0000,  0.0000,  0.0000)
  13 Li     3.234074    3.234074   11.617037    ( 0.0000,  0.0000,  0.0000)
  14 Li     6.468148    3.234074   11.617037    ( 0.0000,  0.0000,  0.0000)
  15 Li     0.000000    6.468148   11.617037    ( 0.0000,  0.0000,  0.0000)
  16 Li     3.234074    6.468148   11.617037    ( 0.0000,  0.0000,  0.0000)
  17 Li     6.468148    6.468148   11.617037    ( 0.0000,  0.0000,  0.0000)
  18 Li     1.617038    1.617038   13.469728    ( 0.0000,  0.0000,  0.0000)
  19 Li     4.851111    1.617038   13.469729    ( 0.0000,  0.0000,  0.0000)
  20 Li     8.085184    1.617038   13.469728    ( 0.0000,  0.0000,  0.0000)
  21 Li     1.617038    4.851111   13.469729    ( 0.0000,  0.0000,  0.0000)
  22 Li     4.851111    4.851111   13.469730    ( 0.0000,  0.0000,  0.0000)
  23 Li     8.085184    4.851111   13.469729    ( 0.0000,  0.0000,  0.0000)
  24 Li     1.617038    8.085184   13.469728    ( 0.0000,  0.0000,  0.0000)
  25 Li     4.851111    8.085184   13.469729    ( 0.0000,  0.0000,  0.0000)
  26 Li     8.085184    8.085184   13.469728    ( 0.0000,  0.0000,  0.0000)
  27 Li    -0.000000   -0.000000   15.445939    ( 0.0000,  0.0000,  0.0000)
  28 Li     3.234074    0.000000   15.445939    ( 0.0000,  0.0000,  0.0000)
  29 Li     6.468148    0.000000   15.445939    ( 0.0000,  0.0000,  0.0000)
  30 Li     0.000000    3.234074   15.445939    ( 0.0000,  0.0000,  0.0000)
  31 Li     3.234076    3.234076   15.445938    ( 0.0000,  0.0000,  0.0000)
  32 Li     6.468146    3.234076   15.445938    ( 0.0000,  0.0000,  0.0000)
  33 Li     0.000000    6.468148   15.445939    ( 0.0000,  0.0000,  0.0000)
  34 Li     3.234076    6.468146   15.445938    ( 0.0000,  0.0000,  0.0000)
  35 Li     6.468146    6.468146   15.445938    ( 0.0000,  0.0000,  0.0000)
  36 O      9.702222    9.702222   18.445939    ( 0.0000,  0.0000,  0.0000)
  37 C      8.519814   10.518979   18.450238    ( 0.0000,  0.0000,  0.0000)
  38 C      7.235600    9.699361   18.435704    ( 0.0000,  0.0000,  0.0000)
  39 H      8.528438   11.202515   19.310398    ( 0.0000,  0.0000,  0.0000)
  40 H      8.595203   11.128705   17.547442    ( 0.0000,  0.0000,  0.0000)
  41 H      6.358673   10.353307   18.420269    ( 0.0000,  0.0000,  0.0000)
  42 H      7.200889    9.050338   17.558886    ( 0.0000,  0.0000,  0.0000)
  43 H      7.165412    9.070873   19.328265    ( 0.0000,  0.0000,  0.0000)
  44 H      9.663055    9.119245   19.214164    ( 0.0000,  0.0000,  0.0000)
  45 N      9.702000    9.702000   16.945939    ( 0.0000,  0.0000,  0.0000)
  46 N      9.702000   10.798622   16.945939    ( 0.0000,  0.0000,  0.0000)

Unit cell:
           periodic     x           y           z      points  spacing
  1. axis:    yes    9.702222    0.000000    0.000000    60     0.1617
  2. axis:    yes    0.000000    9.702222    0.000000    60     0.1617
  3. axis:    no     0.000000    0.000000   26.351111   164     0.1607

  Lengths:   9.702222   9.702222  26.351111
  Angles:   90.000000  90.000000  90.000000

Effective grid spacing dv^(1/3) = 0.1614

     iter     time        total  log10-change:
                         energy  eigst   dens
iter:   1 22:15:30  -510.660366
iter:   2 22:15:37  -131.855494  +2.50  -0.02
iter:   3 22:15:44  -161.296520  +3.19  -0.24
iter:   4 22:15:51  -245.106769  +2.90  -0.34
Writing to output.gpw (mode='')

iter:   5 22:15:58  -265.219121  +2.55  -0.41
iter:   6 22:16:05  -295.519421  +2.26  -0.69
iter:   7 22:16:12  -307.184462  +1.88  -0.68
iter:   8 22:16:19  -302.441967  +1.51  -0.62
iter:   9 22:16:26  -302.240799  +1.24  -0.76
Writing to output.gpw (mode='')

iter:  10 22:16:34  -303.581085  +0.91  -0.80
iter:  11 22:16:41  -310.482778  +1.06  -0.80
iter:  12 22:16:48  -309.228124  +0.80  -0.71
iter:  13 22:16:55  -301.720743  +0.93  -0.70
iter:  14 22:17:02  -300.740201  +0.25  -0.80
Writing to output.gpw (mode='')

iter:  15 22:17:09  -300.196021  +0.64  -0.85
iter:  16 22:17:16  -300.879085  +0.66  -1.00
iter:  17 22:17:23  -299.669231  +0.53  -1.05
iter:  18 22:17:30  -299.378288  +0.48  -1.20
iter:  19 22:17:37  -299.258032  +0.07  -1.36
Writing to output.gpw (mode='')

iter:  20 22:17:44  -299.221253  -0.54  -1.44
iter:  21 22:17:52  -299.191080  -0.57  -1.50
iter:  22 22:17:59  -299.205106c -0.55  -1.61
iter:  23 22:18:06  -299.205121c -0.92  -1.78
iter:  24 22:18:13  -299.194312c -1.09  -1.83
Writing to output.gpw (mode='')

iter:  25 22:18:20  -299.207305c -1.19  -2.00
iter:  26 22:18:27  -299.211802c -1.43  -2.19
iter:  27 22:18:34  -299.215980c -1.44  -2.28
iter:  28 22:18:41  -299.219501c -1.54  -2.41
iter:  29 22:18:48  -299.222434c -1.72  -2.44
Writing to output.gpw (mode='')

iter:  30 22:18:55  -299.225275c -1.73  -2.46
iter:  31 22:19:03  -299.228018c -1.70  -2.47
iter:  32 22:19:10  -299.230295c -1.71  -2.48
iter:  33 22:19:17  -299.232102c -1.88  -2.48
iter:  34 22:19:24  -299.234999c -2.11  -2.48
Writing to output.gpw (mode='')

iter:  35 22:19:31  -299.235838c -2.29  -2.52
iter:  36 22:19:43  -299.236566c -2.50  -2.51
iter:  37 22:19:53  -299.238060c -2.22  -2.53
iter:  38 22:20:00  -299.238727c -2.41  -2.58
iter:  39 22:20:07  -299.238712c -2.21  -2.71
Writing to output.gpw (mode='')

iter:  40 22:20:14  -299.239322c -2.67  -2.85
iter:  41 22:20:21  -299.240083c -2.20  -2.91
iter:  42 22:20:28  -299.240327c -2.92  -3.12
iter:  43 22:20:35  -299.240568c -2.85  -3.22
iter:  44 22:20:42  -299.240988c -2.58  -3.37
Writing to output.gpw (mode='')

iter:  45 22:20:49  -299.241247c -2.81  -3.43
iter:  46 22:20:56  -299.241559c -2.74  -3.43
iter:  47 22:21:04  -299.241726c -3.04  -3.45
iter:  48 22:21:11  -299.241877c -3.27  -3.48
iter:  49 22:21:18  -299.242067c -3.03  -3.62
Writing to output.gpw (mode='')

iter:  50 22:21:25  -299.242167c -3.24  -3.85
iter:  51 22:21:32  -299.242254c -3.30  -3.92
iter:  52 22:21:39  -299.242324c -3.45  -3.91
iter:  53 22:21:46  -299.242374c -3.49  -3.88
iter:  54 22:21:53  -299.242434c -3.64  -3.79
Writing to output.gpw (mode='')

iter:  55 22:22:00  -299.242510c -3.32  -3.80
iter:  56 22:22:07  -299.242550c -3.73  -3.80
iter:  57 22:22:15  -299.242575c -3.78  -3.76
iter:  58 22:22:22  -299.242620c -3.75  -3.72
iter:  59 22:22:29  -299.242628c -3.95  -3.73
Writing to output.gpw (mode='')

iter:  60 22:22:36  -299.242669c -3.98  -3.63
iter:  61 22:22:43  -299.242676c -3.73  -3.67
iter:  62 22:22:50  -299.242758c -3.44  -3.60
iter:  63 22:22:57  -299.242750c -4.03  -3.68
iter:  64 22:23:04  -299.242822c -3.75  -3.61
Writing to output.gpw (mode='')

iter:  65 22:23:11  -299.242833c -4.23  -3.70
iter:  66 22:23:19  -299.242850c -4.19  -3.69
iter:  67 22:23:26  -299.242839c -4.39  -3.68
iter:  68 22:23:33  -299.242903c -4.29  -3.64
iter:  69 22:23:40  -299.242866c -4.50  -3.76
Writing to output.gpw (mode='')

iter:  70 22:23:47  -299.242916c -4.29  -3.65
iter:  71 22:23:54  -299.242925c -4.64  -3.75
iter:  72 22:24:01  -299.242958c -4.52  -3.76
iter:  73 22:24:08  -299.242963c -4.53  -3.88
iter:  74 22:24:16  -299.242975c -4.66  -3.97
Writing to output.gpw (mode='')

iter:  75 22:24:23  -299.242963c -5.05  -4.13c
iter:  76 22:24:30  -299.242964c -5.07  -4.18c
iter:  77 22:24:43  -299.242976c -4.81  -4.20c
iter:  78 22:24:52  -299.242970c -5.23  -4.47c
iter:  79 22:24:59  -299.242969c -5.06  -4.55c
Writing to output.gpw (mode='')

iter:  80 22:25:06  -299.242973c -5.12  -4.61c
iter:  81 22:25:13  -299.242972c -5.24  -4.68c
iter:  82 22:25:20  -299.242975c -5.35  -4.71c
iter:  83 22:25:27  -299.242974c -5.20  -4.81c
iter:  84 22:25:34  -299.242975c -5.42  -5.04c
Writing to output.gpw (mode='')

iter:  85 22:25:41  -299.242975c -5.49  -5.16c
iter:  86 22:25:48  -299.242975c -5.54  -5.15c
iter:  87 22:25:56  -299.242976c -5.51  -5.09c
iter:  88 22:26:03  -299.242976c -5.56  -5.09c
iter:  89 22:26:13  -299.242976c -5.50  -5.05c
Writing to output.gpw (mode='')

iter:  90 22:26:20  -299.242976c -5.68  -5.02c
iter:  91 22:26:27  -299.242976c -5.71  -4.99c
iter:  92 22:26:34  -299.242975c -5.98  -4.97c
iter:  93 22:26:42  -299.242975c -5.93  -4.96c
iter:  94 22:26:49  -299.242975c -5.90  -4.93c
Writing to output.gpw (mode='')

iter:  95 22:26:56  -299.242976c -6.08  -4.91c
iter:  96 22:27:03  -299.242975c -6.14  -4.86c
iter:  97 22:27:10  -299.242978c -6.08  -4.81c
iter:  98 22:27:17  -299.242978c -6.33  -5.02c
iter:  99 22:27:24  -299.242978c -6.08  -5.02c
Writing to output.gpw (mode='')

iter: 100 22:27:31  -299.242979c -6.09  -5.08c
iter: 101 22:27:38  -299.242980c -6.30  -5.10c
iter: 102 22:27:46  -299.242980c -6.23  -5.08c
iter: 103 22:27:53  -299.242981c -6.33  -5.05c
iter: 104 22:28:00  -299.242981c -6.22  -5.11c
Writing to output.gpw (mode='')

iter: 105 22:28:07  -299.242981c -6.39  -5.20c
iter: 106 22:28:14  -299.242981c -6.57  -5.29c
iter: 107 22:28:21  -299.242982c -6.73  -5.40c
iter: 108 22:28:28  -299.242981c -6.47  -5.45c
iter: 109 22:28:35  -299.242981c -6.84  -5.53c
Writing to output.gpw (mode='')

iter: 110 22:28:43  -299.242981c -6.71  -5.60c
iter: 111 22:28:50  -299.242982c -6.92  -5.67c
iter: 112 22:28:57  -299.242982c -6.98  -5.83c
iter: 113 22:29:04  -299.242982c -6.93  -5.85c
iter: 114 22:29:11  -299.242982c -7.15  -5.84c
Writing to output.gpw (mode='')

iter: 115 22:29:18  -299.242982c -7.19  -6.06c
iter: 116 22:29:25  -299.242982c -7.18  -6.17c
iter: 117 22:29:32  -299.242981c -7.13  -6.19c
iter: 118 22:29:43  -299.242982c -7.18  -6.21c
iter: 119 22:29:52  -299.242982c -7.46c -6.26c

Converged after 119 iterations.

Dipole moment: (-12.824051, -14.390469, 0.530451) |e|*Ang

Energy contributions relative to reference atoms: (reference = -14434.854043)

Kinetic:       +200.967377
Potential:     -177.192014
External:        +0.000000
XC:            -323.713369
Entropy (-ST):   -0.151037
Local:           +0.770543
--------------------------
Free energy:   -299.318500
Extrapolated:  -299.242982

Dipole-layer corrected work functions: 3.375349, 2.355639 eV

Showing only first 2 kpts
 Kpt  Band  Eigenvalues  Occupancy
  0    31     -3.11696    1.98700
  0    32     -3.00416    1.88244
  0    33     -2.73211    0.12982
  0    34     -2.62879    0.01743

  1    31     -2.92611    1.54145
  1    32     -2.88267    1.17008
  1    33     -2.81498    0.53385
  1    34     -2.76371    0.23103


Fermi level: -2.86549

Gap: 0.019 eV
Transition (v -> c):
  (s=0, k=1, n=32, [0.12, -0.12, 0.00]) -> (s=0, k=7, n=33, [0.38, 0.38, 0.00])
Writing to output.gpw (mode='')


Forces in eV/Ang:
  0 Li    0.01347    0.00562   -0.27741
  1 Li    0.00145   -0.00271   -0.26226
  2 Li   -0.01549    0.00785   -0.27402
  3 Li   -0.00420    0.00661   -0.26629
  4 Li    0.00112   -0.00035   -0.28162
  5 Li    0.00503    0.00300   -0.26374
  6 Li    0.00726   -0.01383   -0.27641
  7 Li   -0.00174    0.00693   -0.26159
  8 Li   -0.00545   -0.01280   -0.27536
  9 Li    0.00317    0.00544    0.34534
 10 Li    0.01769   -0.00172    0.25278
 11 Li   -0.01809   -0.00092    0.25590
 12 Li   -0.00295    0.00541    0.27488
 13 Li    0.00809    0.00183    0.26701
 14 Li   -0.00621    0.00469    0.25682
 15 Li    0.00136   -0.00462    0.24817
 16 Li   -0.00751   -0.00294    0.25805
 17 Li    0.00461   -0.00659    0.26035
 18 Li    0.03647    0.01259   -0.09307
 19 Li    0.00338   -0.01293    0.08588
 20 Li   -0.04003    0.00999   -0.05357
 21 Li   -0.02018   -0.00901    0.06970
 22 Li   -0.00288    0.01076   -0.00659
 23 Li    0.02186   -0.01172    0.07926
 24 Li    0.01585   -0.00553   -0.03340
 25 Li   -0.00088    0.00274    0.07367
 26 Li   -0.01548    0.00175   -0.02085
 27 Li    0.01434   -0.81086   -7.12128
 28 Li    0.10064   -0.02056   -0.06330
 29 Li   -0.17880    0.00074   -0.21786
 30 Li    0.02470   -0.16926    0.11105
 31 Li    0.05419    0.03787   -0.02563
 32 Li   -0.05761    0.05787   -0.07021
 33 Li   -0.00217   -0.06488   -0.05125
 34 Li    0.01699   -0.01084   -0.02392
 35 Li   -0.01517   -0.04231   -0.05076
 36 O    -0.25907   -1.62898    9.88685
 37 C    -4.69869    0.94468    5.39099
 38 C     0.16004   -0.07980    0.32409
 39 H     0.22930   -0.21874    0.00117
 40 H    -2.19795    1.13610    1.73941
 41 H     0.17834    0.06926   -0.02916
 42 H    -0.01288   -0.19280   -0.00063
 43 H    -0.11525   -0.15918   -0.04748
 44 H    -0.18010   -1.35941    1.14777
 45 N     2.34876   -7.84088   -2.26424
 46 N     4.60627   10.31847   -8.69115

System changes: positions 

Initializing position-dependent things.

Density initialized from wave functions
       .-----------------------.  
      /|                       |  
     / |                       |  
    /  |                       |  
   /   |                       |  
  /    |                       |  
 *     |                       |  
 |     |                       |  
 |     |                       |  
 |     |                H      H  
 |     |                 C     O  
 |     N                H      |  
 |     |                       |  
 |     Li      Li              |  
 |     |               H       |  
 |     |     Li  H   LiC     Li|  
 |     |               H       |  
 |NLi  |  LLi     LLi     Li   |  
 |     |                       |  
 |     |Li      LLi     Li     |  
 |   Li|     Li      Li        |  
 |    Li  Li  Li  Li  Li  Li   |  
 | Li  |   Li      Li          |  
 |     |Li      Li      Li     |  
 Li    | Li      Li            |  
 |    Li      Li      Li       |  
 |     |                       |  
 |     |                       |  
 |     |                       |  
 |     |                       |  
 |     |                       |  
 |     |                       |  
 |     .-----------------------.  
 |    /                       /   
 |   /                       /    
 |  /                       /     
 | /                       /      
 |/                       /       
 *-----------------------*        

Positions:
   0 Li     1.617037    1.617037   10.000000    ( 0.0000,  0.0000,  0.0000)
   1 Li     4.851111    1.617037   10.000000    ( 0.0000,  0.0000,  0.0000)
   2 Li     8.085185    1.617037   10.000000    ( 0.0000,  0.0000,  0.0000)
   3 Li     1.617037    4.851111   10.000000    ( 0.0000,  0.0000,  0.0000)
   4 Li     4.851111    4.851111   10.000000    ( 0.0000,  0.0000,  0.0000)
   5 Li     8.085185    4.851111   10.000000    ( 0.0000,  0.0000,  0.0000)
   6 Li     1.617037    8.085185   10.000000    ( 0.0000,  0.0000,  0.0000)
   7 Li     4.851111    8.085185   10.000000    ( 0.0000,  0.0000,  0.0000)
   8 Li     8.085185    8.085185   10.000000    ( 0.0000,  0.0000,  0.0000)
   9 Li     0.000000    0.000000   11.617037    ( 0.0000,  0.0000,  0.0000)
  10 Li     3.234074    0.000000   11.617037    ( 0.0000,  0.0000,  0.0000)
  11 Li     6.468148    0.000000   11.617037    ( 0.0000,  0.0000,  0.0000)
  12 Li     0.000000    3.234074   11.617037    ( 0.0000,  0.0000,  0.0000)
  13 Li     3.234074    3.234074   11.617037    ( 0.0000,  0.0000,  0.0000)
  14 Li     6.468148    3.234074   11.617037    ( 0.0000,  0.0000,  0.0000)
  15 Li     0.000000    6.468148   11.617037    ( 0.0000,  0.0000,  0.0000)
  16 Li     3.234074    6.468148   11.617037    ( 0.0000,  0.0000,  0.0000)
  17 Li     6.468148    6.468148   11.617037    ( 0.0000,  0.0000,  0.0000)
  18 Li     1.617140    1.617073   13.469467    ( 0.0000,  0.0000,  0.0000)
  19 Li     4.851120    1.617002   13.469970    ( 0.0000,  0.0000,  0.0000)
  20 Li     8.085072    1.617066   13.469578    ( 0.0000,  0.0000,  0.0000)
  21 Li     1.616982    4.851086   13.469925    ( 0.0000,  0.0000,  0.0000)
  22 Li     4.851103    4.851141   13.469712    ( 0.0000,  0.0000,  0.0000)
  23 Li     8.085245    4.851078   13.469952    ( 0.0000,  0.0000,  0.0000)
  24 Li     1.617083    8.085168   13.469634    ( 0.0000,  0.0000,  0.0000)
  25 Li     4.851109    8.085191   13.469936    ( 0.0000,  0.0000,  0.0000)
  26 Li     8.085140    8.085189   13.469669    ( 0.0000,  0.0000,  0.0000)
  27 Li     0.000040   -0.002275   15.425958    ( 0.0000,  0.0000,  0.0000)
  28 Li     3.234356   -0.000058   15.445761    ( 0.0000,  0.0000,  0.0000)
  29 Li     6.467647    0.000002   15.445328    ( 0.0000,  0.0000,  0.0000)
  30 Li     0.000069    3.233599   15.446250    ( 0.0000,  0.0000,  0.0000)
  31 Li     3.234228    3.234183   15.445866    ( 0.0000,  0.0000,  0.0000)
  32 Li     6.467984    3.234239   15.445741    ( 0.0000,  0.0000,  0.0000)
  33 Li    -0.000006    6.467966   15.445795    ( 0.0000,  0.0000,  0.0000)
  34 Li     3.234124    6.468115   15.445871    ( 0.0000,  0.0000,  0.0000)
  35 Li     6.468103    6.468027   15.445796    ( 0.0000,  0.0000,  0.0000)
  36 O      9.701495    9.697651   18.473681    ( 0.0000,  0.0000,  0.0000)
  37 C      8.506630   10.521630   18.465364    ( 0.0000,  0.0000,  0.0000)
  38 C      7.236049    9.699137   18.436613    ( 0.0000,  0.0000,  0.0000)
  39 H      8.529081   11.201901   19.310401    ( 0.0000,  0.0000,  0.0000)
  40 H      8.589036   11.131893   17.552323    ( 0.0000,  0.0000,  0.0000)
  41 H      6.359174   10.353502   18.420187    ( 0.0000,  0.0000,  0.0000)
  42 H      7.200852    9.049797   17.558884    ( 0.0000,  0.0000,  0.0000)
  43 H      7.165089    9.070427   19.328132    ( 0.0000,  0.0000,  0.0000)
  44 H      9.662550    9.115431   19.217385    ( 0.0000,  0.0000,  0.0000)
  45 N      9.708590    9.679999   16.939586    ( 0.0000,  0.0000,  0.0000)
  46 N      9.714925   10.827574   16.921553    ( 0.0000,  0.0000,  0.0000)

Unit cell:
           periodic     x           y           z      points  spacing
  1. axis:    yes    9.702222    0.000000    0.000000    60     0.1617
  2. axis:    yes    0.000000    9.702222    0.000000    60     0.1617
  3. axis:    no     0.000000    0.000000   26.351111   164     0.1607

  Lengths:   9.702222   9.702222  26.351111
  Angles:   90.000000  90.000000  90.000000

Effective grid spacing dv^(1/3) = 0.1614

     iter     time        total  log10-change:
                         energy  eigst   dens
iter:   1 22:30:00  -301.728279  -0.11
iter:   2 22:30:07  -300.791033  -0.32  -1.29
iter:   3 22:30:15  -300.627346  -0.76  -1.31
iter:   4 22:30:22  -300.511800  -0.69  -1.47
Writing to output.gpw (mode='')

iter:   5 22:30:29  -300.442337  -1.10  -1.76
iter:   6 22:30:36  -300.505591  -1.05  -1.83
iter:   7 22:30:44  -300.550132  -0.96  -1.62
iter:   8 22:30:51  -300.491984  -1.82  -1.85
iter:   9 22:30:58  -300.408970  -1.62  -1.89
Writing to output.gpw (mode='')

iter:  10 22:31:05  -300.388394  -1.33  -2.10
iter:  11 22:31:12  -300.410125c -2.05  -2.19
iter:  12 22:31:19  -300.402219c -2.45  -2.14
iter:  13 22:31:26  -300.384936c -2.03  -2.23
iter:  14 22:31:34  -300.384830c -2.70  -2.65
Writing to output.gpw (mode='')

iter:  15 22:31:41  -300.385395c -2.88  -2.80
iter:  16 22:31:48  -300.385027c -2.91  -2.93
iter:  17 22:31:55  -300.385729c -3.46  -2.95
iter:  18 22:32:02  -300.385344c -3.63  -3.00
iter:  19 22:32:09  -300.385406c -3.40  -3.11
Writing to output.gpw (mode='')

iter:  20 22:32:16  -300.385283c -4.01  -3.08
iter:  21 22:32:24  -300.385412c -4.15  -3.25
iter:  22 22:32:31  -300.385329c -3.99  -3.36
iter:  23 22:32:38  -300.385337c -4.13  -3.67
iter:  24 22:32:45  -300.385402c -4.42  -3.73
Writing to output.gpw (mode='')

iter:  25 22:32:52  -300.385376c -4.57  -3.80
iter:  26 22:32:59  -300.385391c -4.61  -3.86
iter:  27 22:33:06  -300.385419c -4.98  -4.08c
iter:  28 22:33:14  -300.385409c -5.07  -4.12c
iter:  29 22:33:21  -300.385414c -5.21  -4.12c
Writing to output.gpw (mode='')

iter:  30 22:33:28  -300.385413c -5.07  -4.19c
iter:  31 22:33:35  -300.385418c -5.14  -4.28c
iter:  32 22:33:42  -300.385417c -5.64  -4.42c
iter:  33 22:33:49  -300.385422c -5.60  -4.49c
iter:  34 22:33:56  -300.385421c -5.73  -4.63c
Writing to output.gpw (mode='')

iter:  35 22:34:04  -300.385419c -5.76  -4.67c
iter:  36 22:34:11  -300.385421c -5.83  -4.83c
iter:  37 22:34:18  -300.385424c -5.91  -4.87c
iter:  38 22:34:25  -300.385425c -6.08  -4.96c
iter:  39 22:34:32  -300.385426c -6.18  -5.09c
Writing to output.gpw (mode='')

iter:  40 22:34:46  -300.385426c -6.47  -5.14c
iter:  41 22:34:54  -300.385426c -6.50  -5.14c
iter:  42 22:35:01  -300.385428c -6.55  -5.22c
iter:  43 22:35:08  -300.385427c -6.59  -5.32c
iter:  44 22:35:15  -300.385427c -6.73  -5.42c
Writing to output.gpw (mode='')

iter:  45 22:35:23  -300.385427c -6.60  -5.42c
iter:  46 22:35:30  -300.385428c -6.77  -5.50c
iter:  47 22:35:37  -300.385427c -6.94  -5.56c
iter:  48 22:35:44  -300.385427c -6.99  -5.56c
iter:  49 22:35:51  -300.385428c -6.79  -5.60c
Writing to output.gpw (mode='')

iter:  50 22:35:58  -300.385428c -7.09  -5.58c
iter:  51 22:36:05  -300.385428c -7.34  -5.52c
iter:  52 22:36:13  -300.385428c -7.40c -5.86c

Converged after 52 iterations.

Dipole moment: (-14.692405, -11.540002, 0.503116) |e|*Ang

Energy contributions relative to reference atoms: (reference = -14434.854043)

Kinetic:       +190.679675
Potential:     -169.600461
External:        +0.000000
XC:            -322.159936
Entropy (-ST):   -0.153454
Local:           +0.772022
--------------------------
Free energy:   -300.462155
Extrapolated:  -300.385428

Dipole-layer corrected work functions: 3.379130, 2.411969 eV

Showing only first 2 kpts
 Kpt  Band  Eigenvalues  Occupancy
  0    31     -3.14550    1.98660
  0    32     -3.02933    1.87114
  0    33     -2.78591    0.20081
  0    34     -2.65857    0.01733

  1    31     -2.96688    1.61271
  1    32     -2.90952    1.13878
  1    33     -2.82913    0.41883
  1    34     -2.78547    0.19923


Fermi level: -2.89555

Gap: 0.020 eV
Transition (v -> c):
  (s=0, k=1, n=32, [0.12, -0.12, 0.00]) -> (s=0, k=7, n=33, [0.38, 0.38, 0.00])
Writing to output.gpw (mode='')


Forces in eV/Ang:
  0 Li    0.01397    0.00640   -0.27964
  1 Li    0.00111   -0.00271   -0.26140
  2 Li   -0.01578    0.00815   -0.27651
  3 Li   -0.00443    0.00677   -0.26580
  4 Li    0.00138   -0.00016   -0.28302
  5 Li    0.00501    0.00419   -0.26312
  6 Li    0.00720   -0.01490   -0.27869
  7 Li   -0.00109    0.00660   -0.26120
  8 Li   -0.00613   -0.01442   -0.27838
  9 Li    0.00328    0.00530    0.35366
 10 Li    0.01624   -0.00122    0.25611
 11 Li   -0.01651   -0.00064    0.25838
 12 Li   -0.00250    0.00585    0.27757
 13 Li    0.00921    0.00211    0.26787
 14 Li   -0.00796    0.00442    0.25725
 15 Li    0.00136   -0.00473    0.24751
 16 Li   -0.00669   -0.00381    0.25737
 17 Li    0.00376   -0.00686    0.25929
 18 Li    0.03948    0.01740   -0.10489
 19 Li    0.00351   -0.01448    0.08798
 20 Li   -0.04313    0.01510   -0.06926
 21 Li   -0.02149   -0.00763    0.06905
 22 Li   -0.00270    0.01003   -0.00543
 23 Li    0.02342   -0.01126    0.07989
 24 Li    0.02031   -0.01316   -0.04995
 25 Li   -0.00159    0.00628    0.07572
 26 Li   -0.01937   -0.00494   -0.03499
 27 Li   -0.01919   -0.71524   -6.59272
 28 Li    0.08128   -0.01636   -0.04413
 29 Li   -0.16383   -0.00122   -0.19705
 30 Li    0.02869   -0.23724    0.16952
 31 Li    0.05344    0.03909   -0.02196
 32 Li   -0.06056    0.06261   -0.07104
 33 Li   -0.00350   -0.05656   -0.04491
 34 Li    0.02145   -0.01488   -0.02696
 35 Li   -0.01781   -0.04465   -0.05192
 36 O    -0.50235   -0.15507    7.38910
 37 C    -3.76507    0.60903    4.40025
 38 C    -0.00772   -0.10431    0.38788
 39 H     0.12902    0.01784    0.35484
 40 H    -1.77908    0.82278    1.67794
 41 H     0.14174    0.04115   -0.01772
 42 H     0.03120   -0.14413    0.02225
 43 H    -0.16570   -0.18959   -0.02885
 44 H    -0.26720   -1.87389    1.72849
 45 N     2.27801   -2.25586   -1.57623
 46 N     4.02244    4.26799   -7.47614

System changes: positions 

Initializing position-dependent things.

Density initialized from wave functions
       .-----------------------.  
      /|                       |  
     / |                       |  
    /  |                       |  
   /   |                       |  
  /    |                       |  
 *     |                       |  
 |     |                       |  
 |     |                       |  
 |     |                H      H  
 |     |                 C     O  
 |     N                H      |  
 |     |                       |  
 |     |       Li      Li      Li 
 |     |               H       |  
 |     |     Li  H   LiC     Li|  
 |     |               H       |  
 |NLi  |  LLi     LLi     Li   |  
 |     |                       |  
 |     |Li      Li      Li     |  
 |   Li|     Li      Li        |  
 |    Li  Li  Li  Li  Li  Li   |  
 | Li  |   Li      Li          |  
 |     |Li      Li      Li     |  
 Li    | Li      Li            |  
 |    Li      Li      Li       |  
 |     |                       |  
 |     |                       |  
 |     |                       |  
 |     |                       |  
 |     |                       |  
 |     |                       |  
 |     .-----------------------.  
 |    /                       /   
 |   /                       /    
 |  /                       /     
 | /                       /      
 |/                       /       
 *-----------------------*        

Positions:
   0 Li     1.617037    1.617037   10.000000    ( 0.0000,  0.0000,  0.0000)
   1 Li     4.851111    1.617037   10.000000    ( 0.0000,  0.0000,  0.0000)
   2 Li     8.085185    1.617037   10.000000    ( 0.0000,  0.0000,  0.0000)
   3 Li     1.617037    4.851111   10.000000    ( 0.0000,  0.0000,  0.0000)
   4 Li     4.851111    4.851111   10.000000    ( 0.0000,  0.0000,  0.0000)
   5 Li     8.085185    4.851111   10.000000    ( 0.0000,  0.0000,  0.0000)
   6 Li     1.617037    8.085185   10.000000    ( 0.0000,  0.0000,  0.0000)
   7 Li     4.851111    8.085185   10.000000    ( 0.0000,  0.0000,  0.0000)
   8 Li     8.085185    8.085185   10.000000    ( 0.0000,  0.0000,  0.0000)
   9 Li     0.000000    0.000000   11.617037    ( 0.0000,  0.0000,  0.0000)
  10 Li     3.234074    0.000000   11.617037    ( 0.0000,  0.0000,  0.0000)
  11 Li     6.468148    0.000000   11.617037    ( 0.0000,  0.0000,  0.0000)
  12 Li     0.000000    3.234074   11.617037    ( 0.0000,  0.0000,  0.0000)
  13 Li     3.234074    3.234074   11.617037    ( 0.0000,  0.0000,  0.0000)
  14 Li     6.468148    3.234074   11.617037    ( 0.0000,  0.0000,  0.0000)
  15 Li     0.000000    6.468148   11.617037    ( 0.0000,  0.0000,  0.0000)
  16 Li     3.234074    6.468148   11.617037    ( 0.0000,  0.0000,  0.0000)
  17 Li     6.468148    6.468148   11.617037    ( 0.0000,  0.0000,  0.0000)
  18 Li     1.617353    1.617177   13.468892    ( 0.0000,  0.0000,  0.0000)
  19 Li     4.851139    1.616923   13.470430    ( 0.0000,  0.0000,  0.0000)
  20 Li     8.084840    1.617159   13.469175    ( 0.0000,  0.0000,  0.0000)
  21 Li     1.616867    4.851051   13.470279    ( 0.0000,  0.0000,  0.0000)
  22 Li     4.851090    4.851191   13.469687    ( 0.0000,  0.0000,  0.0000)
  23 Li     8.085370    4.851021   13.470365    ( 0.0000,  0.0000,  0.0000)
  24 Li     1.617200    8.085078   13.469328    ( 0.0000,  0.0000,  0.0000)
  25 Li     4.851098    8.085234   13.470332    ( 0.0000,  0.0000,  0.0000)
  26 Li     8.085029    8.085144   13.469448    ( 0.0000,  0.0000,  0.0000)
  27 Li    -0.000157   -0.005679   15.393551    ( 0.0000,  0.0000,  0.0000)
  28 Li     3.234718   -0.000130   15.445590    ( 0.0000,  0.0000,  0.0000)
  29 Li     6.466847   -0.000010   15.444374    ( 0.0000,  0.0000,  0.0000)
  30 Li     0.000229    3.232177   15.447295    ( 0.0000,  0.0000,  0.0000)
  31 Li     3.234502    3.234388   15.445764    ( 0.0000,  0.0000,  0.0000)
  32 Li     6.467663    3.234575   15.445373    ( 0.0000,  0.0000,  0.0000)
  33 Li    -0.000028    6.467699   15.445582    ( 0.0000,  0.0000,  0.0000)
  34 Li     3.234248    6.468027   15.445723    ( 0.0000,  0.0000,  0.0000)
  35 Li     6.468004    6.467790   15.445525    ( 0.0000,  0.0000,  0.0000)
  36 O      9.698193    9.701180   18.504409    ( 0.0000,  0.0000,  0.0000)
  37 C      8.489977   10.523782   18.485121    ( 0.0000,  0.0000,  0.0000)
  38 C      7.235517    9.698528   18.438799    ( 0.0000,  0.0000,  0.0000)
  39 H      8.529451   11.202687   19.313267    ( 0.0000,  0.0000,  0.0000)
  40 H      8.581102   11.135211   17.560785    ( 0.0000,  0.0000,  0.0000)
  41 H      6.359796   10.353631   18.420130    ( 0.0000,  0.0000,  0.0000)
  42 H      7.201143    9.049198   17.559066    ( 0.0000,  0.0000,  0.0000)
  43 H      7.164087    9.069361   19.328038    ( 0.0000,  0.0000,  0.0000)
  44 H      9.660918    9.104268   19.227993    ( 0.0000,  0.0000,  0.0000)
  45 N      9.720117    9.684776   16.933487    ( 0.0000,  0.0000,  0.0000)
  46 N      9.733930   10.831796   16.886611    ( 0.0000,  0.0000,  0.0000)

Unit cell:
           periodic     x           y           z      points  spacing
  1. axis:    yes    9.702222    0.000000    0.000000    60     0.1617
  2. axis:    yes    0.000000    9.702222    0.000000    60     0.1617
  3. axis:    no     0.000000    0.000000   26.351111   164     0.1607

  Lengths:   9.702222   9.702222  26.351111
  Angles:   90.000000  90.000000  90.000000

Effective grid spacing dv^(1/3) = 0.1614

     iter     time        total  log10-change:
                         energy  eigst   dens
iter:   1 22:36:21  -301.408161  -0.70
iter:   2 22:36:28  -301.388534  -1.09  -1.74
iter:   3 22:36:36  -301.372979  -1.73  -1.83
iter:   4 22:36:43  -301.375129c -1.98  -2.18
Writing to output.gpw (mode='')

iter:   5 22:36:50  -301.365907c -1.86  -2.17
iter:   6 22:36:57  -301.363427c -1.71  -2.34
iter:   7 22:37:04  -301.362278c -2.53  -2.26
iter:   8 22:37:11  -301.362036c -2.64  -2.46
iter:   9 22:37:19  -301.361729c -2.47  -2.54
Writing to output.gpw (mode='')

iter:  10 22:37:26  -301.361305c -2.88  -2.65
iter:  11 22:37:33  -301.361545c -2.78  -2.63
iter:  12 22:37:40  -301.361357c -3.59  -2.72
iter:  13 22:37:47  -301.361093c -2.92  -2.78
iter:  14 22:37:54  -301.361316c -3.52  -2.89
Writing to output.gpw (mode='')

iter:  15 22:38:01  -301.361228c -3.91  -3.06
iter:  16 22:38:09  -301.361137c -3.58  -3.18
iter:  17 22:38:16  -301.361262c -4.03  -3.36
iter:  18 22:38:23  -301.361132c -4.20  -3.42
iter:  19 22:38:30  -301.361170c -4.68  -3.64
Writing to output.gpw (mode='')

iter:  20 22:38:37  -301.361176c -4.93  -3.75
iter:  21 22:38:44  -301.361206c -4.92  -3.81
iter:  22 22:38:51  -301.361186c -4.92  -3.84
iter:  23 22:38:59  -301.361188c -5.22  -3.86
iter:  24 22:39:06  -301.361190c -5.18  -3.92
Writing to output.gpw (mode='')

iter:  25 22:39:13  -301.361186c -5.27  -4.08c
iter:  26 22:39:20  -301.361192c -5.42  -4.13c
iter:  27 22:39:27  -301.361191c -5.56  -4.36c
iter:  28 22:39:34  -301.361191c -5.66  -4.42c
iter:  29 22:39:48  -301.361188c -5.71  -4.51c
Writing to output.gpw (mode='')

iter:  30 22:39:56  -301.361190c -5.90  -4.78c
iter:  31 22:40:03  -301.361191c -6.12  -4.92c
iter:  32 22:40:10  -301.361192c -6.36  -4.95c
iter:  33 22:40:17  -301.361191c -6.30  -4.97c
iter:  34 22:40:24  -301.361190c -6.32  -5.06c
Writing to output.gpw (mode='')

iter:  35 22:40:31  -301.361191c -6.38  -5.19c
iter:  36 22:40:38  -301.361191c -6.51  -5.28c
iter:  37 22:40:46  -301.361191c -6.58  -5.27c
iter:  38 22:40:53  -301.361191c -6.72  -5.21c
iter:  39 22:41:00  -301.361191c -6.97  -5.13c
Writing to output.gpw (mode='')

iter:  40 22:41:07  -301.361191c -6.90  -5.13c
iter:  41 22:41:14  -301.361192c -6.86  -5.16c
iter:  42 22:41:21  -301.361193c -7.04  -5.09c
iter:  43 22:41:28  -301.361193c -7.15  -5.11c
iter:  44 22:41:35  -301.361192c -7.29  -5.11c
Writing to output.gpw (mode='')

iter:  45 22:41:43  -301.361192c -7.16  -5.05c
iter:  46 22:41:50  -301.361193c -7.30  -5.18c
iter:  47 22:42:00  -301.361193c -7.36  -5.15c
iter:  48 22:42:10  -301.361192c -7.49c -5.18c

Converged after 48 iterations.

Dipole moment: (-17.160336, -12.259991, 0.499633) |e|*Ang

Energy contributions relative to reference atoms: (reference = -14434.854043)

Kinetic:       +187.210358
Potential:     -167.614149
External:        +0.000000
XC:            -321.650991
Entropy (-ST):   -0.152151
Local:           +0.769666
--------------------------
Free energy:   -301.437267
Extrapolated:  -301.361192

Dipole-layer corrected work functions: 3.380079, 2.419612 eV

Showing only first 2 kpts
 Kpt  Band  Eigenvalues  Occupancy
  0    31     -3.15082    1.98687
  0    32     -3.03731    1.87974
  0    33     -2.78936    0.19778
  0    34     -2.65967    0.01627

  1    31     -2.97486    1.63526
  1    32     -2.91392    1.13978
  1    33     -2.83024    0.39817
  1    34     -2.79165    0.20608


Fermi level: -2.89985

Gap: 0.019 eV
Transition (v -> c):
  (s=0, k=1, n=32, [0.12, -0.12, 0.00]) -> (s=0, k=7, n=33, [0.38, 0.38, 0.00])
Writing to output.gpw (mode='')


Forces in eV/Ang:
  0 Li    0.01390    0.00660   -0.28053
  1 Li    0.00174   -0.00283   -0.26068
  2 Li   -0.01622    0.00792   -0.27742
  3 Li   -0.00451    0.00718   -0.26526
  4 Li    0.00120   -0.00007   -0.28434
  5 Li    0.00537    0.00446   -0.26203
  6 Li    0.00681   -0.01580   -0.27996
  7 Li   -0.00079    0.00689   -0.26085
  8 Li   -0.00637   -0.01433   -0.27978
  9 Li    0.00325    0.00573    0.35960
 10 Li    0.01625   -0.00125    0.25698
 11 Li   -0.01634   -0.00053    0.25879
 12 Li   -0.00216    0.00634    0.27832
 13 Li    0.01009    0.00250    0.26764
 14 Li   -0.00981    0.00497    0.25624
 15 Li    0.00136   -0.00511    0.24674
 16 Li   -0.00640   -0.00404    0.25681
 17 Li    0.00343   -0.00802    0.25846
 18 Li    0.04394    0.02226   -0.11317
 19 Li    0.00214   -0.01468    0.08728
 20 Li   -0.04738    0.02069   -0.07402
 21 Li   -0.02172   -0.00766    0.06984
 22 Li   -0.00231    0.00966   -0.00590
 23 Li    0.02364   -0.01223    0.07986
 24 Li    0.02526   -0.01897   -0.05895
 25 Li   -0.00229    0.00683    0.07622
 26 Li   -0.02379   -0.01106   -0.04193
 27 Li   -0.06451   -0.74907   -5.90706
 28 Li    0.08218   -0.01617   -0.04351
 29 Li   -0.16018    0.00124   -0.19323
 30 Li    0.02829   -0.24407    0.17386
 31 Li    0.05497    0.04099   -0.02275
 32 Li   -0.05637    0.05951   -0.06941
 33 Li   -0.00383   -0.05652   -0.04368
 34 Li    0.02172   -0.01615   -0.02742
 35 Li   -0.01692   -0.04233   -0.05171
 36 O    -0.70946    0.51156    6.19626
 37 C    -2.75598    0.50787    3.17045
 38 C    -0.20672   -0.14141    0.43283
 39 H    -0.01089    0.27175    0.72989
 40 H    -1.52590    0.51378    1.89352
 41 H     0.08179    0.01309   -0.00961
 42 H     0.07539   -0.08920    0.05021
 43 H    -0.20999   -0.22893    0.00859
 44 H    -0.33872   -1.89828    1.81084
 45 N     2.31950   -1.66173   -1.78272
 46 N     3.41351    3.23868   -6.26597

System changes: positions 

Initializing position-dependent things.

Density initialized from wave functions
       .-----------------------.  
      /|                       |  
     / |                       |  
    /  |                       |  
   /   |                       |  
  /    |                       |  
 *     |                       |  
 |     |                       |  
 |     |                       |  
 |     |                H      H  
 |     |                 C     |  
 |     N                H      |  
 |     |                       |  
 |     |       Li              Li 
 |     |               H       |  
 |     |     Li  H   LC  O   Li|  
 |     |               H       |  
 |NLi  |  LLi     LLi     Li   |  
 |     |                       |  
 |     |Li      LLi     Li     |  
 |   Li|     Li      Li        |  
 |    Li  Li  Li  Li  Li  Li   |  
 | Li  |   Li      Li          |  
 |     |Li      Li      Li     |  
 Li    | Li      Li            |  
 |    Li      Li      Li       |  
 |     |                       |  
 |     |                       |  
 |     |                       |  
 |     |                       |  
 |     |                       |  
 |     |                       |  
 |     .-----------------------.  
 |    /                       /   
 |   /                       /    
 |  /                       /     
 | /                       /      
 |/                       /       
 *-----------------------*        

Positions:
   0 Li     1.617037    1.617037   10.000000    ( 0.0000,  0.0000,  0.0000)
   1 Li     4.851111    1.617037   10.000000    ( 0.0000,  0.0000,  0.0000)
   2 Li     8.085185    1.617037   10.000000    ( 0.0000,  0.0000,  0.0000)
   3 Li     1.617037    4.851111   10.000000    ( 0.0000,  0.0000,  0.0000)
   4 Li     4.851111    4.851111   10.000000    ( 0.0000,  0.0000,  0.0000)
   5 Li     8.085185    4.851111   10.000000    ( 0.0000,  0.0000,  0.0000)
   6 Li     1.617037    8.085185   10.000000    ( 0.0000,  0.0000,  0.0000)
   7 Li     4.851111    8.085185   10.000000    ( 0.0000,  0.0000,  0.0000)
   8 Li     8.085185    8.085185   10.000000    ( 0.0000,  0.0000,  0.0000)
   9 Li     0.000000    0.000000   11.617037    ( 0.0000,  0.0000,  0.0000)
  10 Li     3.234074    0.000000   11.617037    ( 0.0000,  0.0000,  0.0000)
  11 Li     6.468148    0.000000   11.617037    ( 0.0000,  0.0000,  0.0000)
  12 Li     0.000000    3.234074   11.617037    ( 0.0000,  0.0000,  0.0000)
  13 Li     3.234074    3.234074   11.617037    ( 0.0000,  0.0000,  0.0000)
  14 Li     6.468148    3.234074   11.617037    ( 0.0000,  0.0000,  0.0000)
  15 Li     0.000000    6.468148   11.617037    ( 0.0000,  0.0000,  0.0000)
  16 Li     3.234074    6.468148   11.617037    ( 0.0000,  0.0000,  0.0000)
  17 Li     6.468148    6.468148   11.617037    ( 0.0000,  0.0000,  0.0000)
  18 Li     1.617708    1.617382   13.467989    ( 0.0000,  0.0000,  0.0000)
  19 Li     4.851146    1.616812   13.471063    ( 0.0000,  0.0000,  0.0000)
  20 Li     8.084461    1.617358   13.468572    ( 0.0000,  0.0000,  0.0000)
  21 Li     1.616705    4.850998   13.470790    ( 0.0000,  0.0000,  0.0000)
  22 Li     4.851076    4.851257   13.469644    ( 0.0000,  0.0000,  0.0000)
  23 Li     8.085547    4.850927   13.470946    ( 0.0000,  0.0000,  0.0000)
  24 Li     1.617426    8.084885   13.468804    ( 0.0000,  0.0000,  0.0000)
  25 Li     4.851075    8.085295   13.470893    ( 0.0000,  0.0000,  0.0000)
  26 Li     8.084819    8.085008   13.469066    ( 0.0000,  0.0000,  0.0000)
  27 Li    -0.001000   -0.011134   15.356392    ( 0.0000,  0.0000,  0.0000)
  28 Li     3.235278   -0.000237   15.445320    ( 0.0000,  0.0000,  0.0000)
  29 Li     6.465741    0.000011   15.443042    ( 0.0000,  0.0000,  0.0000)
  30 Li     0.000440    3.230212   15.448713    ( 0.0000,  0.0000,  0.0000)
  31 Li     3.234909    3.234700   15.445601    ( 0.0000,  0.0000,  0.0000)
  32 Li     6.467276    3.234997   15.444878    ( 0.0000,  0.0000,  0.0000)
  33 Li    -0.000061    6.467307   15.445287    ( 0.0000,  0.0000,  0.0000)
  34 Li     3.234417    6.467892   15.445514    ( 0.0000,  0.0000,  0.0000)
  35 Li     6.467881    6.467493   15.445148    ( 0.0000,  0.0000,  0.0000)
  36 O      9.691135    9.712538   18.536008    ( 0.0000,  0.0000,  0.0000)
  37 C      8.478727   10.526065   18.497786    ( 0.0000,  0.0000,  0.0000)
  38 C      7.232326    9.697201   18.442378    ( 0.0000,  0.0000,  0.0000)
  39 H      8.528222   11.206866   19.321833    ( 0.0000,  0.0000,  0.0000)
  40 H      8.572623   11.136200   17.575832    ( 0.0000,  0.0000,  0.0000)
  41 H      6.359911   10.353478   18.420139    ( 0.0000,  0.0000,  0.0000)
  42 H      7.202080    9.049022   17.559667    ( 0.0000,  0.0000,  0.0000)
  43 H      7.162158    9.067371   19.328391    ( 0.0000,  0.0000,  0.0000)
  44 H      9.657793    9.089209   19.242948    ( 0.0000,  0.0000,  0.0000)
  45 N      9.737076    9.688809   16.920666    ( 0.0000,  0.0000,  0.0000)
  46 N      9.753381   10.835297   16.851834    ( 0.0000,  0.0000,  0.0000)

Unit cell:
           periodic     x           y           z      points  spacing
  1. axis:    yes    9.702222    0.000000    0.000000    60     0.1617
  2. axis:    yes    0.000000    9.702222    0.000000    60     0.1617
  3. axis:    no     0.000000    0.000000   26.351111   164     0.1607

  Lengths:   9.702222   9.702222  26.351111
  Angles:   90.000000  90.000000  90.000000

Effective grid spacing dv^(1/3) = 0.1614

     iter     time        total  log10-change:
                         energy  eigst   dens
iter:   1 22:42:22  -302.298220  -0.69
iter:   2 22:42:30  -302.287518  -1.19  -1.84
iter:   3 22:42:37  -302.280132c -1.73  -1.93
iter:   4 22:42:44  -302.279524c -1.96  -2.22
Writing to output.gpw (mode='')

iter:   5 22:42:51  -302.277706c -1.92  -2.26
iter:   6 22:42:59  -302.275363c -1.94  -2.17
iter:   7 22:43:06  -302.269915c -2.40  -2.32
iter:   8 22:43:13  -302.269235c -2.57  -2.63
iter:   9 22:43:20  -302.269730c -2.84  -2.74
Writing to output.gpw (mode='')

iter:  10 22:43:27  -302.269335c -3.12  -2.80
iter:  11 22:43:35  -302.269295c -2.97  -2.96
iter:  12 22:43:42  -302.269735c -3.44  -3.04
iter:  13 22:43:49  -302.269508c -3.37  -3.02
iter:  14 22:43:56  -302.269352c -3.76  -3.11
Writing to output.gpw (mode='')

iter:  15 22:44:03  -302.269504c -3.87  -3.38
iter:  16 22:44:10  -302.269516c -4.29  -3.42
iter:  17 22:44:18  -302.269438c -4.12  -3.56
iter:  18 22:44:25  -302.269502c -4.58  -3.77
iter:  19 22:44:32  -302.269489c -4.46  -3.82
Writing to output.gpw (mode='')

iter:  20 22:44:43  -302.269499c -4.53  -3.86
iter:  21 22:44:51  -302.269503c -4.59  -4.00
iter:  22 22:44:59  -302.269514c -4.76  -4.02c
iter:  23 22:45:06  -302.269522c -5.11  -4.07c
iter:  24 22:45:13  -302.269520c -5.44  -4.12c
Writing to output.gpw (mode='')

iter:  25 22:45:20  -302.269518c -5.25  -4.14c
iter:  26 22:45:27  -302.269521c -5.40  -4.23c
iter:  27 22:45:35  -302.269526c -5.37  -4.38c
iter:  28 22:45:42  -302.269523c -5.50  -4.44c
iter:  29 22:45:49  -302.269529c -5.55  -4.57c
Writing to output.gpw (mode='')

iter:  30 22:45:56  -302.269530c -5.76  -4.63c
iter:  31 22:46:03  -302.269528c -5.99  -4.63c
iter:  32 22:46:10  -302.269528c -5.87  -4.69c
iter:  33 22:46:18  -302.269532c -6.35  -4.75c
iter:  34 22:46:25  -302.269530c -6.10  -4.96c
Writing to output.gpw (mode='')

iter:  35 22:46:32  -302.269530c -6.42  -5.03c
iter:  36 22:46:39  -302.269530c -6.19  -5.09c
iter:  37 22:46:46  -302.269530c -6.41  -5.35c
iter:  38 22:46:53  -302.269531c -6.67  -5.32c
iter:  39 22:47:01  -302.269531c -6.55  -5.35c
Writing to output.gpw (mode='')

iter:  40 22:47:08  -302.269531c -6.70  -5.47c
iter:  41 22:47:15  -302.269531c -6.68  -5.53c
iter:  42 22:47:22  -302.269531c -6.96  -5.41c
iter:  43 22:47:29  -302.269531c -6.91  -5.48c
iter:  44 22:47:36  -302.269531c -7.19  -5.69c
Writing to output.gpw (mode='')

iter:  45 22:47:44  -302.269531c -7.39  -5.68c
iter:  46 22:47:51  -302.269532c -7.26  -5.73c
iter:  47 22:47:58  -302.269532c -7.36  -5.74c
iter:  48 22:48:05  -302.269532c -7.33  -5.66c
iter:  49 22:48:12  -302.269532c -7.32  -5.68c
Writing to output.gpw (mode='')

iter:  50 22:48:19  -302.269532c -7.71c -5.62c

Converged after 50 iterations.

Dipole moment: (-19.452962, -13.497447, 0.490432) |e|*Ang

Energy contributions relative to reference atoms: (reference = -14434.854043)

Kinetic:       +183.649637
Potential:     -165.537802
External:        +0.000000
XC:            -321.072887
Entropy (-ST):   -0.150856
Local:           +0.766948
--------------------------
Free energy:   -302.344960
Extrapolated:  -302.269532

Dipole-layer corrected work functions: 3.380981, 2.438202 eV

Showing only first 2 kpts
 Kpt  Band  Eigenvalues  Occupancy
  0    31     -3.16197    1.98723
  0    32     -3.05234    1.89115
  0    33     -2.79652    0.18874
  0    34     -2.66685    0.01546

  1    31     -2.98899    1.66064
  1    32     -2.92351    1.13833
  1    33     -2.83653    0.37654
  1    34     -2.80454    0.21797


Fermi level: -2.90959

Gap: 0.017 eV
Transition (v -> c):
  (s=0, k=1, n=32, [0.12, -0.12, 0.00]) -> (s=0, k=7, n=33, [0.38, 0.38, 0.00])

Forces in eV/Ang:
  0 Li    0.01377    0.00669   -0.28159
  1 Li    0.00255   -0.00290   -0.26006
  2 Li   -0.01677    0.00760   -0.27838
  3 Li   -0.00465    0.00777   -0.26473
  4 Li    0.00097   -0.00013   -0.28563
  5 Li    0.00586    0.00468   -0.26069
  6 Li    0.00623   -0.01678   -0.28131
  7 Li   -0.00057    0.00737   -0.26033
  8 Li   -0.00641   -0.01409   -0.28113
  9 Li    0.00325    0.00602    0.36547
 10 Li    0.01631   -0.00132    0.25791
 11 Li   -0.01613   -0.00032    0.25943
 12 Li   -0.00193    0.00711    0.27879
 13 Li    0.01089    0.00300    0.26740
 14 Li   -0.01178    0.00561    0.25513
 15 Li    0.00139   -0.00540    0.24632
 16 Li   -0.00559   -0.00440    0.25621
 17 Li    0.00262   -0.00943    0.25744
 18 Li    0.04798    0.02754   -0.12157
 19 Li    0.00042   -0.01479    0.08623
 20 Li   -0.05107    0.02694   -0.07800
 21 Li   -0.02175   -0.00777    0.07050
 22 Li   -0.00149    0.00938   -0.00619
 23 Li    0.02348   -0.01319    0.07940
 24 Li    0.03176   -0.02590   -0.06926
 25 Li   -0.00328    0.00705    0.07597
 26 Li   -0.02953   -0.01852   -0.04970
 27 Li   -0.12477   -0.75525   -5.31857
 28 Li    0.08269   -0.01668   -0.04328
 29 Li   -0.15506    0.00300   -0.18724
 30 Li    0.02719   -0.24778    0.17462
 31 Li    0.05749    0.04357   -0.02398
 32 Li   -0.05231    0.05635   -0.06809
 33 Li   -0.00448   -0.05646   -0.04205
 34 Li    0.02167   -0.01723   -0.02784
 35 Li   -0.01531   -0.03935   -0.05122
 36 O    -0.72583    0.57449    5.46478
 37 C    -2.11342    0.45903    2.69367
 38 C    -0.25128   -0.13033    0.37526
 39 H    -0.15498    0.31755    0.76236
 40 H    -1.31141    0.38230    1.81497
 41 H    -0.00814    0.00722   -0.00082
 42 H     0.09120   -0.05037    0.08494
 43 H    -0.23482   -0.25974    0.06510
 44 H    -0.40195   -1.50425    1.44660
 45 N     2.30477   -1.01014   -1.77288
 46 N     2.93996    2.32428   -5.35470

System changes: positions 

Initializing position-dependent things.

Density initialized from wave functions
       .-----------------------.  
      /|                       |  
     / |                       |  
    /  |                       |  
   /   |                       |  
  /    |                       |  
 *     |                       |  
 |     |                       |  
 |     |                       |  
 |     |                H     H|  
 |     |                 C     |  
 |     N                H      |  
 |     |                       |  
 |     |       Li              Li 
 |     |               H       |  
 |     |     Li  H   LC  O   Li|  
 |     |               H       |  
 |NLi  |  LLi     LLi     Li   |  
 |     |                       |  
 |     |Li      LLi     Li     |  
 |   Li|     Li      Li        |  
 |    Li  Li  Li  Li  Li  Li   |  
 | Li  |   Li      Li          |  
 |     |Li      Li      Li     |  
 Li    | Li      Li            |  
 |    Li      Li      Li       |  
 |     |                       |  
 |     |                       |  
 |     |                       |  
 |     |                       |  
 |     |                       |  
 |     |                       |  
 |     .-----------------------.  
 |    /                       /   
 |   /                       /    
 |  /                       /     
 | /                       /      
 |/                       /       
 *-----------------------*        

Positions:
   0 Li     1.617037    1.617037   10.000000    ( 0.0000,  0.0000,  0.0000)
   1 Li     4.851111    1.617037   10.000000    ( 0.0000,  0.0000,  0.0000)
   2 Li     8.085185    1.617037   10.000000    ( 0.0000,  0.0000,  0.0000)
   3 Li     1.617037    4.851111   10.000000    ( 0.0000,  0.0000,  0.0000)
   4 Li     4.851111    4.851111   10.000000    ( 0.0000,  0.0000,  0.0000)
   5 Li     8.085185    4.851111   10.000000    ( 0.0000,  0.0000,  0.0000)
   6 Li     1.617037    8.085185   10.000000    ( 0.0000,  0.0000,  0.0000)
   7 Li     4.851111    8.085185   10.000000    ( 0.0000,  0.0000,  0.0000)
   8 Li     8.085185    8.085185   10.000000    ( 0.0000,  0.0000,  0.0000)
   9 Li     0.000000    0.000000   11.617037    ( 0.0000,  0.0000,  0.0000)
  10 Li     3.234074    0.000000   11.617037    ( 0.0000,  0.0000,  0.0000)
  11 Li     6.468148    0.000000   11.617037    ( 0.0000,  0.0000,  0.0000)
  12 Li     0.000000    3.234074   11.617037    ( 0.0000,  0.0000,  0.0000)
  13 Li     3.234074    3.234074   11.617037    ( 0.0000,  0.0000,  0.0000)
  14 Li     6.468148    3.234074   11.617037    ( 0.0000,  0.0000,  0.0000)
  15 Li     0.000000    6.468148   11.617037    ( 0.0000,  0.0000,  0.0000)
  16 Li     3.234074    6.468148   11.617037    ( 0.0000,  0.0000,  0.0000)
  17 Li     6.468148    6.468148   11.617037    ( 0.0000,  0.0000,  0.0000)
  18 Li     1.618194    1.617697   13.466780    ( 0.0000,  0.0000,  0.0000)
  19 Li     4.851131    1.616675   13.471830    ( 0.0000,  0.0000,  0.0000)
  20 Li     8.083951    1.617678   13.467796    ( 0.0000,  0.0000,  0.0000)
  21 Li     1.616506    4.850929   13.471430    ( 0.0000,  0.0000,  0.0000)
  22 Li     4.851070    4.851336   13.469585    ( 0.0000,  0.0000,  0.0000)
  23 Li     8.085760    4.850798   13.471657    ( 0.0000,  0.0000,  0.0000)
  24 Li     1.617787    8.084565   13.468043    ( 0.0000,  0.0000,  0.0000)
  25 Li     4.851035    8.085368   13.471580    ( 0.0000,  0.0000,  0.0000)
  26 Li     8.084487    8.084751   13.468511    ( 0.0000,  0.0000,  0.0000)
  27 Li    -0.002804   -0.018017   15.317030    ( 0.0000,  0.0000,  0.0000)
  28 Li     3.236002   -0.000382   15.444964    ( 0.0000,  0.0000,  0.0000)
  29 Li     6.464423    0.000061   15.441449    ( 0.0000,  0.0000,  0.0000)
  30 Li     0.000681    3.227827   15.450395    ( 0.0000,  0.0000,  0.0000)
  31 Li     3.235449    3.235120   15.445379    ( 0.0000,  0.0000,  0.0000)
  32 Li     6.466851    3.235472   15.444283    ( 0.0000,  0.0000,  0.0000)
  33 Li    -0.000109    6.466813   15.444936    ( 0.0000,  0.0000,  0.0000)
  34 Li     3.234619    6.467717   15.445255    ( 0.0000,  0.0000,  0.0000)
  35 Li     6.467755    6.467168   15.444691    ( 0.0000,  0.0000,  0.0000)
  36 O      9.682942    9.724140   18.569985    ( 0.0000,  0.0000,  0.0000)
  37 C      8.470973   10.528809   18.510373    ( 0.0000,  0.0000,  0.0000)
  38 C      7.228379    9.695843   18.445755    ( 0.0000,  0.0000,  0.0000)
  39 H      8.524980   11.211839   19.331604    ( 0.0000,  0.0000,  0.0000)
  40 H      8.564252   11.136554   17.592840    ( 0.0000,  0.0000,  0.0000)
  41 H      6.358882   10.353301   18.420249    ( 0.0000,  0.0000,  0.0000)
  42 H      7.203320    9.049201   17.560839    ( 0.0000,  0.0000,  0.0000)
  43 H      7.159563    9.064574   19.329568    ( 0.0000,  0.0000,  0.0000)
  44 H      9.653250    9.077219   19.255039    ( 0.0000,  0.0000,  0.0000)
  45 N      9.757828    9.695238   16.904570    ( 0.0000,  0.0000,  0.0000)
  46 N      9.772456   10.835826   16.818203    ( 0.0000,  0.0000,  0.0000)

Unit cell:
           periodic     x           y           z      points  spacing
  1. axis:    yes    9.702222    0.000000    0.000000    60     0.1617
  2. axis:    yes    0.000000    9.702222    0.000000    60     0.1617
  3. axis:    no     0.000000    0.000000   26.351111   164     0.1607

  Lengths:   9.702222   9.702222  26.351111
  Angles:   90.000000  90.000000  90.000000

Effective grid spacing dv^(1/3) = 0.1614

     iter     time        total  log10-change:
                         energy  eigst   dens
iter:   1 22:48:28  -303.163740  -0.64
iter:   2 22:48:35  -303.118089  -1.02  -1.69
iter:   3 22:48:42  -303.099581  -1.68  -1.80
iter:   4 22:48:49  -303.087659c -1.47  -2.14
Writing to output.gpw (mode='')

iter:   5 22:48:57  -303.101330c -1.88  -2.26
iter:   6 22:49:04  -303.106838c -1.88  -2.13
iter:   7 22:49:11  -303.084508c -1.84  -2.09
iter:   8 22:49:18  -303.084472c -2.04  -2.62
iter:   9 22:49:25  -303.089329c -2.58  -2.44
Writing to output.gpw (mode='')

iter:  10 22:49:32  -303.084765c -2.68  -2.43
iter:  11 22:49:45  -303.083841c -2.66  -2.81
iter:  12 22:49:53  -303.083947c -2.85  -2.87
iter:  13 22:50:00  -303.084286c -3.46  -2.91
iter:  14 22:50:07  -303.084193c -3.42  -3.10
Writing to output.gpw (mode='')

iter:  15 22:50:14  -303.084241c -3.77  -3.25
iter:  16 22:50:21  -303.084086c -3.83  -3.25
iter:  17 22:50:28  -303.084184c -3.89  -3.39
iter:  18 22:50:36  -303.084210c -4.37  -3.52
iter:  19 22:50:43  -303.084232c -4.23  -3.55
Writing to output.gpw (mode='')

iter:  20 22:50:50  -303.084240c -4.34  -3.77
iter:  21 22:50:57  -303.084229c -4.44  -3.85
iter:  22 22:51:04  -303.084245c -4.49  -3.98
iter:  23 22:51:11  -303.084249c -4.86  -4.01c
iter:  24 22:51:18  -303.084264c -4.98  -4.13c
Writing to output.gpw (mode='')

iter:  25 22:51:26  -303.084263c -5.14  -4.06c
iter:  26 22:51:33  -303.084264c -5.20  -4.14c
iter:  27 22:51:40  -303.084268c -5.35  -4.40c
iter:  28 22:51:47  -303.084270c -5.48  -4.44c
iter:  29 22:51:54  -303.084268c -5.47  -4.54c
Writing to output.gpw (mode='')

iter:  30 22:52:01  -303.084269c -5.62  -4.54c
iter:  31 22:52:08  -303.084272c -5.55  -4.61c
iter:  32 22:52:16  -303.084271c -5.76  -4.84c
iter:  33 22:52:23  -303.084271c -5.87  -4.87c
iter:  34 22:52:30  -303.084274c -5.94  -4.92c
Writing to output.gpw (mode='')

iter:  35 22:52:37  -303.084275c -6.15  -4.87c
iter:  36 22:52:44  -303.084275c -6.40  -4.95c
iter:  37 22:52:52  -303.084275c -6.36  -5.16c
iter:  38 22:52:59  -303.084277c -6.43  -5.24c
iter:  39 22:53:06  -303.084276c -6.68  -5.36c
Writing to output.gpw (mode='')

iter:  40 22:53:13  -303.084276c -6.63  -5.46c
iter:  41 22:53:20  -303.084276c -6.75  -5.54c
iter:  42 22:53:27  -303.084277c -6.65  -5.61c
iter:  43 22:53:34  -303.084277c -6.71  -5.68c
iter:  44 22:53:42  -303.084277c -6.76  -5.71c
Writing to output.gpw (mode='')

iter:  45 22:53:49  -303.084277c -7.02  -5.74c
iter:  46 22:53:56  -303.084278c -7.12  -5.77c
iter:  47 22:54:03  -303.084278c -7.29  -5.87c
iter:  48 22:54:10  -303.084278c -7.09  -5.93c
iter:  49 22:54:17  -303.084278c -7.55c -5.91c

Converged after 49 iterations.

Dipole moment: (-21.402148, -14.940275, 0.479993) |e|*Ang

Energy contributions relative to reference atoms: (reference = -14434.854043)

Kinetic:       +181.217123
Potential:     -164.276358
External:        +0.000000
XC:            -320.714682
Entropy (-ST):   -0.149387
Local:           +0.764333
--------------------------
Free energy:   -303.158971
Extrapolated:  -303.084278

Dipole-layer corrected work functions: 3.381632, 2.458920 eV

Showing only first 2 kpts
 Kpt  Band  Eigenvalues  Occupancy
  0    31     -3.17452    1.98770
  0    32     -3.07017    1.90495
  0    33     -2.80087    0.16817
  0    34     -2.67594    0.01498

  1    31     -3.00305    1.67928
  1    32     -2.93419    1.13826
  1    33     -2.84477    0.36183
  1    34     -2.81981    0.23647


Fermi level: -2.92028

No gap
Writing to output.gpw (mode='')


Forces in eV/Ang:
  0 Li    0.01348    0.00667   -0.28258
  1 Li    0.00353   -0.00298   -0.25959
  2 Li   -0.01728    0.00724   -0.27924
  3 Li   -0.00498    0.00846   -0.26424
  4 Li    0.00073   -0.00026   -0.28692
  5 Li    0.00653    0.00479   -0.25932
  6 Li    0.00549   -0.01770   -0.28257
  7 Li   -0.00044    0.00810   -0.25982
  8 Li   -0.00621   -0.01367   -0.28227
  9 Li    0.00329    0.00629    0.37055
 10 Li    0.01647   -0.00148    0.25873
 11 Li   -0.01606   -0.00007    0.25998
 12 Li   -0.00176    0.00816    0.27883
 13 Li    0.01166    0.00358    0.26707
 14 Li   -0.01377    0.00625    0.25384
 15 Li    0.00143   -0.00570    0.24601
 16 Li   -0.00450   -0.00486    0.25549
 17 Li    0.00148   -0.01091    0.25630
 18 Li    0.05149    0.03296   -0.12924
 19 Li   -0.00155   -0.01473    0.08469
 20 Li   -0.05423    0.03342   -0.08046
 21 Li   -0.02145   -0.00819    0.07122
 22 Li   -0.00047    0.00920   -0.00643
 23 Li    0.02290   -0.01426    0.07860
 24 Li    0.03901   -0.03335   -0.07912
 25 Li   -0.00441    0.00673    0.07521
 26 Li   -0.03611   -0.02675   -0.05716
 27 Li   -0.18977   -0.75209   -4.80044
 28 Li    0.08516   -0.01823   -0.04520
 29 Li   -0.15024    0.00479   -0.18190
 30 Li    0.02510   -0.24291    0.16706
 31 Li    0.06071    0.04670   -0.02590
 32 Li   -0.04823    0.05275   -0.06677
 33 Li   -0.00524   -0.05690   -0.04071
 34 Li    0.02107   -0.01784   -0.02796
 35 Li   -0.01300   -0.03586   -0.05046
 36 O    -0.59828    0.66854    4.60826
 37 C    -1.63835    0.33992    2.36279
 38 C    -0.23743   -0.08611    0.35781
 39 H    -0.29063    0.36551    0.76946
 40 H    -1.10813    0.31649    1.64529
 41 H    -0.08336   -0.00122    0.00500
 42 H     0.10273   -0.02822    0.09922
 43 H    -0.25179   -0.26465    0.08985
 44 H    -0.48479   -1.32251    1.31624
 45 N     2.27617   -0.87088   -1.67197
 46 N     2.53184    1.96125   -4.46896

System changes: positions 

Initializing position-dependent things.

Density initialized from wave functions
       .-----------------------.  
      /|                       |  
     / |                       |  
    /  |                       |  
   /   |                       |  
  /    |                       |  
 *     |                       |  
 |     |                       |  
 |     |                       |  
 |     |                H     H|  
 |     |                 C     |  
 |     N                H      |  
 |     |                       |  
 |     |       Li              Li 
 |     |               H       |  
 |     |     Li  H   LC  O   Li|  
 |     |               H       |  
 |NLi  |  LLi     LLi     Li   |  
 |     |                       |  
 |     |Li      LLi     Li     |  
 |   Li|     Li      Li        |  
 |    Li  Li  Li  Li  Li  Li   |  
 | Li  |   Li      Li          |  
 |     |Li      Li      Li     |  
 Li    | Li      Li            |  
 |    Li      Li      Li       |  
 |     |                       |  
 |     |                       |  
 |     |                       |  
 |     |                       |  
 |     |                       |  
 |     |                       |  
 |     .-----------------------.  
 |    /                       /   
 |   /                       /    
 |  /                       /     
 | /                       /      
 |/                       /       
 *-----------------------*        

Positions:
   0 Li     1.617037    1.617037   10.000000    ( 0.0000,  0.0000,  0.0000)
   1 Li     4.851111    1.617037   10.000000    ( 0.0000,  0.0000,  0.0000)
   2 Li     8.085185    1.617037   10.000000    ( 0.0000,  0.0000,  0.0000)
   3 Li     1.617037    4.851111   10.000000    ( 0.0000,  0.0000,  0.0000)
   4 Li     4.851111    4.851111   10.000000    ( 0.0000,  0.0000,  0.0000)
   5 Li     8.085185    4.851111   10.000000    ( 0.0000,  0.0000,  0.0000)
   6 Li     1.617037    8.085185   10.000000    ( 0.0000,  0.0000,  0.0000)
   7 Li     4.851111    8.085185   10.000000    ( 0.0000,  0.0000,  0.0000)
   8 Li     8.085185    8.085185   10.000000    ( 0.0000,  0.0000,  0.0000)
   9 Li     0.000000    0.000000   11.617037    ( 0.0000,  0.0000,  0.0000)
  10 Li     3.234074    0.000000   11.617037    ( 0.0000,  0.0000,  0.0000)
  11 Li     6.468148    0.000000   11.617037    ( 0.0000,  0.0000,  0.0000)
  12 Li     0.000000    3.234074   11.617037    ( 0.0000,  0.0000,  0.0000)
  13 Li     3.234074    3.234074   11.617037    ( 0.0000,  0.0000,  0.0000)
  14 Li     6.468148    3.234074   11.617037    ( 0.0000,  0.0000,  0.0000)
  15 Li     0.000000    6.468148   11.617037    ( 0.0000,  0.0000,  0.0000)
  16 Li     3.234074    6.468148   11.617037    ( 0.0000,  0.0000,  0.0000)
  17 Li     6.468148    6.468148   11.617037    ( 0.0000,  0.0000,  0.0000)
  18 Li     1.618778    1.618113   13.465338    ( 0.0000,  0.0000,  0.0000)
  19 Li     4.851091    1.616523   13.472674    ( 0.0000,  0.0000,  0.0000)
  20 Li     8.083343    1.618112   13.466907    ( 0.0000,  0.0000,  0.0000)
  21 Li     1.616288    4.850845   13.472161    ( 0.0000,  0.0000,  0.0000)
  22 Li     4.851076    4.851424   13.469517    ( 0.0000,  0.0000,  0.0000)
  23 Li     8.085991    4.850639   13.472448    ( 0.0000,  0.0000,  0.0000)
  24 Li     1.618279    8.084119   13.467078    ( 0.0000,  0.0000,  0.0000)
  25 Li     4.850976    8.085443   13.472342    ( 0.0000,  0.0000,  0.0000)
  26 Li     8.084035    8.084365   13.467806    ( 0.0000,  0.0000,  0.0000)
  27 Li    -0.005600   -0.025698   15.277874    ( 0.0000,  0.0000,  0.0000)
  28 Li     3.236858   -0.000570   15.444526    ( 0.0000,  0.0000,  0.0000)
  29 Li     6.462986    0.000136   15.439707    ( 0.0000,  0.0000,  0.0000)
  30 Li     0.000923    3.225251   15.452151    ( 0.0000,  0.0000,  0.0000)
  31 Li     3.236098    3.235632   15.445102    ( 0.0000,  0.0000,  0.0000)
  32 Li     6.466419    3.235964   15.443627    ( 0.0000,  0.0000,  0.0000)
  33 Li    -0.000172    6.466246   15.444552    ( 0.0000,  0.0000,  0.0000)
  34 Li     3.234836    6.467517   15.444963    ( 0.0000,  0.0000,  0.0000)
  35 Li     6.467643    6.466845   15.444185    ( 0.0000,  0.0000,  0.0000)
  36 O      9.676052    9.736751   18.599999    ( 0.0000,  0.0000,  0.0000)
  37 C      8.466016   10.530549   18.523046    ( 0.0000,  0.0000,  0.0000)
  38 C      7.224619    9.695016   18.449291    ( 0.0000,  0.0000,  0.0000)
  39 H      8.519855   11.217531   19.341870    ( 0.0000,  0.0000,  0.0000)
  40 H      8.556839   11.136867   17.609301    ( 0.0000,  0.0000,  0.0000)
  41 H      6.356884   10.353048   18.420427    ( 0.0000,  0.0000,  0.0000)
  42 H      7.204767    9.049550   17.562258    ( 0.0000,  0.0000,  0.0000)
  43 H      7.156527    9.061478   19.331096    ( 0.0000,  0.0000,  0.0000)
  44 H      9.647176    9.065983   19.266965    ( 0.0000,  0.0000,  0.0000)
  45 N      9.780786    9.700368   16.887990    ( 0.0000,  0.0000,  0.0000)
  46 N      9.790049   10.836634   16.789179    ( 0.0000,  0.0000,  0.0000)

Unit cell:
           periodic     x           y           z      points  spacing
  1. axis:    yes    9.702222    0.000000    0.000000    60     0.1617
  2. axis:    yes    0.000000    9.702222    0.000000    60     0.1617
  3. axis:    no     0.000000    0.000000   26.351111   164     0.1607

  Lengths:   9.702222   9.702222  26.351111
  Angles:   90.000000  90.000000  90.000000

Effective grid spacing dv^(1/3) = 0.1614

     iter     time        total  log10-change:
                         energy  eigst   dens
iter:   1 22:54:26  -303.808658  -0.72
iter:   2 22:54:33  -303.787272  -1.22  -1.82
iter:   3 22:54:45  -303.777741c -1.82  -1.91
iter:   4 22:54:53  -303.768458c -1.65  -2.19
Writing to output.gpw (mode='')

iter:   5 22:55:00  -303.775181c -2.16  -2.33
iter:   6 22:55:07  -303.772315c -2.22  -2.24
iter:   7 22:55:15  -303.765859c -2.00  -2.33
iter:   8 22:55:22  -303.765997c -2.42  -2.68
iter:   9 22:55:29  -303.765939c -2.86  -2.69
Writing to output.gpw (mode='')

iter:  10 22:55:36  -303.765992c -2.98  -2.92
iter:  11 22:55:44  -303.766054c -3.08  -3.08
iter:  12 22:55:51  -303.765903c -3.34  -3.10
iter:  13 22:55:58  -303.765945c -3.62  -3.24
iter:  14 22:56:05  -303.765945c -3.74  -3.30
Writing to output.gpw (mode='')

iter:  15 22:56:12  -303.765971c -4.02  -3.46
iter:  16 22:56:19  -303.765967c -4.02  -3.54
iter:  17 22:56:26  -303.765997c -4.18  -3.64
iter:  18 22:56:34  -303.766005c -4.45  -3.76
iter:  19 22:56:41  -303.766002c -4.68  -3.74
Writing to output.gpw (mode='')

iter:  20 22:56:48  -303.766009c -4.78  -3.89
iter:  21 22:56:55  -303.766028c -4.78  -4.00c
iter:  22 22:57:02  -303.766027c -5.19  -4.05c
iter:  23 22:57:09  -303.766030c -5.10  -4.11c
iter:  24 22:57:17  -303.766029c -5.21  -4.18c
Writing to output.gpw (mode='')

iter:  25 22:57:24  -303.766035c -5.36  -4.15c
iter:  26 22:57:31  -303.766033c -5.69  -4.24c
iter:  27 22:57:38  -303.766031c -5.37  -4.28c
iter:  28 22:57:45  -303.766034c -5.78  -4.55c
iter:  29 22:57:52  -303.766040c -5.77  -4.58c
Writing to output.gpw (mode='')

iter:  30 22:58:00  -303.766036c -5.82  -4.70c
iter:  31 22:58:07  -303.766038c -5.85  -4.82c
iter:  32 22:58:17  -303.766038c -5.87  -4.89c
iter:  33 22:58:25  -303.766039c -6.16  -4.90c
iter:  34 22:58:32  -303.766040c -6.23  -5.00c
Writing to output.gpw (mode='')

iter:  35 22:58:39  -303.766040c -6.31  -5.03c
iter:  36 22:58:46  -303.766039c -6.32  -5.18c
iter:  37 22:58:53  -303.766040c -6.47  -5.35c
iter:  38 22:59:00  -303.766040c -6.66  -5.41c
iter:  39 22:59:08  -303.766040c -6.56  -5.42c
Writing to output.gpw (mode='')

iter:  40 22:59:15  -303.766040c -6.72  -5.41c
iter:  41 22:59:22  -303.766040c -6.95  -5.43c
iter:  42 22:59:29  -303.766040c -6.72  -5.41c
iter:  43 22:59:37  -303.766040c -7.09  -5.34c
iter:  44 22:59:51  -303.766040c -6.81  -5.33c
Writing to output.gpw (mode='')

iter:  45 22:59:58  -303.766040c -7.10  -5.26c
iter:  46 23:00:05  -303.766040c -7.40c -5.23c

Converged after 46 iterations.

Dipole moment: (-22.920750, -16.294716, 0.466277) |e|*Ang

Energy contributions relative to reference atoms: (reference = -14434.854043)

Kinetic:       +178.802578
Potential:     -162.919153
External:        +0.000000
XC:            -320.338122
Entropy (-ST):   -0.148260
Local:           +0.762787
--------------------------
Free energy:   -303.840170
Extrapolated:  -303.766040

Dipole-layer corrected work functions: 3.382242, 2.485898 eV

Showing only first 2 kpts
 Kpt  Band  Eigenvalues  Occupancy
  0    31     -3.18979    1.98805
  0    32     -3.09089    1.91674
  0    33     -2.80821    0.14933
  0    34     -2.68900    0.01476

  1    31     -3.01969    1.69430
  1    32     -2.94766    1.13511
  1    33     -2.85610    0.34747
  1    34     -2.83702    0.25106


Fermi level: -2.93407

No gap
Writing to output.gpw (mode='')


Forces in eV/Ang:
  0 Li    0.01307    0.00662   -0.28364
  1 Li    0.00445   -0.00303   -0.25921
  2 Li   -0.01762    0.00691   -0.28017
  3 Li   -0.00541    0.00915   -0.26376
  4 Li    0.00060   -0.00039   -0.28809
  5 Li    0.00718    0.00493   -0.25808
  6 Li    0.00468   -0.01843   -0.28387
  7 Li   -0.00030    0.00883   -0.25933
  8 Li   -0.00589   -0.01332   -0.28341
  9 Li    0.00339    0.00647    0.37485
 10 Li    0.01651   -0.00160    0.25992
 11 Li   -0.01594    0.00018    0.26079
 12 Li   -0.00163    0.00924    0.27893
 13 Li    0.01244    0.00425    0.26690
 14 Li   -0.01568    0.00688    0.25274
 15 Li    0.00145   -0.00591    0.24594
 16 Li   -0.00318   -0.00565    0.25481
 17 Li    0.00007   -0.01229    0.25518
 18 Li    0.05443    0.03834   -0.13609
 19 Li   -0.00342   -0.01449    0.08300
 20 Li   -0.05719    0.03988   -0.08325
 21 Li   -0.02101   -0.00870    0.07160
 22 Li    0.00061    0.00897   -0.00638
 23 Li    0.02215   -0.01520    0.07755
 24 Li    0.04672   -0.04157   -0.08932
 25 Li   -0.00563    0.00621    0.07413
 26 Li   -0.04340   -0.03572   -0.06524
 27 Li   -0.24828   -0.72050   -4.30314
 28 Li    0.08663   -0.01987   -0.04655
 29 Li   -0.14476    0.00590   -0.17552
 30 Li    0.02327   -0.24029    0.16038
 31 Li    0.06381    0.04982   -0.02756
 32 Li   -0.04514    0.04973   -0.06571
 33 Li   -0.00617   -0.05664   -0.03930
 34 Li    0.02063   -0.01834   -0.02820
 35 Li   -0.01061   -0.03262   -0.04961
 36 O    -0.45717    0.54661    4.03221
 37 C    -1.33717    0.26871    2.14390
 38 C    -0.20412   -0.07009    0.34604
 39 H    -0.39663    0.38579    0.75035
 40 H    -0.92160    0.27282    1.45761
 41 H    -0.13098   -0.00885    0.01118
 42 H     0.11227   -0.00538    0.11637
 43 H    -0.26849   -0.26019    0.09887
 44 H    -0.53555   -1.04296    1.06349
 45 N     2.23227   -0.77005   -1.48867
 46 N     2.21188    1.72410   -3.84881

System changes: positions 

Initializing position-dependent things.

Density initialized from wave functions
       .-----------------------.  
      /|                       |  
     / |                       |  
    /  |                       |  
   /   |                       |  
  /    |                       |  
 *     |                       |  
 |     |                       |  
 |     |                       |  
 |     |                H     H|  
 |     |                 C     |  
 |     |                H      |  
 |     |                       |  
 |     |       Li              |  
 |     |               H       Li 
 |     |     Li  H   LC  O   Li|  
 |     |               H       |  
 |NLi  |  LLi     LLi     Li   |  
 N     |                       |  
 |     |Li      LLi     Li     |  
 |   Li|     Li      Li        |  
 |    Li  Li  Li  Li  Li  Li   |  
 | Li  |   Li      Li          |  
 |     |Li      Li      Li     |  
 Li    | Li      Li            |  
 |    Li      Li      Li       |  
 |     |                       |  
 |     |                       |  
 |     |                       |  
 |     |                       |  
 |     |                       |  
 |     |                       |  
 |     .-----------------------.  
 |    /                       /   
 |   /                       /    
 |  /                       /     
 | /                       /      
 |/                       /       
 *-----------------------*        

Positions:
   0 Li     1.617037    1.617037   10.000000    ( 0.0000,  0.0000,  0.0000)
   1 Li     4.851111    1.617037   10.000000    ( 0.0000,  0.0000,  0.0000)
   2 Li     8.085185    1.617037   10.000000    ( 0.0000,  0.0000,  0.0000)
   3 Li     1.617037    4.851111   10.000000    ( 0.0000,  0.0000,  0.0000)
   4 Li     4.851111    4.851111   10.000000    ( 0.0000,  0.0000,  0.0000)
   5 Li     8.085185    4.851111   10.000000    ( 0.0000,  0.0000,  0.0000)
   6 Li     1.617037    8.085185   10.000000    ( 0.0000,  0.0000,  0.0000)
   7 Li     4.851111    8.085185   10.000000    ( 0.0000,  0.0000,  0.0000)
   8 Li     8.085185    8.085185   10.000000    ( 0.0000,  0.0000,  0.0000)
   9 Li     0.000000    0.000000   11.617037    ( 0.0000,  0.0000,  0.0000)
  10 Li     3.234074    0.000000   11.617037    ( 0.0000,  0.0000,  0.0000)
  11 Li     6.468148    0.000000   11.617037    ( 0.0000,  0.0000,  0.0000)
  12 Li     0.000000    3.234074   11.617037    ( 0.0000,  0.0000,  0.0000)
  13 Li     3.234074    3.234074   11.617037    ( 0.0000,  0.0000,  0.0000)
  14 Li     6.468148    3.234074   11.617037    ( 0.0000,  0.0000,  0.0000)
  15 Li     0.000000    6.468148   11.617037    ( 0.0000,  0.0000,  0.0000)
  16 Li     3.234074    6.468148   11.617037    ( 0.0000,  0.0000,  0.0000)
  17 Li     6.468148    6.468148   11.617037    ( 0.0000,  0.0000,  0.0000)
  18 Li     1.619473    1.618649   13.463624    ( 0.0000,  0.0000,  0.0000)
  19 Li     4.851022    1.616354   13.473611    ( 0.0000,  0.0000,  0.0000)
  20 Li     8.082621    1.618683   13.465869    ( 0.0000,  0.0000,  0.0000)
[...]
Writing to output.gpw (mode='')

iter:  20 11:37:27  -310.329176c -6.51  -4.57c
iter:  21 11:37:34  -310.329178c -6.55  -4.67c
iter:  22 11:37:41  -310.329179c -6.83  -4.86c
iter:  23 11:37:48  -310.329178c -7.06  -4.91c
iter:  24 11:37:55  -310.329178c -7.07  -4.98c
Writing to output.gpw (mode='')

iter:  25 11:38:02  -310.329177c -7.33  -5.11c
iter:  26 11:38:10  -310.329177c -7.50c -5.18c

Converged after 26 iterations.

Dipole moment: (8.833335, -14.209936, 0.391867) |e|*Ang

Energy contributions relative to reference atoms: (reference = -14434.854043)

Kinetic:       +148.109224
Potential:     -140.813582
External:        +0.000000
XC:            -318.333328
Entropy (-ST):   -0.162715
Local:           +0.789866
--------------------------
Free energy:   -310.410535
Extrapolated:  -310.329177

Dipole-layer corrected work functions: 3.390082, 2.636779 eV

Showing only first 2 kpts
 Kpt  Band  Eigenvalues  Occupancy
  0    31     -3.21723    1.96662
  0    32     -3.03259    1.18930
  0    33     -2.99854    0.85221
  0    34     -2.90131    0.19201

  1    31     -3.29555    1.99294
  1    32     -2.98078    0.68462
  1    33     -2.90910    0.22082
  1    34     -2.85997    0.08878


Fermi level: -3.01343

No gap
Writing to output.gpw (mode='')


Forces in eV/Ang:
  0 Li    0.00102   -0.00119   -0.25014
  1 Li   -0.00519   -0.01242   -0.29594
  2 Li    0.00527    0.01019   -0.29468
  3 Li   -0.01192   -0.00512   -0.29913
  4 Li    0.01341    0.01171   -0.28332
  5 Li   -0.00638    0.00538   -0.28763
  6 Li    0.01181    0.00370   -0.29253
  7 Li    0.00546   -0.00604   -0.28499
  8 Li   -0.01341   -0.02125   -0.29114
  9 Li    0.04787    0.04823    0.26220
 10 Li   -0.04736    0.04886    0.31864
 11 Li    0.00044    0.03119    0.31318
 12 Li    0.05573   -0.02202    0.33049
 13 Li   -0.06077   -0.05883    0.27881
 14 Li   -0.01416   -0.01067    0.29626
 15 Li    0.05021    0.01978    0.29719
 16 Li   -0.03593    0.00527    0.26942
 17 Li   -0.01550    0.00686    0.29458
 18 Li    0.02385   -0.00431   -0.01015
 19 Li   -0.00310   -0.00724    0.00495
 20 Li    0.00357   -0.01563   -0.00397
 21 Li   -0.00527    0.00745   -0.00241
 22 Li   -0.00019   -0.00321    0.00323
 23 Li    0.00197   -0.00337   -0.01873
 24 Li   -0.01517    0.00160    0.00186
 25 Li    0.00675    0.00318   -0.00607
 26 Li   -0.00525   -0.00299   -0.00198
 27 Li    0.02082   -0.02319   -0.00137
 28 Li    0.00070   -0.00441   -0.01135
 29 Li    0.00875    0.01732   -0.00464
 30 Li   -0.01504    0.00085   -0.00373
 31 Li   -0.00370    0.00005   -0.01118
 32 Li    0.00182   -0.00060    0.00119
 33 Li    0.01364    0.00068   -0.00005
 34 Li    0.00677    0.00471   -0.00806
 35 Li   -0.00975   -0.00413    0.00532
 36 O    -0.03012   -0.02423    0.04170
 37 C    -0.00444    0.03582   -0.01276
 38 C     0.02290    0.01132    0.01735
 39 H     0.01732   -0.02507   -0.00476
 40 H     0.00415   -0.00721    0.00366
 41 H     0.03070   -0.01242    0.00239
 42 H    -0.00254   -0.00964    0.00701
 43 H    -0.02623   -0.00380   -0.00396
 44 H     0.00978   -0.00744   -0.02151
 45 N     0.00358    0.01791   -0.03778
 46 N    -0.00993   -0.04312    0.01349

System changes: positions 

Initializing position-dependent things.

Density initialized from wave functions
       .-----------------------.  
      /|                       |  
     / |                       |  
    /  |                       |  
   /   |                       |  
  /    |                       |  
 *     |                       |  
 |     |                       |  
 |     |                 H     |  
 |     |                 C     |  
 |     |               H      H|  
 |     |                       |  
 |     |                       |  
 |     |       Li      LH      |  
 |     |         H             |  
 |     |     Li      LC      Li|  
 |     |                O      |  
 |     |  Li      LLi     LLi  |  
 |Li N N                       |  
 |     |Li      Li      Li     |  
 |   LLi     Li      Li        |  
 |     |  Li  Li  Li  Li  Li   |  
 | Li  |   Li      Li          |  
 |     |Li      Li      Li     |  
 Li    | Li      Li            |  
 |    Li      Li      Li       |  
 |     |                       |  
 |     |                       |  
 |     |                       |  
 |     |                       |  
 |     |                       |  
 |     |                       |  
 |     .-----------------------.  
 |    /                       /   
 |   /                       /    
 |  /                       /     
 | /                       /      
 |/                       /       
 *-----------------------*        

Positions:
   0 Li     1.617037    1.617037   10.000000    ( 0.0000,  0.0000,  0.0000)
   1 Li     4.851111    1.617037   10.000000    ( 0.0000,  0.0000,  0.0000)
   2 Li     8.085185    1.617037   10.000000    ( 0.0000,  0.0000,  0.0000)
   3 Li     1.617037    4.851111   10.000000    ( 0.0000,  0.0000,  0.0000)
   4 Li     4.851111    4.851111   10.000000    ( 0.0000,  0.0000,  0.0000)
   5 Li     8.085185    4.851111   10.000000    ( 0.0000,  0.0000,  0.0000)
   6 Li     1.617037    8.085185   10.000000    ( 0.0000,  0.0000,  0.0000)
   7 Li     4.851111    8.085185   10.000000    ( 0.0000,  0.0000,  0.0000)
   8 Li     8.085185    8.085185   10.000000    ( 0.0000,  0.0000,  0.0000)
   9 Li     0.000000    0.000000   11.617037    ( 0.0000,  0.0000,  0.0000)
  10 Li     3.234074    0.000000   11.617037    ( 0.0000,  0.0000,  0.0000)
  11 Li     6.468148    0.000000   11.617037    ( 0.0000,  0.0000,  0.0000)
  12 Li     0.000000    3.234074   11.617037    ( 0.0000,  0.0000,  0.0000)
  13 Li     3.234074    3.234074   11.617037    ( 0.0000,  0.0000,  0.0000)
  14 Li     6.468148    3.234074   11.617037    ( 0.0000,  0.0000,  0.0000)
  15 Li     0.000000    6.468148   11.617037    ( 0.0000,  0.0000,  0.0000)
  16 Li     3.234074    6.468148   11.617037    ( 0.0000,  0.0000,  0.0000)
  17 Li     6.468148    6.468148   11.617037    ( 0.0000,  0.0000,  0.0000)
  18 Li     1.566256    1.586344   13.659144    ( 0.0000,  0.0000,  0.0000)
  19 Li     4.813497    1.584052   13.488126    ( 0.0000,  0.0000,  0.0000)
  20 Li     8.120249    1.686228   13.513671    ( 0.0000,  0.0000,  0.0000)
  21 Li     1.608571    4.847575   13.492901    ( 0.0000,  0.0000,  0.0000)
  22 Li     4.781187    4.803814   13.472416    ( 0.0000,  0.0000,  0.0000)
  23 Li     8.062130    4.900455   13.477671    ( 0.0000,  0.0000,  0.0000)
  24 Li     1.665312    8.139620   13.536212    ( 0.0000,  0.0000,  0.0000)
  25 Li     4.834914    8.040799   13.489191    ( 0.0000,  0.0000,  0.0000)
  26 Li     8.148156    8.157966   13.454293    ( 0.0000,  0.0000,  0.0000)
  27 Li     0.210633    0.411161   15.997520    ( 0.0000,  0.0000,  0.0000)
  28 Li     3.350670   -0.076500   15.577212    ( 0.0000,  0.0000,  0.0000)
  29 Li     6.506259   -0.074393   15.300299    ( 0.0000,  0.0000,  0.0000)
  30 Li    -0.047198    3.481431   15.485877    ( 0.0000,  0.0000,  0.0000)
  31 Li     3.067779    3.038718   15.579471    ( 0.0000,  0.0000,  0.0000)
  32 Li     6.344008    3.282647   15.375839    ( 0.0000,  0.0000,  0.0000)
  33 Li    -0.057373    6.616760   15.381425    ( 0.0000,  0.0000,  0.0000)
  34 Li     3.265247    6.348585   15.461404    ( 0.0000,  0.0000,  0.0000)
  35 Li     6.459681    6.447310   15.399461    ( 0.0000,  0.0000,  0.0000)
  36 O      9.318154    9.857836   17.863739    ( 0.0000,  0.0000,  0.0000)
  37 C      8.319990   10.572636   18.638065    ( 0.0000,  0.0000,  0.0000)
  38 C      7.199160    9.665007   19.116836    ( 0.0000,  0.0000,  0.0000)
  39 H      8.810273   11.075385   19.478614    ( 0.0000,  0.0000,  0.0000)
  40 H      7.943957   11.340940   17.960365    ( 0.0000,  0.0000,  0.0000)
  41 H      6.460765   10.249565   19.671867    ( 0.0000,  0.0000,  0.0000)
  42 H      6.691458    9.186382   18.275914    ( 0.0000,  0.0000,  0.0000)
  43 H      7.582193    8.883858   19.779352    ( 0.0000,  0.0000,  0.0000)
  44 H      9.605022    9.081215   18.362320    ( 0.0000,  0.0000,  0.0000)
  45 N     11.788098   10.958248   15.697555    ( 0.0000,  0.0000,  0.0000)
  46 N     10.931352   11.872641   15.656446    ( 0.0000,  0.0000,  0.0000)

Unit cell:
           periodic     x           y           z      points  spacing
  1. axis:    yes    9.702222    0.000000    0.000000    60     0.1617
  2. axis:    yes    0.000000    9.702222    0.000000    60     0.1617
  3. axis:    no     0.000000    0.000000   26.351111   164     0.1607

  Lengths:   9.702222   9.702222  26.351111
  Angles:   90.000000  90.000000  90.000000

Effective grid spacing dv^(1/3) = 0.1614

     iter     time        total  log10-change:
                         energy  eigst   dens
iter:   1 11:38:18  -310.329725  -3.00
iter:   2 11:38:25  -310.329557  -3.69  -2.96
iter:   3 11:38:33  -310.329563c -4.25  -3.13
iter:   4 11:38:40  -310.329541c -4.52  -3.37
Writing to output.gpw (mode='')

iter:   5 11:38:47  -310.329522c -4.24  -3.47
iter:   6 11:38:54  -310.329530c -4.36  -3.70
iter:   7 11:39:01  -310.329522c -5.17  -3.73
iter:   8 11:39:08  -310.329512c -5.11  -3.85
iter:   9 11:39:15  -310.329520c -5.44  -3.91
Writing to output.gpw (mode='')

iter:  10 11:39:23  -310.329521c -5.67  -4.11c
iter:  11 11:39:30  -310.329519c -5.63  -4.26c
iter:  12 11:39:43  -310.329520c -6.21  -4.28c
iter:  13 11:39:51  -310.329519c -6.50  -4.46c
iter:  14 11:39:58  -310.329518c -6.50  -4.58c
Writing to output.gpw (mode='')

iter:  15 11:40:06  -310.329518c -6.84  -4.67c
iter:  16 11:40:13  -310.329518c -6.84  -4.68c
iter:  17 11:40:20  -310.329517c -7.10  -4.73c
iter:  18 11:40:27  -310.329517c -7.09  -4.77c
iter:  19 11:40:34  -310.329517c -7.09  -4.94c
Writing to output.gpw (mode='')

iter:  20 11:40:41  -310.329518c -7.52c -5.06c

Converged after 20 iterations.

Dipole moment: (8.848703, -14.193243, 0.391322) |e|*Ang

Energy contributions relative to reference atoms: (reference = -14434.854043)

Kinetic:       +148.198418
Potential:     -140.877167
External:        +0.000000
XC:            -318.359434
Entropy (-ST):   -0.162696
Local:           +0.790013
--------------------------
Free energy:   -310.410866
Extrapolated:  -310.329518

Dipole-layer corrected work functions: 3.390116, 2.637861 eV

Showing only first 2 kpts
 Kpt  Band  Eigenvalues  Occupancy
  0    31     -3.21775    1.96659
  0    32     -3.03323    1.19005
  0    33     -2.99896    0.85084
  0    34     -2.90205    0.19264

  1    31     -3.29603    1.99293
  1    32     -2.98121    0.68349
  1    33     -2.90966    0.22081
  1    34     -2.86060    0.08891


Fermi level: -3.01399

No gap

Forces in eV/Ang:
  0 Li    0.00108   -0.00123   -0.25012
  1 Li   -0.00521   -0.01243   -0.29590
  2 Li    0.00526    0.01020   -0.29469
  3 Li   -0.01186   -0.00507   -0.29908
  4 Li    0.01342    0.01175   -0.28335
  5 Li   -0.00636    0.00539   -0.28757
  6 Li    0.01189    0.00375   -0.29250
  7 Li    0.00551   -0.00604   -0.28498
  8 Li   -0.01340   -0.02119   -0.29120
  9 Li    0.04762    0.04807    0.26224
 10 Li   -0.04725    0.04859    0.31827
 11 Li   -0.00001    0.03120    0.31289
 12 Li    0.05576   -0.02236    0.33056
 13 Li   -0.06064   -0.05878    0.27862
 14 Li   -0.01447   -0.01071    0.29602
 15 Li    0.04984    0.01976    0.29697
 16 Li   -0.03586    0.00513    0.26912
 17 Li   -0.01571    0.00646    0.29436
 18 Li    0.02226   -0.00271   -0.00826
 19 Li   -0.00309   -0.00723    0.00505
 20 Li    0.00439   -0.01530   -0.00377
 21 Li   -0.00488    0.00670   -0.00211
 22 Li   -0.00005   -0.00320    0.00322
 23 Li    0.00149   -0.00276   -0.01853
 24 Li   -0.01454    0.00197    0.00194
 25 Li    0.00653    0.00346   -0.00562
 26 Li   -0.00448   -0.00305   -0.00166
 27 Li    0.01929   -0.02598    0.00101
 28 Li    0.00514   -0.00663   -0.01306
 29 Li    0.00842    0.01677   -0.00413
 30 Li   -0.01444   -0.00040   -0.00302
 31 Li   -0.00664    0.00114   -0.01118
 32 Li    0.00193   -0.00043    0.00074
 33 Li    0.01324    0.00079    0.00026
 34 Li    0.00633    0.00487   -0.00835
 35 Li   -0.00933   -0.00417    0.00519
 36 O    -0.01093   -0.03573    0.02415
 37 C     0.01353   -0.01458    0.02994
 38 C     0.00712    0.01361   -0.02265
 39 H     0.01412   -0.01307   -0.00354
 40 H    -0.01171    0.01859   -0.01610
 41 H     0.01006   -0.00326    0.01588
 42 H     0.00198   -0.00235    0.01488
 43 H    -0.00992   -0.00765    0.00639
 44 H     0.00264    0.00333   -0.02079
 45 N    -0.00905    0.02328   -0.03392
 46 N     0.00620   -0.04181    0.00888

Timing:                                      incl.     excl.
-------------------------------------------------------------------
Density initialized from wave functions:    10.773    10.769   0.0% |
 Symmetrize density:                         0.004     0.004   0.0% |
Forces:                                     73.887    73.887   0.2% |
Hamiltonian:                              1113.366     0.027   0.0% |
 Atomic:                                     0.043     0.043   0.0% |
  XC Correction:                             0.000     0.000   0.0% |
 Calculate atomic Hamiltonians:              0.073     0.073   0.0% |
 Communicate:                               15.347    15.347   0.0% |
 Hartree integrate/restrict:                 3.864     3.864   0.0% |
 Initialize Hamiltonian:                     0.000     0.000   0.0% |
 Poisson:                                   53.279    19.434   0.0% |
  Communicate from 1D:                       5.184     5.184   0.0% |
  Communicate from 2D:                       5.590     5.590   0.0% |
  Communicate to 1D:                         3.102     3.102   0.0% |
  Communicate to 2D:                         6.319     6.319   0.0% |
  FFT 1D:                                    6.906     6.906   0.0% |
  FFT 2D:                                    6.742     6.742   0.0% |
 XC 3D grid:                              1039.819   160.975   0.3% |
  VdW-DF integral:                         878.843     7.376   0.0% |
   Convolution:                             80.727    80.727   0.2% |
   FFT:                                     34.899    34.899   0.1% |
   gather:                                 300.921   300.921   0.6% |
   hmm1:                                    28.634    28.634   0.1% |
   hmm2:                                    38.427    38.427   0.1% |
   iFFT:                                    36.096    36.096   0.1% |
   potential:                              348.158     9.578   0.0% |
    collect:                                54.921    54.921   0.1% |
    p1:                                    155.319   155.319   0.3% |
    p2:                                     58.379    58.379   0.1% |
    sum:                                    69.962    69.962   0.1% |
   splines:                                  3.605     3.605   0.0% |
 vbar:                                       0.913     0.913   0.0% |
LCAO initialization:                         1.100     0.183   0.0% |
 LCAO eigensolver:                           0.244     0.000   0.0% |
  Calculate projections:                     0.000     0.000   0.0% |
  DenseAtomicCorrection:                     0.000     0.000   0.0% |
  Distribute overlap matrix:                 0.181     0.181   0.0% |
  Orbital Layouts:                           0.062     0.062   0.0% |
  Potential matrix:                          0.001     0.001   0.0% |
  Sum over cells:                            0.001     0.001   0.0% |
 LCAO to grid:                               0.553     0.553   0.0% |
 Set positions (LCAO WFS):                   0.119     0.063   0.0% |
  Basic WFS set positions:                   0.001     0.001   0.0% |
  Basis functions set positions:             0.000     0.000   0.0% |
  P tci:                                     0.000     0.000   0.0% |
  ST tci:                                    0.023     0.023   0.0% |
  mktci:                                     0.031     0.031   0.0% |
Redistribute:                                0.134     0.134   0.0% |
SCF-cycle:                               46929.628   780.595   1.6% ||
 Davidson:                               11721.888  3473.855   7.2% |--|
  Apply hamiltonian:                       737.169   737.169   1.5% ||
  Subspace diag:                          2216.144     0.815   0.0% |
   calc_h_matrix:                         1081.004   330.262   0.7% |
    Apply hamiltonian:                     750.742   750.742   1.6% ||
   diagonalize:                            125.355   125.355   0.3% |
   rotate_psi:                            1008.970  1008.970   2.1% ||
  calc. matrices:                         3625.410  1864.152   3.9% |-|
   Apply hamiltonian:                     1761.258  1761.258   3.6% ||
  diagonalize:                              33.293    33.293   0.1% |
  rotate_psi:                             1636.018  1636.018   3.4% ||
 Density:                                  230.353     0.293   0.0% |
  Atomic density matrices:                  25.344    25.344   0.1% |
  Mix:                                     103.102   103.102   0.2% |
  Multipole moments:                        11.362    11.362   0.0% |
  Pseudo density:                           90.253    90.094   0.2% |
   Symmetrize density:                       0.158     0.158   0.0% |
 Hamiltonian:                            34161.315     0.831   0.0% |
  Atomic:                                    1.490     1.473   0.0% |
   XC Correction:                            0.017     0.017   0.0% |
  Calculate atomic Hamiltonians:             2.248     2.248   0.0% |
  Communicate:                             471.563   471.563   1.0% |
  Hartree integrate/restrict:              121.566   121.566   0.3% |
  Poisson:                                1634.262   599.557   1.2% |
   Communicate from 1D:                    160.251   160.251   0.3% |
   Communicate from 2D:                    164.126   164.126   0.3% |
   Communicate to 1D:                       92.471    92.471   0.2% |
   Communicate to 2D:                      191.164   191.164   0.4% |
   FFT 1D:                                 216.410   216.410   0.4% |
   FFT 2D:                                 210.282   210.282   0.4% |
  XC 3D grid:                            31901.314  4922.143  10.2% |---|
   VdW-DF integral:                      26979.171   226.967   0.5% |
    Convolution:                          2477.471  2477.471   5.1% |-|
    FFT:                                  1070.385  1070.385   2.2% ||
    gather:                               9479.937  9479.937  19.6% |-------|
    hmm1:                                  871.512   871.512   1.8% ||
    hmm2:                                 1163.189  1163.189   2.4% ||
    iFFT:                                 1110.155  1110.155   2.3% ||
    potential:                           10579.496   295.936   0.6% |
     collect:                             1635.296  1635.296   3.4% ||
     p1:                                  4776.139  4776.139   9.9% |---|
     p2:                                  1798.394  1798.394   3.7% ||
     sum:                                 2073.731  2073.731   4.3% |-|
    splines:                                 0.059     0.059   0.0% |
  vbar:                                     28.043    28.043   0.1% |
 Orthonormalize:                            35.475     0.029   0.0% |
  calc_s_matrix:                             4.941     4.941   0.0% |
  inverse-cholesky:                         10.893    10.893   0.0% |
  projections:                               0.004     0.004   0.0% |
  rotate_psi_s:                             19.608    19.608   0.0% |
Set symmetry:                                0.020     0.020   0.0% |
Other:                                     198.416   198.416   0.4% |
-------------------------------------------------------------------
Total:                                             48327.324 100.0%

Memory usage: 1.11 GiB
Date: Thu Mar  9 11:40:42 2023
