
  ___ ___ ___ _ _ _  
 |   |   |_  | | | | 
 | | | | | . | | | | 
 |__ |  _|___|_____|  22.8.0
 |___|_|             

User:   vazumah@c16.hercules
Date:   Fri Mar  3 09:18:35 2023
Arch:   x86_64
Pid:    31178
CWD:    /home/vazumah/Python_projects/LiNRR/Li_adsorb_studies/proton_donors/N2_with_proton_donor/Li_BCC_100/adsorbates/HF/bridge/0.0_1.617/N2_y
Python: 3.10.8
gpaw:   /home/vazumah/.conda/envs/GPAW/lib/python3.10/site-packages/gpaw
_gpaw:  /home/vazumah/.conda/envs/GPAW/lib/python3.10/site-packages/
        _gpaw.cpython-310-x86_64-linux-gnu.so
ase:    /home/vazumah/.conda/envs/GPAW/lib/python3.10/site-packages/ase (version 3.22.1)
numpy:  /home/vazumah/.conda/envs/GPAW/lib/python3.10/site-packages/numpy (version 1.24.1)
scipy:  /home/vazumah/.conda/envs/GPAW/lib/python3.10/site-packages/scipy (version 1.10.0)
libxc:  5.2.3
units:  Angstrom and eV
cores: 24
OpenMP: True
OMP_NUM_THREADS: 1

Input parameters:
  h: 0.16
  kpts: {size: [4, 4, 1]}
  occupations: {name: fermi-dirac,
                width: 0.05}
  poissonsolver: {dipolelayer: xy}
  xc: BEEF-vdW

System changes: positions, numbers, cell, pbc, initial_charges, initial_magmoms 

Initialize ...

species:
  Li:
    name: Lithium
    id: 830b4218f175192f93f959cfc0aad614
    Z: 3.0
    valence: 1
    core: 2
    charge: 0.0
    file: /home/vazumah/.conda/envs/GPAW/share/gpaw/Li.PBE.gz
    compensation charges: {type: gauss,
                           rc: 0.33,
                           lmax: 2}
    cutoffs: {filter: 1.91,
              core: 2.55}
    valence states:
      #              energy  rcut
      - 2s(1.00)    -2.874   1.058
      - 2p(0.00)    -1.090   1.058
      -  s          24.337   1.058
  
    # Using partial waves for Li as LCAO basis

  F:
    name: Fluorine
    id: 9cd46ba2a61e170ad72278be75b55cc0
    Z: 9.0
    valence: 7
    core: 2
    charge: 0.0
    file: /home/vazumah/.conda/envs/GPAW/share/gpaw/F.PBE.gz
    compensation charges: {type: gauss,
                           rc: 0.20,
                           lmax: 2}
    cutoffs: {filter: 1.14,
              core: 0.74}
    valence states:
      #              energy  rcut
      - 2s(2.00)   -29.898   0.635
      - 2p(5.00)   -11.110   0.635
      -  s          -2.687   0.635
      -  p          16.102   0.635
      -  d           0.000   0.635
  
    # Using partial waves for F as LCAO basis

  H:
    name: Hydrogen
    id: d65de229564ff8ea4db303e23b6d1ecf
    Z: 1.0
    valence: 1
    core: 0
    charge: 0.0
    file: /home/vazumah/.conda/envs/GPAW/share/gpaw/H.PBE.gz
    compensation charges: {type: gauss,
                           rc: 0.15,
                           lmax: 2}
    cutoffs: {filter: 0.85,
              core: 0.53}
    valence states:
      #              energy  rcut
      - 1s(1.00)    -6.494   0.476
      -  s          20.717   0.476
      -  p           0.000   0.476
  
    # Using partial waves for H as LCAO basis

  N:
    name: Nitrogen
    id: f7500608b86eaa90eef8b1d9a670dc53
    Z: 7.0
    valence: 5
    core: 2
    charge: 0.0
    file: /home/vazumah/.conda/envs/GPAW/share/gpaw/N.PBE.gz
    compensation charges: {type: gauss,
                           rc: 0.18,
                           lmax: 2}
    cutoffs: {filter: 1.11,
              core: 0.96}
    valence states:
      #              energy  rcut
      - 2s(2.00)   -18.583   0.603
      - 2p(3.00)    -7.089   0.529
      -  s           8.629   0.603
      -  p          20.123   0.529
      -  d           0.000   0.577
  
    # Using partial waves for N as LCAO basis

Reference energy: -12990.375485  # eV

Spin-paired calculation

Convergence criteria:
 Maximum [total energy] change in last 3 cyles: 0.0005 eV / electron
 Maximum integral of absolute [dens]ity change: 0.0001 electrons / valence electron
 Maximum integral of absolute [eigenst]ate change: 4e-08 eV^2 / valence electron
 Maximum number of scf [iter]ations: 333
 (Square brackets indicate name in SCF output, whereas a 'c' in
 the SCF output indicates the quantity has converged.)

Symmetries present (total): 1

  ( 1  0  0)
  ( 0  1  0)
  ( 0  0  1)

16 k-points: 4 x 4 x 1 Monkhorst-Pack grid
8 k-points in the irreducible part of the Brillouin zone
       k-points in crystal coordinates                weights
   0:     0.12500000   -0.37500000    0.00000000          2/16
   1:     0.12500000   -0.12500000    0.00000000          2/16
   2:     0.12500000    0.12500000    0.00000000          2/16
   3:     0.12500000    0.37500000    0.00000000          2/16
   4:     0.37500000   -0.37500000    0.00000000          2/16
   5:     0.37500000   -0.12500000    0.00000000          2/16
   6:     0.37500000    0.12500000    0.00000000          2/16
   7:     0.37500000    0.37500000    0.00000000          2/16

Wave functions: Uniform real-space grid
  Kinetic energy operator: 6*3+1=19 point O(h^6) finite-difference Laplacian
  ScaLapack parameters: grid=1x1, blocksize=None
  Wavefunction extrapolation:
    Improved wavefunction reuse through dual PAW basis 

Occupation numbers: Fermi-Dirac:
  width: 0.0500  # eV
 

Eigensolver
   Davidson(niter=2) 

Densities:
  Coarse grid: 60*60*168 grid
  Fine grid: 120*120*336 grid
  Total Charge: 0.000000 

Density mixing:
  Method: separate
  Backend: pulay
  Linear mixing parameter: 0.05
  old densities: 5
  Damping of long wavelength oscillations: 50 

Hamiltonian:
  XC and Coulomb potentials evaluated on a 120*120*336 grid
  Using the BEEF-vdW Exchange-Correlation functional
  Interpolation: tri-quintic (5. degree polynomial)
  Poisson solver: FastPoissonSolver using
    Stencil: 6*3+1=19 point O(h^6) finite-difference Laplacian
    FFT axes: [0, 1]
    FST axes: [2]

Dipole correction along z-axis 

XC parameters: BEEF-vdW with 2 nearest neighbor stencil

Memory estimate:
  Process memory now: 226.80 MiB
  Calculator: 394.09 MiB
    Density: 120.69 MiB
      Arrays: 39.61 MiB
      Localized functions: 65.98 MiB
      Mixer: 15.11 MiB
    Hamiltonian: 31.12 MiB
      Arrays: 25.90 MiB
      XC: 0.00 MiB
      Poisson: 0.00 MiB
      vbar: 5.22 MiB
    Wavefunctions: 242.28 MiB
      Arrays psit_nG: 111.79 MiB
      Eigensolver: 127.10 MiB
      Projections: 0.04 MiB
      Projectors: 3.35 MiB

Total number of cores used: 24
Parallelization over k-points: 8
Domain decomposition: 1 x 1 x 3

Number of atoms: 40
Number of atomic orbitals: 157
Number of bands in calculation: 37
Number of valence electrons: 54
Bands to converge: occupied

... initialized

Initializing position-dependent things.

Density initialized from atomic densities
Creating initial wave functions:
  37 bands from LCAO basis set

       .-----------------------.  
      /|                       |  
     / |                       |  
    /  |                       |  
   /   |                       |  
  /    |                       |  
 *     |                       |  
 |     |                       |  
 |     |                       |  
 |     |                       |  
 |     |                       |  
 |     |                       |  
 |     |                       |  
 |     |                       |  
 |     |                       |  
 |F H  |                       |  
 | N Li|     Li      Li        |  
 |N    |  Li      Li      Li   |  
 | Li  |   Li      Li          |  
 |     |Li      Li      Li     |  
 Li    | Li      Li            |  
 |   LLi     LLi     LLi       |  
 |     |  Li      Li      Li   |  
 | Li  |   Li      Li          |  
 |     |Li      Li      Li     |  
 Li    | Li      Li            |  
 |    Li      Li      Li       |  
 |     |                       |  
 |     |                       |  
 |     |                       |  
 |     |                       |  
 |     |                       |  
 |     |                       |  
 |     .-----------------------.  
 |    /                       /   
 |   /                       /    
 |  /                       /     
 | /                       /      
 |/                       /       
 *-----------------------*        

Positions:
   0 Li     1.617037    1.617037   10.000000    ( 0.0000,  0.0000,  0.0000)
   1 Li     4.851111    1.617037   10.000000    ( 0.0000,  0.0000,  0.0000)
   2 Li     8.085185    1.617037   10.000000    ( 0.0000,  0.0000,  0.0000)
   3 Li     1.617037    4.851111   10.000000    ( 0.0000,  0.0000,  0.0000)
   4 Li     4.851111    4.851111   10.000000    ( 0.0000,  0.0000,  0.0000)
   5 Li     8.085185    4.851111   10.000000    ( 0.0000,  0.0000,  0.0000)
   6 Li     1.617037    8.085185   10.000000    ( 0.0000,  0.0000,  0.0000)
   7 Li     4.851111    8.085185   10.000000    ( 0.0000,  0.0000,  0.0000)
   8 Li     8.085185    8.085185   10.000000    ( 0.0000,  0.0000,  0.0000)
   9 Li     0.000000    0.000000   11.617037    ( 0.0000,  0.0000,  0.0000)
  10 Li     3.234074    0.000000   11.617037    ( 0.0000,  0.0000,  0.0000)
  11 Li     6.468148    0.000000   11.617037    ( 0.0000,  0.0000,  0.0000)
  12 Li     0.000000    3.234074   11.617037    ( 0.0000,  0.0000,  0.0000)
  13 Li     3.234074    3.234074   11.617037    ( 0.0000,  0.0000,  0.0000)
  14 Li     6.468148    3.234074   11.617037    ( 0.0000,  0.0000,  0.0000)
  15 Li     0.000000    6.468148   11.617037    ( 0.0000,  0.0000,  0.0000)
  16 Li     3.234074    6.468148   11.617037    ( 0.0000,  0.0000,  0.0000)
  17 Li     6.468148    6.468148   11.617037    ( 0.0000,  0.0000,  0.0000)
  18 Li     1.617038    1.617038   13.469728    ( 0.0000,  0.0000,  0.0000)
  19 Li     4.851111    1.617038   13.469729    ( 0.0000,  0.0000,  0.0000)
  20 Li     8.085184    1.617038   13.469728    ( 0.0000,  0.0000,  0.0000)
  21 Li     1.617038    4.851111   13.469729    ( 0.0000,  0.0000,  0.0000)
  22 Li     4.851111    4.851111   13.469730    ( 0.0000,  0.0000,  0.0000)
  23 Li     8.085184    4.851111   13.469729    ( 0.0000,  0.0000,  0.0000)
  24 Li     1.617038    8.085184   13.469728    ( 0.0000,  0.0000,  0.0000)
  25 Li     4.851111    8.085184   13.469729    ( 0.0000,  0.0000,  0.0000)
  26 Li     8.085184    8.085184   13.469728    ( 0.0000,  0.0000,  0.0000)
  27 Li    -0.000000   -0.000000   15.445939    ( 0.0000,  0.0000,  0.0000)
  28 Li     3.234074    0.000000   15.445939    ( 0.0000,  0.0000,  0.0000)
  29 Li     6.468148    0.000000   15.445939    ( 0.0000,  0.0000,  0.0000)
  30 Li     0.000000    3.234074   15.445939    ( 0.0000,  0.0000,  0.0000)
  31 Li     3.234076    3.234076   15.445938    ( 0.0000,  0.0000,  0.0000)
  32 Li     6.468146    3.234076   15.445938    ( 0.0000,  0.0000,  0.0000)
  33 Li     0.000000    6.468148   15.445939    ( 0.0000,  0.0000,  0.0000)
  34 Li     3.234076    6.468146   15.445938    ( 0.0000,  0.0000,  0.0000)
  35 Li     6.468146    6.468146   15.445938    ( 0.0000,  0.0000,  0.0000)
  36 F      0.000000    1.617037   18.445939    ( 0.0000,  0.0000,  0.0000)
  37 H      0.927917    1.617037   18.445939    ( 0.0000,  0.0000,  0.0000)
  38 N      0.000000    1.617000   17.195939    ( 0.0000,  0.0000,  0.0000)
  39 N      0.000000    2.713622   17.195939    ( 0.0000,  0.0000,  0.0000)

Unit cell:
           periodic     x           y           z      points  spacing
  1. axis:    yes    9.702222    0.000000    0.000000    60     0.1617
  2. axis:    yes    0.000000    9.702222    0.000000    60     0.1617
  3. axis:    no     0.000000    0.000000   26.601111   168     0.1583

  Lengths:   9.702222   9.702222  26.601111
  Angles:   90.000000  90.000000  90.000000

Effective grid spacing dv^(1/3) = 0.1606

     iter     time        total  log10-change:
                         energy  eigst   dens
iter:   1 09:21:57  -365.722163
iter:   2 09:24:32  -188.602214  +2.42  -0.12
iter:   3 09:27:06  -181.105860  +3.10  -0.33
iter:   4 09:29:41  -218.481104  +2.71  -0.36
Writing to output.gpw (mode='')

iter:   5 09:32:14  -219.791497  +2.39  -0.42
iter:   6 09:34:38  -235.573885  +2.14  -0.73
iter:   7 09:37:07  -244.096460  +1.72  -0.83
iter:   8 09:39:33  -245.918869  +1.32  -0.78
iter:   9 09:41:58  -259.991056  +1.71  -0.84
Writing to output.gpw (mode='')

iter:  10 09:44:25  -247.038077  +0.93  -0.62
iter:  11 09:46:50  -246.699476  +1.18  -0.87
iter:  12 09:49:12  -251.339508  +1.15  -0.82
iter:  13 09:51:43  -244.551367  +0.63  -0.86
iter:  14 09:54:08  -243.603096  +0.80  -0.88
Writing to output.gpw (mode='')

iter:  15 09:56:38  -243.088320  +0.70  -0.91
iter:  16 09:58:12  -242.550433  +0.63  -1.07
iter:  17 10:00:40  -242.323852  +0.22  -1.26
iter:  18 10:03:08  -242.364764  +0.23  -1.28
iter:  19 10:05:40  -242.862826  +0.32  -1.26
Writing to output.gpw (mode='')

iter:  20 10:08:08  -242.324783  -0.06  -1.29
iter:  21 10:10:32  -242.313178  -0.54  -1.45
iter:  22 10:12:55  -242.260317  -0.66  -1.49
iter:  23 10:15:23  -242.279240  -0.30  -1.62
iter:  24 10:18:01  -242.317488  -0.40  -1.78
Writing to output.gpw (mode='')

iter:  25 10:20:41  -242.306170  -0.97  -1.83
iter:  26 10:23:16  -242.308182c -0.97  -1.91
iter:  27 10:25:38  -242.314281c -1.02  -1.99
iter:  28 10:28:09  -242.325817c -1.01  -2.10
iter:  29 10:30:35  -242.328459c -1.19  -2.11
Writing to output.gpw (mode='')

iter:  30 10:33:12  -242.332234c -1.44  -2.34
iter:  31 10:35:44  -242.336105c -1.51  -2.43
iter:  32 10:38:19  -242.341678c -1.29  -2.48
iter:  33 10:40:46  -242.344584c -1.68  -2.52
iter:  34 10:43:14  -242.347328c -1.72  -2.55
Writing to output.gpw (mode='')

iter:  35 10:45:47  -242.349268c -1.83  -2.61
iter:  36 10:48:19  -242.350928c -2.00  -2.66
iter:  37 10:50:45  -242.352511c -1.93  -2.79
iter:  38 10:53:07  -242.353888c -2.08  -2.85
iter:  39 10:55:40  -242.355231c -2.18  -2.93
Writing to output.gpw (mode='')

iter:  40 10:58:06  -242.355779c -2.43  -3.01
iter:  41 11:00:37  -242.356527c -2.33  -3.06
iter:  42 11:03:08  -242.357162c -2.48  -3.07
iter:  43 11:05:44  -242.357693c -2.45  -3.25
iter:  44 11:08:19  -242.358021c -2.71  -3.37
Writing to output.gpw (mode='')

iter:  45 11:10:51  -242.358344c -2.74  -3.40
iter:  46 11:13:17  -242.358593c -2.77  -3.38
iter:  47 11:15:48  -242.358889c -2.90  -3.24
iter:  48 11:18:14  -242.359172c -2.79  -3.32
iter:  49 11:20:48  -242.359361c -2.89  -3.42
Writing to output.gpw (mode='')

iter:  50 11:23:20  -242.359583c -2.96  -3.42
iter:  51 11:25:42  -242.359892c -2.86  -3.49
iter:  52 11:28:05  -242.360051c -3.13  -3.64
iter:  53 11:30:35  -242.360169c -3.10  -3.67
iter:  54 11:33:16  -242.360299c -3.11  -3.82
Writing to output.gpw (mode='')

iter:  55 11:35:38  -242.360351c -3.46  -3.94
iter:  56 11:38:08  -242.360438c -3.50  -3.94
iter:  57 11:40:44  -242.360522c -3.25  -4.02c
iter:  58 11:43:14  -242.360544c -3.59  -4.09c
iter:  59 11:45:47  -242.360594c -3.70  -4.12c
Writing to output.gpw (mode='')

iter:  60 11:48:24  -242.360653c -3.53  -4.26c
iter:  61 11:50:54  -242.360689c -3.69  -4.38c
iter:  62 11:53:19  -242.360715c -3.75  -4.35c
iter:  63 11:55:41  -242.360732c -3.89  -4.27c
iter:  64 11:58:18  -242.360757c -3.90  -4.13c
Writing to output.gpw (mode='')

iter:  65 12:01:02  -242.360773c -3.88  -4.10c
iter:  66 12:03:34  -242.360790c -3.97  -4.01c
iter:  67 12:06:04  -242.360806c -3.80  -3.98
iter:  68 12:08:35  -242.360828c -4.11  -3.91
iter:  69 12:11:05  -242.360838c -4.27  -3.95
Writing to output.gpw (mode='')

iter:  70 12:13:37  -242.360848c -4.12  -3.92
iter:  71 12:16:08  -242.360859c -4.07  -3.90
iter:  72 12:18:32  -242.360868c -4.12  -3.88
iter:  73 12:20:58  -242.360877c -4.13  -3.85
iter:  74 12:23:33  -242.360872c -4.32  -3.84
Writing to output.gpw (mode='')

iter:  75 12:26:10  -242.360890c -4.39  -3.71
iter:  76 12:28:39  -242.360908c -4.42  -3.79
iter:  77 12:31:09  -242.360936c -4.36  -3.89
iter:  78 12:33:54  -242.360941c -4.59  -4.11c
iter:  79 12:36:35  -242.360966c -4.50  -4.12c
Writing to output.gpw (mode='')

iter:  80 12:39:20  -242.360963c -4.73  -4.31c
iter:  81 12:41:46  -242.360967c -4.80  -4.34c
iter:  82 12:44:14  -242.360969c -4.78  -4.31c
iter:  83 12:46:44  -242.360972c -4.78  -4.38c
iter:  84 12:49:20  -242.360977c -4.74  -4.38c
Writing to output.gpw (mode='')

iter:  85 12:51:58  -242.360972c -4.88  -4.42c
iter:  86 12:54:38  -242.360976c -4.84  -4.29c
iter:  87 12:57:06  -242.360977c -5.04  -4.35c
iter:  88 12:59:45  -242.360984c -4.99  -4.33c
iter:  89 13:02:20  -242.360988c -4.95  -4.47c
Writing to output.gpw (mode='')

iter:  90 13:04:57  -242.360985c -5.10  -4.52c
iter:  91 13:07:28  -242.360988c -5.17  -4.78c
iter:  92 13:10:00  -242.360988c -5.21  -4.82c
iter:  93 13:12:36  -242.360991c -5.03  -4.96c
iter:  94 13:15:10  -242.360991c -5.20  -5.15c
Writing to output.gpw (mode='')

iter:  95 13:17:35  -242.360992c -5.18  -5.15c
iter:  96 13:20:08  -242.360994c -5.37  -5.21c
iter:  97 13:22:44  -242.360993c -5.43  -5.36c
iter:  98 13:25:19  -242.360994c -5.47  -5.41c
iter:  99 13:27:47  -242.360994c -5.47  -5.48c
Writing to output.gpw (mode='')

iter: 100 13:30:19  -242.360995c -5.36  -5.50c
iter: 101 13:32:42  -242.360995c -5.53  -5.54c
iter: 102 13:35:14  -242.360995c -5.57  -5.51c
iter: 103 13:37:40  -242.360996c -5.42  -5.43c
iter: 104 13:40:09  -242.360996c -5.49  -5.48c
Writing to output.gpw (mode='')

iter: 105 13:42:39  -242.360996c -5.52  -5.46c
iter: 106 13:45:12  -242.360996c -5.51  -5.40c
iter: 107 13:47:40  -242.360996c -5.68  -5.34c
iter: 108 13:50:15  -242.360996c -5.68  -5.21c
iter: 109 13:52:44  -242.360996c -5.64  -5.19c
Writing to output.gpw (mode='')

iter: 110 13:55:12  -242.360996c -5.77  -5.14c
iter: 111 13:57:37  -242.360996c -5.83  -5.13c
iter: 112 14:00:07  -242.360996c -5.88  -5.10c
iter: 113 14:02:32  -242.360996c -5.93  -5.06c
iter: 114 14:05:14  -242.360997c -5.90  -5.08c
Writing to output.gpw (mode='')

iter: 115 14:07:45  -242.360997c -6.03  -5.16c
iter: 116 14:10:15  -242.360997c -5.97  -5.12c
iter: 117 14:12:49  -242.360997c -6.06  -5.08c
iter: 118 14:15:19  -242.360997c -6.19  -5.30c
iter: 119 14:17:50  -242.360996c -6.00  -5.13c
Writing to output.gpw (mode='')

iter: 120 14:20:23  -242.360997c -6.17  -5.00c
iter: 121 14:22:59  -242.360997c -6.14  -5.23c
iter: 122 14:25:32  -242.360998c -6.15  -5.37c
iter: 123 14:28:08  -242.360998c -6.14  -5.40c
iter: 124 14:30:42  -242.360998c -6.22  -5.52c
Writing to output.gpw (mode='')

iter: 125 14:33:12  -242.360998c -6.10  -5.56c
iter: 126 14:35:38  -242.360998c -6.34  -5.78c
iter: 127 14:38:12  -242.360998c -6.45  -5.67c
iter: 128 14:40:43  -242.360998c -6.44  -5.85c
iter: 129 14:43:08  -242.360998c -6.44  -5.98c
Writing to output.gpw (mode='')

iter: 130 14:45:44  -242.360998c -6.38  -6.11c
iter: 131 14:48:16  -242.360998c -6.42  -6.15c
iter: 132 14:50:45  -242.360998c -6.49  -6.19c
iter: 133 14:53:10  -242.360998c -6.57  -6.21c
iter: 134 14:55:48  -242.360998c -6.65  -6.30c
Writing to output.gpw (mode='')

iter: 135 14:58:15  -242.360998c -6.60  -6.36c
iter: 136 15:00:38  -242.360998c -6.67  -6.47c
iter: 137 15:03:04  -242.360998c -6.70  -6.53c
iter: 138 15:05:29  -242.360998c -6.69  -6.43c
iter: 139 15:07:59  -242.360998c -6.72  -6.28c
Writing to output.gpw (mode='')

iter: 140 15:10:26  -242.360998c -6.77  -6.15c
iter: 141 15:12:48  -242.360997c -6.88  -6.08c
iter: 142 15:15:17  -242.360997c -6.90  -6.01c
iter: 143 15:17:53  -242.360997c -6.88  -5.98c
iter: 144 15:20:20  -242.360997c -6.91  -5.97c
Writing to output.gpw (mode='')

iter: 145 15:22:49  -242.360997c -6.83  -5.93c
iter: 146 15:25:19  -242.360997c -7.02  -5.89c
iter: 147 15:27:37  -242.360997c -7.07  -5.83c
iter: 148 15:30:07  -242.360997c -7.11  -5.83c
iter: 149 15:32:42  -242.360997c -7.04  -5.78c
Writing to output.gpw (mode='')

iter: 150 15:35:09  -242.360997c -7.00  -5.81c
iter: 151 15:37:30  -242.360997c -7.13  -5.80c
iter: 152 15:40:04  -242.360997c -7.17  -5.73c
iter: 153 15:42:37  -242.360997c -7.22  -5.82c
iter: 154 15:45:05  -242.360997c -7.00  -5.79c
Writing to output.gpw (mode='')

iter: 155 15:47:34  -242.360997c -6.91  -5.66c
iter: 156 15:50:01  -242.360997c -7.06  -5.99c
iter: 157 15:52:32  -242.360997c -7.05  -6.13c
iter: 158 15:54:59  -242.360997c -7.03  -6.15c
iter: 159 15:57:27  -242.360997c -7.15  -6.19c
Writing to output.gpw (mode='')

iter: 160 15:59:53  -242.360997c -7.24  -6.33c
iter: 161 16:02:32  -242.360997c -7.36  -6.38c
iter: 162 16:05:02  -242.360997c -7.34  -6.40c
iter: 163 16:07:42  -242.360997c -7.32  -6.43c
iter: 164 16:10:13  -242.360997c -7.37  -6.48c
Writing to output.gpw (mode='')

iter: 165 16:12:34  -242.360997c -7.51c -6.52c

Converged after 165 iterations.

Dipole moment: (-16.031245, -3.658759, 0.268040) |e|*Ang

Energy contributions relative to reference atoms: (reference = -12990.375485)

Kinetic:       +160.048313
Potential:     -132.793988
External:        +0.000000
XC:            -269.913869
Entropy (-ST):   -0.158770
Local:           +0.377933
--------------------------
Free energy:   -242.440382
Extrapolated:  -242.360997

Dipole-layer corrected work functions: 3.377295, 2.862031 eV

Showing only first 2 kpts
 Kpt  Band  Eigenvalues  Occupancy
  0    25     -3.37109    1.98699
  0    26     -3.26659    1.89943
  0    27     -2.99210    0.14469
  0    28     -2.88722    0.01896

  1    25     -3.16009    1.38358
  1    26     -3.13498    1.15199
  1    27     -3.07629    0.59157
  1    28     -3.03644    0.31831


Fermi level: -3.11966

Gap: 0.020 eV
Transition (v -> c):
  (s=0, k=1, n=26, [0.12, -0.12, 0.00]) -> (s=0, k=7, n=27, [0.38, 0.38, 0.00])

Forces in eV/Ang:
  0 Li    0.01844   -0.00193   -0.27701
  1 Li   -0.00435    0.00144   -0.26926
  2 Li   -0.01385   -0.00347   -0.27111
  3 Li   -0.00025    0.01169   -0.27484
  4 Li    0.00153   -0.00335   -0.26795
  5 Li   -0.00274    0.01813   -0.27348
  6 Li   -0.00606   -0.00831   -0.26623
  7 Li    0.00223   -0.00068   -0.27888
  8 Li    0.00253   -0.01451   -0.26540
  9 Li    0.00095    0.00043    0.29163
 10 Li    0.00671   -0.00196    0.26411
 11 Li   -0.00853   -0.00703    0.26246
 12 Li   -0.00077   -0.00458    0.32699
 13 Li    0.01723    0.00003    0.25696
 14 Li   -0.01733    0.00268    0.26189
 15 Li   -0.00472    0.00090    0.24543
 16 Li   -0.00296    0.00325    0.26168
 17 Li    0.00968    0.00767    0.24695
 18 Li    0.03282   -0.00447   -0.07178
 19 Li    0.00346    0.00420    0.05994
 20 Li   -0.03378   -0.00857   -0.08871
 21 Li    0.00535   -0.00622   -0.00346
 22 Li    0.00379    0.01395    0.04276
 23 Li   -0.00683   -0.00594    0.00376
 24 Li   -0.01491    0.01478    0.06589
 25 Li    0.00199   -0.01801    0.01168
 26 Li    0.01448    0.01825    0.07221
 27 Li    0.01028    0.03248    0.18339
 28 Li    0.06095   -0.02573   -0.02544
 29 Li   -0.06690   -0.05351   -0.05634
 30 Li    0.00408    0.78380   -1.17670
 31 Li    0.06341    0.00770   -0.01493
 32 Li   -0.07397    0.03671   -0.04495
 33 Li   -0.00451    0.04545   -0.03077
 34 Li   -0.00280    0.01277   -0.02192
 35 Li    0.00580    0.00922   -0.02963
 36 F    -1.30739  -10.26492   25.43653
 37 H     3.42569   -0.16369    2.54266
 38 N    -2.00862   -6.49821  -15.77670
 39 N    -0.11637   16.04537  -11.04571

System changes: positions 

Initializing position-dependent things.

Density initialized from wave functions
       .-----------------------.  
      /|                       |  
     / |                       |  
    /  |                       |  
   /   |                       |  
  /    |                       |  
 *     |                       |  
 |     |                       |  
 |     |                       |  
 |     |                       |  
 |     |                       |  
 |     |                       |  
 |     |                       |  
 |     |                       |  
 |     |       Li      Li      |  
 |  H  |                  F    |  
 |     |     Li      Li    N Li|  
 |     |  Li      Li      Ni   |  
 | Li  |   Li      Li          |  
 |     |Li      Li      Li     |  
 Li    |                       |  
 |   LLi     LLi     LLi       |  
 |     |  Li      Li      Li   |  
 | Li  |   Li      Li          |  
 |     |Li      Li      Li     |  
 Li    | Li      Li            |  
 |    Li      Li      Li       |  
 |     |                       |  
 |     |                       |  
 |     |                       |  
 |     |                       |  
 |     |                       |  
 |     |                       |  
 |     .-----------------------.  
 |    /                       /   
 |   /                       /    
 |  /                       /     
 | /                       /      
 |/                       /       
 *-----------------------*        

Positions:
   0 Li     1.617037    1.617037   10.000000    ( 0.0000,  0.0000,  0.0000)
   1 Li     4.851111    1.617037   10.000000    ( 0.0000,  0.0000,  0.0000)
   2 Li     8.085185    1.617037   10.000000    ( 0.0000,  0.0000,  0.0000)
   3 Li     1.617037    4.851111   10.000000    ( 0.0000,  0.0000,  0.0000)
   4 Li     4.851111    4.851111   10.000000    ( 0.0000,  0.0000,  0.0000)
   5 Li     8.085185    4.851111   10.000000    ( 0.0000,  0.0000,  0.0000)
   6 Li     1.617037    8.085185   10.000000    ( 0.0000,  0.0000,  0.0000)
   7 Li     4.851111    8.085185   10.000000    ( 0.0000,  0.0000,  0.0000)
   8 Li     8.085185    8.085185   10.000000    ( 0.0000,  0.0000,  0.0000)
   9 Li     0.000000    0.000000   11.617037    ( 0.0000,  0.0000,  0.0000)
  10 Li     3.234074    0.000000   11.617037    ( 0.0000,  0.0000,  0.0000)
  11 Li     6.468148    0.000000   11.617037    ( 0.0000,  0.0000,  0.0000)
  12 Li     0.000000    3.234074   11.617037    ( 0.0000,  0.0000,  0.0000)
  13 Li     3.234074    3.234074   11.617037    ( 0.0000,  0.0000,  0.0000)
  14 Li     6.468148    3.234074   11.617037    ( 0.0000,  0.0000,  0.0000)
  15 Li     0.000000    6.468148   11.617037    ( 0.0000,  0.0000,  0.0000)
  16 Li     3.234074    6.468148   11.617037    ( 0.0000,  0.0000,  0.0000)
  17 Li     6.468148    6.468148   11.617037    ( 0.0000,  0.0000,  0.0000)
  18 Li     1.617086    1.617032   13.469623    ( 0.0000,  0.0000,  0.0000)
  19 Li     4.851116    1.617045   13.469817    ( 0.0000,  0.0000,  0.0000)
  20 Li     8.085135    1.617026   13.469599    ( 0.0000,  0.0000,  0.0000)
  21 Li     1.617046    4.851102   13.469724    ( 0.0000,  0.0000,  0.0000)
  22 Li     4.851117    4.851131   13.469793    ( 0.0000,  0.0000,  0.0000)
  23 Li     8.085174    4.851102   13.469735    ( 0.0000,  0.0000,  0.0000)
  24 Li     1.617016    8.085205   13.469824    ( 0.0000,  0.0000,  0.0000)
  25 Li     4.851114    8.085157   13.469746    ( 0.0000,  0.0000,  0.0000)
  26 Li     8.085205    8.085210   13.469833    ( 0.0000,  0.0000,  0.0000)
  27 Li     0.000015    0.000047   15.446206    ( 0.0000,  0.0000,  0.0000)
  28 Li     3.234163   -0.000037   15.445902    ( 0.0000,  0.0000,  0.0000)
  29 Li     6.468051   -0.000078   15.445857    ( 0.0000,  0.0000,  0.0000)
  30 Li     0.000006    3.235215   15.444225    ( 0.0000,  0.0000,  0.0000)
  31 Li     3.234169    3.234088   15.445916    ( 0.0000,  0.0000,  0.0000)
  32 Li     6.468038    3.234130   15.445873    ( 0.0000,  0.0000,  0.0000)
  33 Li    -0.000007    6.468214   15.445894    ( 0.0000,  0.0000,  0.0000)
  34 Li     3.234072    6.468164   15.445906    ( 0.0000,  0.0000,  0.0000)
  35 Li     6.468154    6.468159   15.445895    ( 0.0000,  0.0000,  0.0000)
  36 F     -0.001904    1.602085   18.482991    ( 0.0000,  0.0000,  0.0000)
  37 H      0.932907    1.616798   18.449643    ( 0.0000,  0.0000,  0.0000)
  38 N     -0.002926    1.607535   17.172959    ( 0.0000,  0.0000,  0.0000)
  39 N     -0.000170    2.736994   17.179850    ( 0.0000,  0.0000,  0.0000)

Unit cell:
           periodic     x           y           z      points  spacing
  1. axis:    yes    9.702222    0.000000    0.000000    60     0.1617
  2. axis:    yes    0.000000    9.702222    0.000000    60     0.1617
  3. axis:    no     0.000000    0.000000   26.601111   168     0.1583

  Lengths:   9.702222   9.702222  26.601111
  Angles:   90.000000  90.000000  90.000000

Effective grid spacing dv^(1/3) = 0.1606

     iter     time        total  log10-change:
                         energy  eigst   dens
iter:   1 16:15:33  -245.280176  -0.14
iter:   2 16:18:10  -244.928630  +0.11  -1.10
iter:   3 16:20:41  -244.248536  -0.50  -1.12
iter:   4 16:23:08  -244.241581  -0.86  -1.80
Writing to output.gpw (mode='')

iter:   5 16:25:33  -244.237813c -1.23  -1.89
iter:   6 16:27:57  -244.223720c -0.83  -1.87
iter:   7 16:30:32  -244.245344c -1.93  -2.09
iter:   8 16:33:04  -244.226289c -1.46  -1.83
iter:   9 16:35:37  -244.224358c -2.16  -2.21
Writing to output.gpw (mode='')

iter:  10 16:38:13  -244.221129c -1.98  -2.30
iter:  11 16:40:48  -244.221618c -2.46  -2.56
iter:  12 16:43:11  -244.221483c -2.44  -2.64
iter:  13 16:45:42  -244.221912c -2.51  -2.76
iter:  14 16:48:20  -244.221865c -2.87  -2.79
Writing to output.gpw (mode='')

iter:  15 16:50:48  -244.222058c -3.30  -2.86
iter:  16 16:53:25  -244.222122c -3.47  -3.00
iter:  17 16:55:56  -244.222142c -3.60  -3.00
iter:  18 16:58:28  -244.222125c -3.40  -3.06
iter:  19 17:01:02  -244.222197c -3.96  -3.16
Writing to output.gpw (mode='')

iter:  20 17:03:30  -244.222208c -4.08  -3.23
iter:  21 17:06:06  -244.222222c -4.09  -3.33
iter:  22 17:08:35  -244.222194c -4.24  -3.55
iter:  23 17:11:01  -244.222208c -4.10  -3.61
iter:  24 17:13:31  -244.222212c -4.58  -3.83
Writing to output.gpw (mode='')

iter:  25 17:15:55  -244.222218c -4.57  -3.87
iter:  26 17:18:30  -244.222214c -4.50  -3.93
iter:  27 17:21:02  -244.222218c -4.75  -3.97
iter:  28 17:23:40  -244.222221c -4.97  -3.99
iter:  29 17:26:08  -244.222215c -5.04  -4.11c
Writing to output.gpw (mode='')

iter:  30 17:28:45  -244.222219c -5.26  -4.38c
iter:  31 17:31:19  -244.222223c -5.17  -4.40c
iter:  32 17:33:51  -244.222219c -5.27  -4.45c
iter:  33 17:36:24  -244.222221c -5.13  -4.50c
iter:  34 17:38:52  -244.222223c -5.31  -4.58c
Writing to output.gpw (mode='')

iter:  35 17:41:22  -244.222225c -5.51  -4.57c
iter:  36 17:43:58  -244.222222c -5.61  -4.58c
iter:  37 17:46:21  -244.222222c -5.88  -4.83c
iter:  38 17:48:57  -244.222224c -5.54  -4.91c
iter:  39 17:51:25  -244.222224c -5.93  -4.89c
Writing to output.gpw (mode='')

iter:  40 17:53:50  -244.222225c -6.02  -5.04c
iter:  41 17:56:20  -244.222225c -6.12  -5.03c
iter:  42 17:58:52  -244.222224c -6.11  -4.87c
iter:  43 18:01:20  -244.222225c -6.21  -4.91c
iter:  44 18:03:55  -244.222225c -6.34  -4.96c
Writing to output.gpw (mode='')

iter:  45 18:06:26  -244.222225c -6.26  -4.91c
iter:  46 18:09:01  -244.222225c -6.29  -4.96c
iter:  47 18:11:38  -244.222225c -6.39  -4.95c
iter:  48 18:14:11  -244.222225c -6.47  -4.90c
iter:  49 18:16:43  -244.222225c -6.53  -4.81c
Writing to output.gpw (mode='')

iter:  50 18:19:14  -244.222226c -6.41  -4.90c
iter:  51 18:21:51  -244.222226c -6.77  -4.84c
iter:  52 18:24:19  -244.222225c -6.57  -4.81c
iter:  53 18:26:53  -244.222225c -6.69  -5.00c
iter:  54 18:29:24  -244.222225c -6.83  -5.02c
Writing to output.gpw (mode='')

iter:  55 18:31:58  -244.222225c -6.74  -5.05c
iter:  56 18:34:28  -244.222225c -6.78  -5.05c
iter:  57 18:36:58  -244.222224c -6.92  -5.11c
iter:  58 18:39:29  -244.222225c -7.07  -5.17c
iter:  59 18:41:54  -244.222224c -6.95  -5.20c
Writing to output.gpw (mode='')

iter:  60 18:44:21  -244.222224c -7.22  -5.29c
iter:  61 18:46:49  -244.222225c -7.31  -5.34c
iter:  62 18:49:20  -244.222224c -7.42c -5.54c

Converged after 62 iterations.

Dipole moment: (-15.636398, -3.586296, 0.257052) |e|*Ang

Energy contributions relative to reference atoms: (reference = -12990.375485)

Kinetic:       +149.262802
Potential:     -125.562324
External:        +0.000000
XC:            -268.224580
Entropy (-ST):   -0.159919
Local:           +0.381837
--------------------------
Free energy:   -244.302184
Extrapolated:  -244.222224

Dipole-layer corrected work functions: 3.379632, 2.885490 eV

Showing only first 2 kpts
 Kpt  Band  Eigenvalues  Occupancy
  0    25     -3.38382    1.98694
  0    26     -3.27757    1.89571
  0    27     -3.01703    0.18048
  0    28     -2.89818    0.01825

  1    25     -3.17663    1.41425
  1    26     -3.14529    1.12657
  1    27     -3.07945    0.51377
  1    28     -3.04801    0.31130


Fermi level: -3.13256

Gap: 0.020 eV
Transition (v -> c):
  (s=0, k=1, n=26, [0.12, -0.12, 0.00]) -> (s=0, k=7, n=27, [0.38, 0.38, 0.00])
Writing to output.gpw (mode='')


Forces in eV/Ang:
  0 Li    0.01994   -0.00255   -0.27745
  1 Li   -0.00413    0.00160   -0.26996
  2 Li   -0.01541   -0.00336   -0.27286
  3 Li   -0.00040    0.01316   -0.27498
  4 Li    0.00105   -0.00512   -0.26641
  5 Li   -0.00183    0.01836   -0.27375
  6 Li   -0.00646   -0.00901   -0.26672
  7 Li    0.00142    0.00114   -0.27907
  8 Li    0.00415   -0.01447   -0.26458
  9 Li    0.00093   -0.00117    0.29074
 10 Li    0.00738   -0.00193    0.26249
 11 Li   -0.00940   -0.00564    0.26376
 12 Li    0.00004   -0.00380    0.32962
 13 Li    0.01699   -0.00038    0.25615
 14 Li   -0.01759    0.00246    0.26217
 15 Li   -0.00446    0.00132    0.24554
 16 Li   -0.00242    0.00397    0.26091
 17 Li    0.00832    0.00669    0.24794
 18 Li    0.03149   -0.00553   -0.07732
 19 Li    0.00183    0.00523    0.06508
 20 Li   -0.03146   -0.00900   -0.09446
 21 Li    0.00671   -0.00631   -0.00454
 22 Li    0.00261    0.01246    0.04394
 23 Li   -0.00774   -0.00554    0.00119
 24 Li   -0.01593    0.01522    0.06626
 25 Li    0.00329   -0.01880    0.01123
 26 Li    0.01403    0.01773    0.07038
 27 Li    0.00819    0.05032    0.21952
 28 Li    0.06425   -0.03298   -0.03353
 29 Li   -0.06703   -0.05410   -0.05157
 30 Li    0.00454    0.80458   -1.29494
 31 Li    0.06433    0.01381   -0.02221
 32 Li   -0.06845    0.03705   -0.03545
 33 Li   -0.00320    0.04209   -0.02916
 34 Li   -0.00318    0.01215   -0.02170
 35 Li    0.00527    0.00880   -0.02913
 36 F    -0.51400   -8.29469   21.17645
 37 H     2.26035   -0.08000    2.10379
 38 N    -1.69287   -2.23917  -13.50624
 39 N    -0.05889    9.68884   -8.51625

System changes: positions 

Initializing position-dependent things.

Density initialized from wave functions
       .-----------------------.  
      /|                       |  
     / |                       |  
    /  |                       |  
   /   |                       |  
  /    |                       |  
 *     |                       |  
 |     |                       |  
 |     |                       |  
 |     |                       |  
 |     |                       |  
 |     |                       |  
 |     |                       |  
 |     |                       |  
 |     |       Li      Li      |  
 |F H  |                       |  
 |     |     Li      Li    N Li|  
 |     |  Li      Li      Ni   |  
 | Li  |   Li      Li          |  
 |     |Li      Li      Li     |  
 Li    |                       |  
 |   LLi     LLi     LLi       |  
 |     |  Li      Li      Li   |  
 | Li  |   Li      Li          |  
 |     |Li      Li      Li     |  
 Li    | Li      Li            |  
 |    Li      Li      Li       |  
 |     |                       |  
 |     |                       |  
 |     |                       |  
 |     |                       |  
 |     |                       |  
 |     |                       |  
 |     .-----------------------.  
 |    /                       /   
 |   /                       /    
 |  /                       /     
 | /                       /      
 |/                       /       
 *-----------------------*        

Positions:
   0 Li     1.617037    1.617037   10.000000    ( 0.0000,  0.0000,  0.0000)
   1 Li     4.851111    1.617037   10.000000    ( 0.0000,  0.0000,  0.0000)
   2 Li     8.085185    1.617037   10.000000    ( 0.0000,  0.0000,  0.0000)
   3 Li     1.617037    4.851111   10.000000    ( 0.0000,  0.0000,  0.0000)
   4 Li     4.851111    4.851111   10.000000    ( 0.0000,  0.0000,  0.0000)
   5 Li     8.085185    4.851111   10.000000    ( 0.0000,  0.0000,  0.0000)
   6 Li     1.617037    8.085185   10.000000    ( 0.0000,  0.0000,  0.0000)
   7 Li     4.851111    8.085185   10.000000    ( 0.0000,  0.0000,  0.0000)
   8 Li     8.085185    8.085185   10.000000    ( 0.0000,  0.0000,  0.0000)
   9 Li     0.000000    0.000000   11.617037    ( 0.0000,  0.0000,  0.0000)
  10 Li     3.234074    0.000000   11.617037    ( 0.0000,  0.0000,  0.0000)
  11 Li     6.468148    0.000000   11.617037    ( 0.0000,  0.0000,  0.0000)
  12 Li     0.000000    3.234074   11.617037    ( 0.0000,  0.0000,  0.0000)
  13 Li     3.234074    3.234074   11.617037    ( 0.0000,  0.0000,  0.0000)
  14 Li     6.468148    3.234074   11.617037    ( 0.0000,  0.0000,  0.0000)
  15 Li     0.000000    6.468148   11.617037    ( 0.0000,  0.0000,  0.0000)
  16 Li     3.234074    6.468148   11.617037    ( 0.0000,  0.0000,  0.0000)
  17 Li     6.468148    6.468148   11.617037    ( 0.0000,  0.0000,  0.0000)
  18 Li     1.617165    1.617012   13.469386    ( 0.0000,  0.0000,  0.0000)
  19 Li     4.851113    1.617064   13.470019    ( 0.0000,  0.0000,  0.0000)
  20 Li     8.085060    1.616999   13.469314    ( 0.0000,  0.0000,  0.0000)
  21 Li     1.617071    4.851084   13.469707    ( 0.0000,  0.0000,  0.0000)
  22 Li     4.851118    4.851158   13.469918    ( 0.0000,  0.0000,  0.0000)
  23 Li     8.085148    4.851089   13.469726    ( 0.0000,  0.0000,  0.0000)
  24 Li     1.616968    8.085249   13.470006    ( 0.0000,  0.0000,  0.0000)
  25 Li     4.851129    8.085102   13.469775    ( 0.0000,  0.0000,  0.0000)
  26 Li     8.085241    8.085256   13.470016    ( 0.0000,  0.0000,  0.0000)
  27 Li     0.000027    0.000269   15.446976    ( 0.0000,  0.0000,  0.0000)
  28 Li     3.234353   -0.000162   15.445772    ( 0.0000,  0.0000,  0.0000)
  29 Li     6.467867   -0.000228   15.445739    ( 0.0000,  0.0000,  0.0000)
  30 Li     0.000021    3.237508   15.440135    ( 0.0000,  0.0000,  0.0000)
  31 Li     3.234349    3.234154   15.445821    ( 0.0000,  0.0000,  0.0000)
  32 Li     6.467877    3.234233   15.445821    ( 0.0000,  0.0000,  0.0000)
  33 Li    -0.000009    6.468313   15.445822    ( 0.0000,  0.0000,  0.0000)
  34 Li     3.234062    6.468194   15.445848    ( 0.0000,  0.0000,  0.0000)
  35 Li     6.468166    6.468181   15.445818    ( 0.0000,  0.0000,  0.0000)
  36 F      0.000439    1.588764   18.520635    ( 0.0000,  0.0000,  0.0000)
  37 H      0.933570    1.616975   18.453309    ( 0.0000,  0.0000,  0.0000)
  38 N     -0.006052    1.621533   17.146841    ( 0.0000,  0.0000,  0.0000)
  39 N     -0.000059    2.733411   17.168564    ( 0.0000,  0.0000,  0.0000)

Unit cell:
           periodic     x           y           z      points  spacing
  1. axis:    yes    9.702222    0.000000    0.000000    60     0.1617
  2. axis:    yes    0.000000    9.702222    0.000000    60     0.1617
  3. axis:    no     0.000000    0.000000   26.601111   168     0.1583

  Lengths:   9.702222   9.702222  26.601111
  Angles:   90.000000  90.000000  90.000000

Effective grid spacing dv^(1/3) = 0.1606

     iter     time        total  log10-change:
                         energy  eigst   dens
iter:   1 18:52:33  -245.588062  -0.33
iter:   2 18:55:06  -245.535620  -0.61  -1.58
iter:   3 18:57:29  -245.514138  -1.07  -1.67
iter:   4 19:00:04  -245.475361  -1.12  -1.99
Writing to output.gpw (mode='')

iter:   5 19:02:48  -245.539038  -1.12  -2.10
iter:   6 19:05:22  -245.554093  -1.27  -1.90
iter:   7 19:07:59  -245.456350  -1.33  -1.79
iter:   8 19:10:34  -245.456688  -1.56  -2.32
iter:   9 19:12:59  -245.459928c -2.02  -2.32
Writing to output.gpw (mode='')

iter:  10 19:15:34  -245.459849c -2.29  -2.37
iter:  11 19:18:04  -245.456469c -1.90  -2.38
iter:  12 19:20:32  -245.455309c -2.36  -2.51
iter:  13 19:23:05  -245.455498c -2.75  -2.72
iter:  14 19:25:44  -245.455323c -2.98  -2.79
Writing to output.gpw (mode='')

iter:  15 19:28:16  -245.455835c -2.79  -2.96
iter:  16 19:30:46  -245.455561c -2.95  -2.85
iter:  17 19:33:20  -245.455500c -3.37  -3.04
iter:  18 19:35:52  -245.455589c -3.28  -3.13
iter:  19 19:38:16  -245.455615c -3.65  -3.43
Writing to output.gpw (mode='')

iter:  20 19:40:52  -245.455612c -4.09  -3.45
iter:  21 19:43:13  -245.455673c -3.98  -3.50
iter:  22 19:45:45  -245.455683c -3.80  -3.64
iter:  23 19:48:19  -245.455680c -4.38  -3.66
iter:  24 19:50:55  -245.455687c -4.53  -3.74
Writing to output.gpw (mode='')

iter:  25 19:53:34  -245.455685c -4.46  -3.85
iter:  26 19:55:57  -245.455690c -4.77  -3.97
iter:  27 19:58:21  -245.455696c -4.76  -4.01c
iter:  28 20:00:57  -245.455706c -4.88  -4.17c
iter:  29 20:03:33  -245.455706c -5.00  -4.23c
Writing to output.gpw (mode='')

iter:  30 20:06:14  -245.455709c -4.99  -4.24c
iter:  31 20:08:50  -245.455718c -5.03  -4.24c
iter:  32 20:11:22  -245.455718c -4.94  -4.39c
iter:  33 20:13:48  -245.455718c -5.43  -4.55c
iter:  34 20:16:30  -245.455720c -5.19  -4.54c
Writing to output.gpw (mode='')

iter:  35 20:19:03  -245.455724c -5.50  -4.59c
iter:  36 20:21:27  -245.455725c -5.54  -4.66c
iter:  37 20:24:00  -245.455722c -5.76  -4.70c
iter:  38 20:26:29  -245.455723c -6.05  -4.82c
iter:  39 20:28:59  -245.455726c -5.78  -4.83c
Writing to output.gpw (mode='')

iter:  40 20:31:23  -245.455726c -5.73  -4.88c
iter:  41 20:33:52  -245.455726c -6.07  -4.85c
iter:  42 20:36:28  -245.455726c -6.15  -4.79c
iter:  43 20:39:04  -245.455726c -6.43  -4.91c
iter:  44 20:41:35  -245.455725c -6.27  -4.98c
Writing to output.gpw (mode='')

iter:  45 20:43:58  -245.455727c -6.37  -4.83c
iter:  46 20:46:35  -245.455730c -6.32  -4.88c
iter:  47 20:49:06  -245.455730c -6.40  -4.98c
iter:  48 20:51:43  -245.455731c -6.46  -5.03c
iter:  49 20:54:23  -245.455732c -6.48  -5.07c
Writing to output.gpw (mode='')

iter:  50 20:56:52  -245.455732c -6.76  -5.12c
iter:  51 20:59:24  -245.455732c -6.49  -5.28c
iter:  52 21:01:52  -245.455732c -7.06  -5.42c
iter:  53 21:04:24  -245.455732c -6.94  -5.51c
iter:  54 21:06:58  -245.455732c -6.77  -5.63c
Writing to output.gpw (mode='')

iter:  55 21:09:33  -245.455733c -7.08  -5.67c
iter:  56 21:12:00  -245.455733c -7.27  -5.79c
iter:  57 21:14:24  -245.455733c -7.36  -5.95c
iter:  58 21:16:58  -245.455733c -7.28  -6.01c
iter:  59 21:19:29  -245.455733c -7.55c -6.01c

Converged after 59 iterations.

Dipole moment: (-15.568065, -3.535830, 0.253567) |e|*Ang

Energy contributions relative to reference atoms: (reference = -12990.375485)

Kinetic:       +147.820706
Potential:     -125.561348
External:        +0.000000
XC:            -268.019910
Entropy (-ST):   -0.158106
Local:           +0.383872
--------------------------
Free energy:   -245.534786
Extrapolated:  -245.455733

Dipole-layer corrected work functions: 3.379832, 2.892390 eV

Showing only first 2 kpts
 Kpt  Band  Eigenvalues  Occupancy
  0    25     -3.38829    1.98718
  0    26     -3.28460    1.90238
  0    27     -3.01488    0.16264
  0    28     -2.89791    0.01692

  1    25     -3.17689    1.38662
  1    26     -3.15012    1.13917
  1    27     -3.08278    0.51206
  1    28     -3.05585    0.33451


Fermi level: -3.13611

Gap: 0.018 eV
Transition (v -> c):
  (s=0, k=1, n=26, [0.12, -0.12, 0.00]) -> (s=0, k=7, n=27, [0.38, 0.38, 0.00])
Writing to output.gpw (mode='')


Forces in eV/Ang:
  0 Li    0.02032   -0.00299   -0.27670
  1 Li   -0.00395    0.00163   -0.26986
  2 Li   -0.01600   -0.00323   -0.27249
  3 Li   -0.00057    0.01367   -0.27422
  4 Li    0.00104   -0.00570   -0.26612
  5 Li   -0.00144    0.01827   -0.27351
  6 Li   -0.00649   -0.00909   -0.26690
  7 Li    0.00109    0.00175   -0.27969
  8 Li    0.00468   -0.01428   -0.26401
  9 Li    0.00074   -0.00189    0.28891
 10 Li    0.00860   -0.00198    0.26103
 11 Li   -0.01048   -0.00478    0.26332
 12 Li    0.00050   -0.00421    0.33014
 13 Li    0.01709   -0.00028    0.25493
 14 Li   -0.01799    0.00271    0.26059
 15 Li   -0.00416    0.00235    0.24415
 16 Li   -0.00300    0.00420    0.26076
 17 Li    0.00831    0.00559    0.24864
 18 Li    0.03125   -0.00629   -0.07362
 19 Li    0.00149    0.00541    0.06520
 20 Li   -0.03090   -0.00938   -0.08995
 21 Li    0.00579   -0.00741    0.00143
 22 Li    0.00164    0.01242    0.04442
 23 Li   -0.00631   -0.00671    0.00644
 24 Li   -0.01578    0.01626    0.06621
 25 Li    0.00389   -0.01928    0.00979
 26 Li    0.01333    0.01860    0.06990
 27 Li    0.00798    0.03265    0.19643
 28 Li    0.06265   -0.03307   -0.03653
 29 Li   -0.06513   -0.05201   -0.05106
 30 Li    0.00539    0.81195   -1.37378
 31 Li    0.07607    0.01594   -0.03722
 32 Li   -0.07636    0.03697   -0.04272
 33 Li   -0.00259    0.04177   -0.03204
 34 Li   -0.00553    0.00978   -0.02097
 35 Li    0.00721    0.00707   -0.02807
 36 F    -0.10304   -7.10091   18.95820
 37 H     1.64746   -0.14349    1.81810
 38 N    -1.41146   -3.10212  -12.43002
 39 N    -0.10200    9.44226   -6.98994

System changes: positions 

Initializing position-dependent things.

Density initialized from wave functions
       .-----------------------.  
      /|                       |  
     / |                       |  
    /  |                       |  
   /   |                       |  
  /    |                       |  
 *     |                       |  
 |     |                       |  
 |     |                       |  
 |     |                       |  
 |     |                       |  
 |     |                       |  
 |     |                       |  
 |     |                       |  
 |     |       Li      Li      |  
 |F H  |                       |  
 |     |     Li      Li    N Li|  
 |     |  Li      Li      Ni   |  
 | Li  |   Li      Li          |  
 |     |Li      Li      Li     |  
 Li    |                       |  
 |   LLi     LLi     LLi       |  
 |     |  Li      Li      Li   |  
 | Li  |   Li      Li          |  
 |     |Li      Li      Li     |  
 Li    | Li      Li            |  
 |    Li      Li      Li       |  
 |     |                       |  
 |     |                       |  
 |     |                       |  
 |     |                       |  
 |     |                       |  
 |     |                       |  
 |     .-----------------------.  
 |    /                       /   
 |   /                       /    
 |  /                       /     
 | /                       /      
 |/                       /       
 *-----------------------*        

Positions:
   0 Li     1.617037    1.617037   10.000000    ( 0.0000,  0.0000,  0.0000)
   1 Li     4.851111    1.617037   10.000000    ( 0.0000,  0.0000,  0.0000)
   2 Li     8.085185    1.617037   10.000000    ( 0.0000,  0.0000,  0.0000)
   3 Li     1.617037    4.851111   10.000000    ( 0.0000,  0.0000,  0.0000)
   4 Li     4.851111    4.851111   10.000000    ( 0.0000,  0.0000,  0.0000)
   5 Li     8.085185    4.851111   10.000000    ( 0.0000,  0.0000,  0.0000)
   6 Li     1.617037    8.085185   10.000000    ( 0.0000,  0.0000,  0.0000)
   7 Li     4.851111    8.085185   10.000000    ( 0.0000,  0.0000,  0.0000)
   8 Li     8.085185    8.085185   10.000000    ( 0.0000,  0.0000,  0.0000)
   9 Li     0.000000    0.000000   11.617037    ( 0.0000,  0.0000,  0.0000)
  10 Li     3.234074    0.000000   11.617037    ( 0.0000,  0.0000,  0.0000)
  11 Li     6.468148    0.000000   11.617037    ( 0.0000,  0.0000,  0.0000)
  12 Li     0.000000    3.234074   11.617037    ( 0.0000,  0.0000,  0.0000)
  13 Li     3.234074    3.234074   11.617037    ( 0.0000,  0.0000,  0.0000)
  14 Li     6.468148    3.234074   11.617037    ( 0.0000,  0.0000,  0.0000)
  15 Li     0.000000    6.468148   11.617037    ( 0.0000,  0.0000,  0.0000)
  16 Li     3.234074    6.468148   11.617037    ( 0.0000,  0.0000,  0.0000)
  17 Li     6.468148    6.468148   11.617037    ( 0.0000,  0.0000,  0.0000)
  18 Li     1.617293    1.616971   13.469061    ( 0.0000,  0.0000,  0.0000)
  19 Li     4.851107    1.617095   13.470338    ( 0.0000,  0.0000,  0.0000)
  20 Li     8.084942    1.616952   13.468923    ( 0.0000,  0.0000,  0.0000)
  21 Li     1.617096    4.851041   13.469761    ( 0.0000,  0.0000,  0.0000)
  22 Li     4.851109    4.851204   13.470125    ( 0.0000,  0.0000,  0.0000)
  23 Li     8.085128    4.851051   13.469787    ( 0.0000,  0.0000,  0.0000)
  24 Li     1.616894    8.085333   13.470301    ( 0.0000,  0.0000,  0.0000)
  25 Li     4.851159    8.085008   13.469803    ( 0.0000,  0.0000,  0.0000)
  26 Li     8.085291    8.085343   13.470310    ( 0.0000,  0.0000,  0.0000)
  27 Li     0.000048    0.000360   15.447851    ( 0.0000,  0.0000,  0.0000)
  28 Li     3.234635   -0.000352   15.445535    ( 0.0000,  0.0000,  0.0000)
  29 Li     6.467596   -0.000443   15.445546    ( 0.0000,  0.0000,  0.0000)
  30 Li     0.000055    3.241285   15.432647    ( 0.0000,  0.0000,  0.0000)
  31 Li     3.234796    3.234280   15.445478    ( 0.0000,  0.0000,  0.0000)
  32 Li     6.467501    3.234397   15.445623    ( 0.0000,  0.0000,  0.0000)
  33 Li    -0.000007    6.468475   15.445664    ( 0.0000,  0.0000,  0.0000)
  34 Li     3.234014    6.468213   15.445763    ( 0.0000,  0.0000,  0.0000)
  35 Li     6.468212    6.468194   15.445706    ( 0.0000,  0.0000,  0.0000)
  36 F      0.008447    1.579979   18.558828    ( 0.0000,  0.0000,  0.0000)
  37 H      0.928333    1.616269   18.456131    ( 0.0000,  0.0000,  0.0000)
  38 N     -0.007854    1.625539   17.115254    ( 0.0000,  0.0000,  0.0000)
  39 N     -0.000555    2.734829   17.166622    ( 0.0000,  0.0000,  0.0000)

Unit cell:
           periodic     x           y           z      points  spacing
  1. axis:    yes    9.702222    0.000000    0.000000    60     0.1617
  2. axis:    yes    0.000000    9.702222    0.000000    60     0.1617
  3. axis:    no     0.000000    0.000000   26.601111   168     0.1583

  Lengths:   9.702222   9.702222  26.601111
  Angles:   90.000000  90.000000  90.000000

Effective grid spacing dv^(1/3) = 0.1606

     iter     time        total  log10-change:
                         energy  eigst   dens
iter:   1 21:22:44  -246.611796  -0.41
iter:   2 21:25:11  -246.620136  -0.87  -1.90
iter:   3 21:27:35  -246.624729c -1.16  -2.01
iter:   4 21:29:57  -246.686942  -0.82  -2.21
Writing to output.gpw (mode='')

iter:   5 21:32:29  -246.612516  -1.42  -2.01
iter:   6 21:34:52  -246.602832  -1.57  -2.25
iter:   7 21:37:18  -246.600401c -1.77  -2.32
iter:   8 21:39:49  -246.598961c -2.13  -2.40
iter:   9 21:42:14  -246.598854c -2.45  -2.34
Writing to output.gpw (mode='')

iter:  10 21:44:37  -246.598100c -2.42  -2.70
iter:  11 21:47:12  -246.598653c -2.20  -2.84
iter:  12 21:49:44  -246.597903c -2.89  -2.92
iter:  13 21:52:16  -246.598009c -3.27  -3.07
iter:  14 21:54:48  -246.597994c -3.40  -3.10
Writing to output.gpw (mode='')

iter:  15 21:57:23  -246.598049c -3.38  -3.15
iter:  16 21:59:53  -246.598000c -3.89  -3.33
iter:  17 22:02:22  -246.598008c -3.86  -3.35
iter:  18 22:04:51  -246.598055c -3.86  -3.41
iter:  19 22:07:20  -246.598071c -4.13  -3.47
Writing to output.gpw (mode='')

iter:  20 22:09:53  -246.598042c -4.09  -3.62
iter:  21 22:12:18  -246.598051c -4.62  -3.72
iter:  22 22:14:45  -246.598044c -4.44  -3.77
iter:  23 22:17:10  -246.598049c -4.64  -3.96
iter:  24 22:19:47  -246.598054c -4.63  -3.99
Writing to output.gpw (mode='')

iter:  25 22:22:12  -246.598059c -4.87  -4.07c
iter:  26 22:24:33  -246.598061c -4.91  -4.20c
iter:  27 22:27:03  -246.598065c -4.86  -4.36c
iter:  28 22:29:29  -246.598064c -5.23  -4.40c
iter:  29 22:31:59  -246.598066c -5.29  -4.38c
Writing to output.gpw (mode='')

iter:  30 22:34:30  -246.598066c -5.40  -4.60c
iter:  31 22:36:58  -246.598068c -5.42  -4.64c
iter:  32 22:39:24  -246.598070c -5.63  -4.69c
iter:  33 22:41:58  -246.598070c -5.60  -4.85c
iter:  34 22:44:27  -246.598069c -5.63  -4.89c
Writing to output.gpw (mode='')

iter:  35 22:47:03  -246.598069c -5.66  -4.91c
iter:  36 22:49:28  -246.598070c -5.90  -4.93c
iter:  37 22:51:59  -246.598070c -5.97  -4.89c
iter:  38 22:54:29  -246.598070c -6.01  -4.94c
iter:  39 22:56:56  -246.598071c -6.19  -4.97c
Writing to output.gpw (mode='')

iter:  40 22:59:32  -246.598071c -6.37  -4.96c
iter:  41 23:01:54  -246.598073c -6.30  -4.99c
iter:  42 23:04:24  -246.598073c -6.46  -5.07c
iter:  43 23:07:00  -246.598073c -6.74  -5.11c
iter:  44 23:09:20  -246.598073c -6.53  -5.27c
Writing to output.gpw (mode='')

iter:  45 23:11:49  -246.598074c -6.87  -5.24c
iter:  46 23:14:11  -246.598073c -6.68  -5.35c
iter:  47 23:16:36  -246.598073c -6.69  -5.59c
iter:  48 23:18:58  -246.598074c -6.93  -5.67c
iter:  49 23:21:19  -246.598073c -6.96  -5.78c
Writing to output.gpw (mode='')

iter:  50 23:23:52  -246.598074c -6.86  -5.92c
iter:  51 23:26:15  -246.598074c -7.27  -5.92c
iter:  52 23:28:47  -246.598074c -7.07  -6.01c
iter:  53 23:31:21  -246.598074c -7.38  -5.99c
iter:  54 23:33:55  -246.598074c -7.54c -5.91c

Converged after 54 iterations.

Dipole moment: (-16.101776, -3.448983, 0.232417) |e|*Ang

Energy contributions relative to reference atoms: (reference = -12990.375485)

Kinetic:       +144.978226
Potential:     -124.222808
External:        +0.000000
XC:            -267.661046
Entropy (-ST):   -0.157423
Local:           +0.386267
--------------------------
Free energy:   -246.676785
Extrapolated:  -246.598074

Dipole-layer corrected work functions: 3.382602, 2.935817 eV

Showing only first 2 kpts
 Kpt  Band  Eigenvalues  Occupancy
  0    25     -3.41192    1.98732
  0    26     -3.31035    1.90719
  0    27     -3.04055    0.17049
  0    28     -2.91787    0.01590

  1    25     -3.20247    1.40751
  1    26     -3.17068    1.11419
  1    27     -3.10017    0.46984
  1    28     -3.08061    0.34384


Fermi level: -3.15921

Gap: 0.015 eV
Transition (v -> c):
  (s=0, k=1, n=26, [0.12, -0.12, 0.00]) -> (s=0, k=7, n=27, [0.38, 0.38, 0.00])
Writing to output.gpw (mode='')


Forces in eV/Ang:
  0 Li    0.02080   -0.00348   -0.27629
  1 Li   -0.00350    0.00159   -0.26982
  2 Li   -0.01694   -0.00334   -0.27306
  3 Li   -0.00060    0.01457   -0.27418
  4 Li    0.00070   -0.00658   -0.26588
  5 Li   -0.00089    0.01812   -0.27373
  6 Li   -0.00642   -0.00944   -0.26689
  7 Li    0.00055    0.00286   -0.28053
  8 Li    0.00537   -0.01384   -0.26346
  9 Li    0.00070   -0.00316    0.28703
 10 Li    0.01013   -0.00189    0.25910
 11 Li   -0.01206   -0.00388    0.26262
 12 Li    0.00086   -0.00422    0.33186
 13 Li    0.01685   -0.00022    0.25383
 14 Li   -0.01786    0.00258    0.25975
 15 Li   -0.00343    0.00353    0.24311
 16 Li   -0.00350    0.00423    0.26020
 17 Li    0.00779    0.00493    0.24977
 18 Li    0.03025   -0.00781   -0.07208
 19 Li    0.00087    0.00593    0.06689
 20 Li   -0.02945   -0.01075   -0.08768
 21 Li    0.00576   -0.00715    0.00420
 22 Li    0.00093    0.01121    0.04513
 23 Li   -0.00595   -0.00581    0.00747
 24 Li   -0.01556    0.01703    0.06607
 25 Li    0.00425   -0.01930    0.00916
 26 Li    0.01270    0.01885    0.06822
 27 Li    0.00643    0.03061    0.19311
 28 Li    0.06201   -0.03598   -0.04308
 29 Li   -0.06236   -0.04992   -0.04880
 30 Li    0.00354    0.77674   -1.33719
 31 Li    0.08316    0.02012   -0.04967
 32 Li   -0.07939    0.03614   -0.04439
 33 Li   -0.00153    0.03961   -0.03312
 34 Li   -0.00721    0.00787   -0.02056
 35 Li    0.00801    0.00568   -0.02706
 36 F    -0.23398   -6.15909   16.89973
 37 H     1.59456   -0.15470    1.54645
 38 N    -1.25599   -2.53137  -11.17962
 39 N    -0.16042    8.00889   -5.86967

System changes: positions 

Initializing position-dependent things.

Density initialized from wave functions
       .-----------------------.  
      /|                       |  
     / |                       |  
    /  |                       |  
   /   |                       |  
  /    |                       |  
 *     |                       |  
 |     |                       |  
 |     |                       |  
 |     |                       |  
 |     |                       |  
 |     |                       |  
 |     |                       |  
 |     |                       |  
 |     |       Li      Li      |  
 |F H  |                       |  
 |   Li|     Li      Li    N   |  
 |     |  Li      Li      Ni   |  
 | Li  |   Li      Li          |  
 |     |Li      Li      Li     |  
 Li    |                       |  
 |   LLi     LLi     LLi       |  
 |     |  Li      Li      Li   |  
 | Li  |   Li      Li          |  
 |     |Li      Li      Li     |  
 Li    | Li      Li            |  
 |    Li      Li      Li       |  
 |     |                       |  
 |     |                       |  
 |     |                       |  
 |     |                       |  
 |     |                       |  
 |     |                       |  
 |     .-----------------------.  
 |    /                       /   
 |   /                       /    
 |  /                       /     
 | /                       /      
 |/                       /       
 *-----------------------*        

Positions:
   0 Li     1.617037    1.617037   10.000000    ( 0.0000,  0.0000,  0.0000)
   1 Li     4.851111    1.617037   10.000000    ( 0.0000,  0.0000,  0.0000)
   2 Li     8.085185    1.617037   10.000000    ( 0.0000,  0.0000,  0.0000)
   3 Li     1.617037    4.851111   10.000000    ( 0.0000,  0.0000,  0.0000)
   4 Li     4.851111    4.851111   10.000000    ( 0.0000,  0.0000,  0.0000)
   5 Li     8.085185    4.851111   10.000000    ( 0.0000,  0.0000,  0.0000)
   6 Li     1.617037    8.085185   10.000000    ( 0.0000,  0.0000,  0.0000)
   7 Li     4.851111    8.085185   10.000000    ( 0.0000,  0.0000,  0.0000)
   8 Li     8.085185    8.085185   10.000000    ( 0.0000,  0.0000,  0.0000)
   9 Li     0.000000    0.000000   11.617037    ( 0.0000,  0.0000,  0.0000)
  10 Li     3.234074    0.000000   11.617037    ( 0.0000,  0.0000,  0.0000)
  11 Li     6.468148    0.000000   11.617037    ( 0.0000,  0.0000,  0.0000)
  12 Li     0.000000    3.234074   11.617037    ( 0.0000,  0.0000,  0.0000)
  13 Li     3.234074    3.234074   11.617037    ( 0.0000,  0.0000,  0.0000)
  14 Li     6.468148    3.234074   11.617037    ( 0.0000,  0.0000,  0.0000)
  15 Li     0.000000    6.468148   11.617037    ( 0.0000,  0.0000,  0.0000)
  16 Li     3.234074    6.468148   11.617037    ( 0.0000,  0.0000,  0.0000)
  17 Li     6.468148    6.468148   11.617037    ( 0.0000,  0.0000,  0.0000)
  18 Li     1.617454    1.616898   13.468653    ( 0.0000,  0.0000,  0.0000)
  19 Li     4.851095    1.617142   13.470778    ( 0.0000,  0.0000,  0.0000)
  20 Li     8.084798    1.616870   13.468435    ( 0.0000,  0.0000,  0.0000)
  21 Li     1.617129    4.850991   13.469858    ( 0.0000,  0.0000,  0.0000)
  22 Li     4.851094    4.851251   13.470409    ( 0.0000,  0.0000,  0.0000)
  23 Li     8.085104    4.851017   13.469873    ( 0.0000,  0.0000,  0.0000)
  24 Li     1.616800    8.085452   13.470692    ( 0.0000,  0.0000,  0.0000)
  25 Li     4.851200    8.084885   13.469836    ( 0.0000,  0.0000,  0.0000)
  26 Li     8.085352    8.085462   13.470684    ( 0.0000,  0.0000,  0.0000)
  27 Li     0.000059    0.000460   15.448949    ( 0.0000,  0.0000,  0.0000)
  28 Li     3.235000   -0.000630   15.445151    ( 0.0000,  0.0000,  0.0000)
  29 Li     6.467268   -0.000703   15.445308    ( 0.0000,  0.0000,  0.0000)
  30 Li     0.000069    3.245734   15.423746    ( 0.0000,  0.0000,  0.0000)
  31 Li     3.235462    3.234489   15.444899    ( 0.0000,  0.0000,  0.0000)
  32 Li     6.466963    3.234604   15.445331    ( 0.0000,  0.0000,  0.0000)
  33 Li     0.000006    6.468669   15.445441    ( 0.0000,  0.0000,  0.0000)
  34 Li     3.233933    6.468217   15.445653    ( 0.0000,  0.0000,  0.0000)
  35 Li     6.468281    6.468197   15.445567    ( 0.0000,  0.0000,  0.0000)
  36 F      0.013699    1.573115   18.597883    ( 0.0000,  0.0000,  0.0000)
  37 H      0.925700    1.615130   18.457953    ( 0.0000,  0.0000,  0.0000)
  38 N     -0.009705    1.630594   17.082044    ( 0.0000,  0.0000,  0.0000)
  39 N     -0.002115    2.733404   17.168997    ( 0.0000,  0.0000,  0.0000)

Unit cell:
           periodic     x           y           z      points  spacing
  1. axis:    yes    9.702222    0.000000    0.000000    60     0.1617
  2. axis:    yes    0.000000    9.702222    0.000000    60     0.1617
  3. axis:    no     0.000000    0.000000   26.601111   168     0.1583

  Lengths:   9.702222   9.702222  26.601111
  Angles:   90.000000  90.000000  90.000000

Effective grid spacing dv^(1/3) = 0.1606

     iter     time        total  log10-change:
                         energy  eigst   dens
iter:   1 23:36:56  -247.615154  -0.44
iter:   2 23:39:17  -247.615552  -0.88  -1.85
iter:   3 23:41:46  -247.615112c -1.20  -1.96
iter:   4 23:44:12  -247.649404  -0.99  -2.25
Writing to output.gpw (mode='')

iter:   5 23:46:43  -247.603402  -1.54  -2.06
iter:   6 23:49:07  -247.600819  -1.83  -2.32
iter:   7 23:51:30  -247.591279c -1.73  -2.23
iter:   8 23:53:55  -247.591313c -2.43  -2.50
iter:   9 23:56:27  -247.598262c -1.92  -2.49
Writing to output.gpw (mode='')

iter:  10 23:58:58  -247.590981c -2.11  -2.43
iter:  11 00:01:27  -247.591386c -1.97  -2.70
iter:  12 00:03:57  -247.591162c -2.96  -2.85
iter:  13 00:06:24  -247.591724c -2.82  -2.88
iter:  14 00:08:50  -247.591062c -2.70  -2.93
Writing to output.gpw (mode='')

iter:  15 00:11:26  -247.591113c -3.28  -2.99
iter:  16 00:13:50  -247.591081c -3.15  -3.08
iter:  17 00:16:19  -247.591146c -3.53  -3.20
iter:  18 00:18:49  -247.591138c -3.76  -3.43
iter:  19 00:21:24  -247.591150c -3.69  -3.54
Writing to output.gpw (mode='')

iter:  20 00:24:01  -247.591162c -3.90  -3.67
iter:  21 00:26:33  -247.591186c -3.78  -3.65
iter:  22 00:29:00  -247.591187c -4.03  -3.61
iter:  23 00:31:36  -247.591192c -4.12  -3.62
iter:  24 00:34:06  -247.591204c -4.14  -3.63
Writing to output.gpw (mode='')

iter:  25 00:36:41  -247.591219c -4.23  -3.55
iter:  26 00:39:12  -247.591221c -4.75  -3.65
iter:  27 00:41:33  -247.591224c -4.50  -3.64
iter:  28 00:44:03  -247.591237c -4.43  -3.67
iter:  29 00:46:33  -247.591241c -4.74  -3.72
Writing to output.gpw (mode='')

iter:  30 00:49:07  -247.591253c -4.76  -3.72
iter:  31 00:51:32  -247.591254c -5.00  -3.69
iter:  32 00:53:59  -247.591269c -5.12  -3.75
iter:  33 00:56:25  -247.591266c -5.25  -3.88
iter:  34 00:59:09  -247.591268c -5.03  -3.93
Writing to output.gpw (mode='')

iter:  35 01:01:33  -247.591264c -5.27  -3.99
iter:  36 01:03:58  -247.591261c -5.22  -4.15c
iter:  37 01:06:25  -247.591261c -5.32  -4.19c
iter:  38 01:08:53  -247.591260c -5.52  -4.30c
iter:  39 01:11:26  -247.591261c -5.41  -4.33c
Writing to output.gpw (mode='')

iter:  40 01:13:58  -247.591265c -5.64  -4.33c
iter:  41 01:16:23  -247.591269c -5.82  -4.42c
iter:  42 01:18:59  -247.591268c -5.66  -4.56c
iter:  43 01:21:35  -247.591268c -5.80  -4.74c
iter:  44 01:24:06  -247.591268c -6.02  -4.89c
Writing to output.gpw (mode='')

iter:  45 01:26:38  -247.591269c -6.37  -4.95c
iter:  46 01:29:11  -247.591270c -6.29  -4.97c
iter:  47 01:31:52  -247.591269c -6.36  -5.13c
iter:  48 01:34:20  -247.591270c -6.34  -5.29c
iter:  49 01:36:55  -247.591270c -6.73  -5.36c
Writing to output.gpw (mode='')

iter:  50 01:39:26  -247.591270c -6.58  -5.44c
iter:  51 01:41:50  -247.591270c -6.62  -5.45c
iter:  52 01:44:13  -247.591270c -6.73  -5.43c
iter:  53 01:46:55  -247.591270c -6.73  -5.43c
iter:  54 01:49:38  -247.591270c -7.00  -5.28c
Writing to output.gpw (mode='')

iter:  55 01:52:12  -247.591270c -6.91  -5.38c
iter:  56 01:54:42  -247.591270c -7.15  -5.37c
iter:  57 01:57:07  -247.591271c -7.26  -5.37c
iter:  58 01:59:34  -247.591271c -7.14  -5.55c
iter:  59 02:02:06  -247.591271c -7.32  -5.59c
Writing to output.gpw (mode='')

iter:  60 02:04:29  -247.591271c -7.45c -5.62c

Converged after 60 iterations.

Dipole moment: (-16.228812, -3.345521, 0.195533) |e|*Ang

Energy contributions relative to reference atoms: (reference = -12990.375485)

Kinetic:       +142.451912
Potential:     -122.997971
External:        +0.000000
XC:            -267.355221
Entropy (-ST):   -0.156506
Local:           +0.388262
--------------------------
Free energy:   -247.669524
Extrapolated:  -247.591271

Dipole-layer corrected work functions: 3.385464, 3.009582 eV

Showing only first 2 kpts
 Kpt  Band  Eigenvalues  Occupancy
  0    25     -3.45083    1.98747
  0    26     -3.35279    1.91422
  0    27     -3.07781    0.16721
  0    28     -2.95433    0.01532

  1    25     -3.24182    1.41607
  1    26     -3.20662    1.09071
  1    27     -3.13565    0.44979
  1    28     -3.12008    0.35049


Fermi level: -3.19752

Gap: 0.010 eV
Transition (v -> c):
  (s=0, k=1, n=26, [0.12, -0.12, 0.00]) -> (s=0, k=7, n=27, [0.38, 0.38, 0.00])

Forces in eV/Ang:
  0 Li    0.02092   -0.00385   -0.27588
  1 Li   -0.00319    0.00142   -0.26952
  2 Li   -0.01740   -0.00355   -0.27320
  3 Li   -0.00076    0.01527   -0.27419
  4 Li    0.00052   -0.00685   -0.26602
  5 Li   -0.00052    0.01814   -0.27401
  6 Li   -0.00627   -0.00969   -0.26677
  7 Li    0.00024    0.00355   -0.28151
  8 Li    0.00564   -0.01364   -0.26303
  9 Li    0.00066   -0.00426    0.28538
 10 Li    0.01168   -0.00176    0.25759
 11 Li   -0.01372   -0.00330    0.26154
 12 Li    0.00099   -0.00430    0.33345
 13 Li    0.01644   -0.00009    0.25316
 14 Li   -0.01738    0.00254    0.25926
 15 Li   -0.00289    0.00481    0.24178
 16 Li   -0.00385    0.00393    0.25957
 17 Li    0.00754    0.00455    0.25024
 18 Li    0.02904   -0.00929   -0.06911
 19 Li    0.00062    0.00625    0.06696
 20 Li   -0.02796   -0.01244   -0.08396
 21 Li    0.00568   -0.00615    0.00622
 22 Li    0.00054    0.01010    0.04557
 23 Li   -0.00561   -0.00425    0.00840
 24 Li   -0.01501    0.01742    0.06517
 25 Li    0.00447   -0.01899    0.00891
 26 Li    0.01199    0.01908    0.06630
 27 Li    0.00517    0.03123    0.18830
 28 Li    0.06015   -0.03678   -0.04665
 29 Li   -0.05876   -0.04757   -0.04685
 30 Li    0.00197    0.72347   -1.26469
 31 Li    0.08867    0.02242   -0.05853
 32 Li   -0.08227    0.03527   -0.04671
 33 Li   -0.00095    0.03671   -0.03377
 34 Li   -0.00866    0.00613   -0.02035
 35 Li    0.00891    0.00410   -0.02625
 36 F    -0.09410   -5.36349   14.94084
 37 H     1.37138   -0.18248    1.35100
 38 N    -1.08174   -2.46352  -10.04290
 39 N    -0.20426    7.21651   -4.92152

System changes: positions 

Initializing position-dependent things.

Density initialized from wave functions
       .-----------------------.  
      /|                       |  
     / |                       |  
    /  |                       |  
   /   |                       |  
  /    |                       |  
 *     |                       |  
 |     |                       |  
 |     |                       |  
 |     |                       |  
 |     |                       |  
 |     |                       |  
 |     |                       |  
 |     |                       |  
 |     |       Li      Li      |  
 |F H  |                       |  
 |   Li|     Li      Li    N   |  
 |     |  Li      Li      Ni   |  
 | Li  |   Li      Li          |  
 |     |Li      Li      Li     |  
 Li    |                       |  
 |   LLi     LLi     LLi       |  
 |     |  Li      Li      Li   |  
 | Li  |   Li      Li          |  
 |     |Li      Li      Li     |  
 Li    | Li      Li            |  
 |    Li      Li      Li       |  
 |     |                       |  
 |     |                       |  
 |     |                       |  
 |     |                       |  
 |     |                       |  
 |     |                       |  
 |     .-----------------------.  
 |    /                       /   
 |   /                       /    
 |  /                       /     
 | /                       /      
 |/                       /       
 *-----------------------*        

Positions:
   0 Li     1.617037    1.617037   10.000000    ( 0.0000,  0.0000,  0.0000)
   1 Li     4.851111    1.617037   10.000000    ( 0.0000,  0.0000,  0.0000)
   2 Li     8.085185    1.617037   10.000000    ( 0.0000,  0.0000,  0.0000)
   3 Li     1.617037    4.851111   10.000000    ( 0.0000,  0.0000,  0.0000)
   4 Li     4.851111    4.851111   10.000000    ( 0.0000,  0.0000,  0.0000)
   5 Li     8.085185    4.851111   10.000000    ( 0.0000,  0.0000,  0.0000)
   6 Li     1.617037    8.085185   10.000000    ( 0.0000,  0.0000,  0.0000)
   7 Li     4.851111    8.085185   10.000000    ( 0.0000,  0.0000,  0.0000)
   8 Li     8.085185    8.085185   10.000000    ( 0.0000,  0.0000,  0.0000)
   9 Li     0.000000    0.000000   11.617037    ( 0.0000,  0.0000,  0.0000)
  10 Li     3.234074    0.000000   11.617037    ( 0.0000,  0.0000,  0.0000)
  11 Li     6.468148    0.000000   11.617037    ( 0.0000,  0.0000,  0.0000)
  12 Li     0.000000    3.234074   11.617037    ( 0.0000,  0.0000,  0.0000)
  13 Li     3.234074    3.234074   11.617037    ( 0.0000,  0.0000,  0.0000)
  14 Li     6.468148    3.234074   11.617037    ( 0.0000,  0.0000,  0.0000)
  15 Li     0.000000    6.468148   11.617037    ( 0.0000,  0.0000,  0.0000)
  16 Li     3.234074    6.468148   11.617037    ( 0.0000,  0.0000,  0.0000)
  17 Li     6.468148    6.468148   11.617037    ( 0.0000,  0.0000,  0.0000)
  18 Li     1.617649    1.616789   13.468159    ( 0.0000,  0.0000,  0.0000)
  19 Li     4.851080    1.617205   13.471337    ( 0.0000,  0.0000,  0.0000)
  20 Li     8.084626    1.616743   13.467845    ( 0.0000,  0.0000,  0.0000)
  21 Li     1.617172    4.850945   13.469990    ( 0.0000,  0.0000,  0.0000)
  22 Li     4.851074    4.851300   13.470780    ( 0.0000,  0.0000,  0.0000)
  23 Li     8.085073    4.850998   13.469983    ( 0.0000,  0.0000,  0.0000)
  24 Li     1.616686    8.085607   13.471186    ( 0.0000,  0.0000,  0.0000)
  25 Li     4.851252    8.084734   13.469882    ( 0.0000,  0.0000,  0.0000)
  26 Li     8.085424    8.085617   13.471149    ( 0.0000,  0.0000,  0.0000)
  27 Li     0.000062    0.000640   15.450336    ( 0.0000,  0.0000,  0.0000)
  28 Li     3.235446   -0.000986   15.444636    ( 0.0000,  0.0000,  0.0000)
  29 Li     6.466886   -0.001017   15.445014    ( 0.0000,  0.0000,  0.0000)
  30 Li     0.000064    3.250716   15.413661    ( 0.0000,  0.0000,  0.0000)
  31 Li     3.236353    3.234768   15.444101    ( 0.0000,  0.0000,  0.0000)
  32 Li     6.466245    3.234862   15.444930    ( 0.0000,  0.0000,  0.0000)
  33 Li     0.000025    6.468887   15.445152    ( 0.0000,  0.0000,  0.0000)
  34 Li     3.233818    6.468210   15.445509    ( 0.0000,  0.0000,  0.0000)
  35 Li     6.468377    6.468187   15.445393    ( 0.0000,  0.0000,  0.0000)
  36 F      0.020585    1.567353   18.636862    ( 0.0000,  0.0000,  0.0000)
  37 H      0.922618    1.613337   18.459566    ( 0.0000,  0.0000,  0.0000)
  38 N     -0.011181    1.633512   17.046562    ( 0.0000,  0.0000,  0.0000)
  39 N     -0.004612    2.732847   17.175247    ( 0.0000,  0.0000,  0.0000)

Unit cell:
           periodic     x           y           z      points  spacing
  1. axis:    yes    9.702222    0.000000    0.000000    60     0.1617
  2. axis:    yes    0.000000    9.702222    0.000000    60     0.1617
  3. axis:    no     0.000000    0.000000   26.601111   168     0.1583

  Lengths:   9.702222   9.702222  26.601111
  Angles:   90.000000  90.000000  90.000000

Effective grid spacing dv^(1/3) = 0.1606

     iter     time        total  log10-change:
                         energy  eigst   dens
iter:   1 02:07:27  -248.473590  -0.54
iter:   2 02:09:59  -248.482699  -1.05  -2.05
iter:   3 02:12:35  -248.486220c -1.34  -2.20
iter:   4 02:15:14  -248.515482  -1.00  -2.35
Writing to output.gpw (mode='')

iter:   5 02:17:47  -248.475689  -1.56  -2.21
iter:   6 02:20:12  -248.475734  -2.09  -2.46
iter:   7 02:22:46  -248.475644c -1.96  -2.48
iter:   8 02:25:25  -248.474627c -2.37  -2.43
iter:   9 02:28:01  -248.474353c -2.22  -2.60
Writing to output.gpw (mode='')

iter:  10 02:30:29  -248.474673c -2.90  -2.87
iter:  11 02:32:57  -248.474760c -2.87  -2.95
iter:  12 02:35:21  -248.474632c -2.94  -3.15
iter:  13 02:37:53  -248.474744c -3.06  -3.06
iter:  14 02:40:19  -248.474711c -3.28  -3.22
Writing to output.gpw (mode='')

iter:  15 02:42:51  -248.474834c -3.45  -3.22
iter:  16 02:45:18  -248.474837c -3.84  -3.42
iter:  17 02:48:00  -248.474864c -3.65  -3.48
iter:  18 02:50:40  -248.474913c -3.76  -3.58
iter:  19 02:53:13  -248.474925c -4.06  -3.74
Writing to output.gpw (mode='')

iter:  20 02:55:43  -248.474938c -3.92  -3.72
iter:  21 02:58:06  -248.474973c -4.16  -3.79
iter:  22 03:00:37  -248.474978c -4.13  -3.95
iter:  23 03:02:38  -248.474979c -4.25  -3.97
iter:  24 03:05:07  -248.474987c -4.17  -4.17c
Writing to output.gpw (mode='')

iter:  25 03:07:38  -248.474998c -4.53  -4.27c
iter:  26 03:09:59  -248.475003c -4.63  -4.26c
iter:  27 03:12:36  -248.475006c -4.55  -4.25c
iter:  28 03:15:02  -248.475012c -4.68  -4.10c
iter:  29 03:17:38  -248.475012c -4.84  -4.20c
Writing to output.gpw (mode='')

iter:  30 03:20:05  -248.475015c -4.79  -4.17c
iter:  31 03:22:36  -248.475022c -5.00  -4.20c
iter:  32 03:25:06  -248.475013c -4.96  -4.24c
iter:  33 03:27:36  -248.475017c -5.17  -4.07c
iter:  34 03:30:09  -248.475037c -5.26  -4.09c
Writing to output.gpw (mode='')

iter:  35 03:32:39  -248.475039c -5.10  -4.36c
iter:  36 03:35:01  -248.475040c -5.17  -4.44c
iter:  37 03:37:35  -248.475040c -5.09  -4.51c
iter:  38 03:40:09  -248.475044c -5.44  -4.49c
iter:  39 03:42:37  -248.475042c -5.43  -4.75c
Writing to output.gpw (mode='')

iter:  40 03:45:09  -248.475043c -5.37  -4.82c
iter:  41 03:47:38  -248.475045c -5.40  -4.86c
iter:  42 03:50:09  -248.475045c -5.60  -5.01c
iter:  43 03:52:47  -248.475046c -5.61  -5.07c
iter:  44 03:55:21  -248.475048c -5.77  -5.16c
Writing to output.gpw (mode='')

iter:  45 03:57:53  -248.475046c -5.87  -5.16c
iter:  46 04:00:15  -248.475048c -5.97  -5.16c
iter:  47 04:02:43  -248.475050c -5.87  -5.34c
iter:  48 04:05:12  -248.475049c -6.30  -5.29c
iter:  49 04:07:42  -248.475050c -6.28  -5.40c
Writing to output.gpw (mode='')

iter:  50 04:10:10  -248.475050c -6.32  -5.40c
iter:  51 04:12:39  -248.475050c -6.32  -5.51c
iter:  52 04:15:07  -248.475050c -6.37  -5.60c
iter:  53 04:17:28  -248.475050c -6.56  -5.56c
iter:  54 04:19:53  -248.475050c -6.50  -5.54c
Writing to output.gpw (mode='')

iter:  55 04:22:20  -248.475050c -6.34  -5.41c
iter:  56 04:24:48  -248.475050c -6.62  -5.40c
iter:  57 04:27:25  -248.475050c -6.14  -5.37c
iter:  58 04:30:00  -248.475050c -6.75  -5.30c
iter:  59 04:32:36  -248.475050c -6.70  -5.28c
Writing to output.gpw (mode='')

iter:  60 04:35:19  -248.475050c -6.81  -5.25c
iter:  61 04:37:45  -248.475050c -6.91  -5.24c
iter:  62 04:40:12  -248.475050c -6.92  -5.23c
iter:  63 04:42:43  -248.475050c -7.03  -5.23c
iter:  64 04:45:15  -248.475049c -7.18  -5.26c
Writing to output.gpw (mode='')

iter:  65 04:47:42  -248.475052c -7.22  -4.97c
iter:  66 04:50:15  -248.475052c -7.40  -5.58c
iter:  67 04:52:54  -248.475052c -7.29  -5.64c
iter:  68 04:55:30  -248.475052c -7.25  -5.69c
iter:  69 04:57:56  -248.475052c -7.24  -5.66c
Writing to output.gpw (mode='')

iter:  70 05:00:25  -248.475052c -7.44c -5.60c

Converged after 70 iterations.

Dipole moment: (-16.418677, -3.235200, 0.149991) |e|*Ang

Energy contributions relative to reference atoms: (reference = -12990.375485)

Kinetic:       +139.412005
Potential:     -121.204449
External:        +0.000000
XC:            -266.995974
Entropy (-ST):   -0.155610
Local:           +0.391170
--------------------------
Free energy:   -248.552857
Extrapolated:  -248.475052

Dipole-layer corrected work functions: 3.388669, 3.100336 eV

Showing only first 2 kpts
 Kpt  Band  Eigenvalues  Occupancy
  0    25     -3.49831    1.98759
  0    26     -3.40486    1.92220
  0    27     -3.12345    0.16316
  0    28     -2.99975    0.01486

  1    25     -3.28989    1.42506
  1    26     -3.25082    1.06309
  1    27     -3.18180    0.44398
  1    28     -3.16551    0.34166


Fermi level: -3.24450

No gap

Forces in eV/Ang:
  0 Li    0.02092   -0.00422   -0.27556
  1 Li   -0.00291    0.00114   -0.26912
  2 Li   -0.01768   -0.00388   -0.27332
  3 Li   -0.00101    0.01610   -0.27442
  4 Li    0.00033   -0.00685   -0.26635
  5 Li   -0.00013    0.01839   -0.27440
  6 Li   -0.00613   -0.01008   -0.26661
  7 Li   -0.00001    0.00421   -0.28263
  8 Li    0.00577   -0.01363   -0.26264
  9 Li    0.00066   -0.00549    0.28405
 10 Li    0.01340   -0.00161    0.25633
 11 Li   -0.01562   -0.00285    0.26040
 12 Li    0.00100   -0.00422    0.33539
 13 Li    0.01586    0.00002    0.25296
 14 Li   -0.01665    0.00243    0.25941
 15 Li   -0.00241    0.00624    0.24029
 16 Li   -0.00397    0.00344    0.25885
 17 Li    0.00724    0.00434    0.25044
 18 Li    0.02738   -0.01091   -0.06641
 19 Li    0.00046    0.00651    0.06656
 20 Li   -0.02599   -0.01454   -0.08032
 21 Li    0.00591   -0.00421    0.00651
 22 Li    0.00038    0.00878    0.04590
 23 Li   -0.00568   -0.00163    0.00770
 24 Li   -0.01431    0.01745    0.06368
 25 Li    0.00465   -0.01842    0.00907
 26 Li    0.01127    0.01903    0.06385
 27 Li    0.00369    0.04215    0.19132
 28 Li    0.05833   -0.03735   -0.04925
 29 Li   -0.05492   -0.04532   -0.04457
 30 Li   -0.00035    0.65049   -1.16144
 31 Li    0.09183    0.02421   -0.06416
 32 Li   -0.08319    0.03423   -0.04711
 33 Li   -0.00053    0.03266   -0.03320
 34 Li   -0.00980    0.00478   -0.02024
 35 Li    0.00957    0.00274   -0.02556
 36 F    -0.11241   -4.62212   12.97425
 37 H     1.27193   -0.19560    1.16539
 38 N    -0.92174   -2.09914   -8.82536
 39 N    -0.24127    6.19001   -4.12313

System changes: positions 

Initializing position-dependent things.

Density initialized from wave functions
       .-----------------------.  
      /|                       |  
     / |                       |  
    /  |                       |  
   /   |                       |  
  /    |                       |  
 *     |                       |  
 |     |                       |  
 |     |                       |  
 |     |                       |  
 |     |                       |  
 |     |                       |  
 |     |                       |  
 |     |                       |  
 |     |       Li      Li      |  
 |F H  |                       |  
 |   Li|     Li      Li    N   |  
 |     |  Li      Li      Ni   |  
 | Li  |   Li      Li          |  
 |     |Li      Li      Li     |  
 Li    |                       |  
 |   LLi     LLi     LLi       |  
 |     |  Li      Li      Li   |  
 | Li  |   Li      Li          |  
 |     |Li      Li      Li     |  
 Li    | Li      Li            |  
 |    Li      Li      Li       |  
 |     |                       |  
 |     |                       |  
 |     |                       |  
 |     |                       |  
 |     |                       |  
 |     |                       |  
 |     .-----------------------.  
 |    /                       /   
 |   /                       /    
 |  /                       /     
 | /                       /      
 |/                       /       
 *-----------------------*        

Positions:
   0 Li     1.617037    1.617037   10.000000    ( 0.0000,  0.0000,  0.0000)
   1 Li     4.851111    1.617037   10.000000    ( 0.0000,  0.0000,  0.0000)
   2 Li     8.085185    1.617037   10.000000    ( 0.0000,  0.0000,  0.0000)
   3 Li     1.617037    4.851111   10.000000    ( 0.0000,  0.0000,  0.0000)
   4 Li     4.851111    4.851111   10.000000    ( 0.0000,  0.0000,  0.0000)
   5 Li     8.085185    4.851111   10.000000    ( 0.0000,  0.0000,  0.0000)
   6 Li     1.617037    8.085185   10.000000    ( 0.0000,  0.0000,  0.0000)
   7 Li     4.851111    8.085185   10.000000    ( 0.0000,  0.0000,  0.0000)
   8 Li     8.085185    8.085185   10.000000    ( 0.0000,  0.0000,  0.0000)
   9 Li     0.000000    0.000000   11.617037    ( 0.0000,  0.0000,  0.0000)
  10 Li     3.234074    0.000000   11.617037    ( 0.0000,  0.0000,  0.0000)
  11 Li     6.468148    0.000000   11.617037    ( 0.0000,  0.0000,  0.0000)
  12 Li     0.000000    3.234074   11.617037    ( 0.0000,  0.0000,  0.0000)
  13 Li     3.234074    3.234074   11.617037    ( 0.0000,  0.0000,  0.0000)
  14 Li     6.468148    3.234074   11.617037    ( 0.0000,  0.0000,  0.0000)
[...]
  Angles:   90.000000  90.000000  90.000000

Effective grid spacing dv^(1/3) = 0.1606

     iter     time        total  log10-change:
                         energy  eigst   dens
iter:   1 18:16:02  -253.666643  -2.94
iter:   2 18:18:30  -253.666628  -3.46  -2.80
iter:   3 18:20:52  -253.666507c -4.17  -2.89
iter:   4 18:23:17  -253.666454c -4.14  -3.13
Writing to output.gpw (mode='')

iter:   5 18:25:50  -253.666442c -4.47  -3.43
iter:   6 18:28:22  -253.666424c -4.48  -3.50
iter:   7 18:30:50  -253.666446c -4.39  -3.73
iter:   8 18:33:21  -253.666445c -5.02  -3.74
iter:   9 18:35:52  -253.666445c -5.53  -3.80
Writing to output.gpw (mode='')

iter:  10 18:38:28  -253.666447c -5.50  -3.87
iter:  11 18:40:56  -253.666448c -5.74  -4.23c
iter:  12 18:43:22  -253.666447c -6.29  -4.27c
iter:  13 18:45:59  -253.666446c -6.14  -4.42c
iter:  14 18:48:33  -253.666446c -6.52  -4.43c
Writing to output.gpw (mode='')

iter:  15 18:50:56  -253.666446c -6.49  -4.63c
iter:  16 18:53:23  -253.666446c -6.80  -4.73c
iter:  17 18:55:52  -253.666446c -6.78  -4.83c
iter:  18 18:58:14  -253.666446c -6.94  -4.96c
iter:  19 19:00:50  -253.666446c -7.15  -5.01c
Writing to output.gpw (mode='')

iter:  20 19:03:20  -253.666446c -7.35  -5.05c
iter:  21 19:05:44  -253.666447c -7.51c -5.19c

Converged after 21 iterations.

Dipole moment: (19.954790, -3.464630, -0.356777) |e|*Ang

Energy contributions relative to reference atoms: (reference = -12990.375485)

Kinetic:       +111.346581
Potential:     -101.956316
External:        +0.000000
XC:            -263.409751
Entropy (-ST):   -0.148984
Local:           +0.427532
--------------------------
Free energy:   -253.740939
Extrapolated:  -253.666447

Dipole-layer corrected work functions: 3.415823, 4.101671 eV

Showing only first 2 kpts
 Kpt  Band  Eigenvalues  Occupancy
  0    25     -4.01216    1.98749
  0    26     -3.96221    1.96640
  0    27     -3.64531    0.18748
  0    28     -3.52590    0.01881

  1    25     -3.82131    1.55502
  1    26     -3.74224    0.83640
  1    27     -3.70540    0.51199
  1    28     -3.63559    0.15696


Fermi level: -3.75875

No gap
Writing to output.gpw (mode='')


Forces in eV/Ang:
  0 Li    0.02228   -0.00374   -0.26781
  1 Li   -0.00541   -0.00600   -0.27257
  2 Li   -0.01771   -0.00598   -0.26801
  3 Li   -0.00028    0.01542   -0.27803
  4 Li   -0.00110   -0.00335   -0.28340
  5 Li    0.00374    0.02039   -0.27283
  6 Li   -0.00005   -0.01584   -0.27564
  7 Li   -0.00101   -0.00091   -0.28531
  8 Li    0.00341   -0.01949   -0.27208
  9 Li    0.00383   -0.01598    0.27766
 10 Li    0.01049   -0.00044    0.26006
 11 Li   -0.02368   -0.01630    0.26190
 12 Li    0.00443    0.01774    0.30065
 13 Li    0.01972    0.01719    0.26642
 14 Li   -0.02309    0.02427    0.27099
 15 Li    0.00572    0.02014    0.22000
 16 Li   -0.04172    0.00640    0.26642
 17 Li    0.02828    0.01767    0.25205
 18 Li    0.00418   -0.00313   -0.00364
 19 Li   -0.00349    0.00151    0.00725
 20 Li   -0.00150   -0.00299    0.00554
 21 Li   -0.00386    0.00247    0.00414
 22 Li   -0.00606   -0.00494    0.00445
 23 Li    0.00353    0.00099    0.00607
 24 Li    0.00342    0.00233    0.00265
 25 Li    0.00186   -0.00277    0.00294
 26 Li    0.00136    0.00191    0.00558
 27 Li    0.00625   -0.01365   -0.00736
 28 Li    0.00173   -0.00384   -0.00134
 29 Li   -0.00138   -0.00378    0.00193
 30 Li   -0.00349    0.00028    0.00561
 31 Li   -0.00989    0.00085    0.00925
 32 Li   -0.00711    0.00490    0.00077
 33 Li    0.00130    0.00028    0.00299
 34 Li    0.00365    0.00287    0.00265
 35 Li   -0.00658    0.00001    0.00525
 36 F     0.01314    0.00410    0.01070
 37 H     0.00942   -0.02195   -0.01584
 38 N    -0.01468   -0.05834   -0.02013
 39 N    -0.00114    0.02035    0.00666

System changes: positions 

Initializing position-dependent things.

Density initialized from wave functions
       .-----------------------.  
      /|                       |  
     / |                       |  
    /  |                       |  
   /   |                       |  
  /    |                       |  
 *     |                       |  
 |     |                       |  
 |     |                       |  
 |     |                       |  
 |     |                       |  
 |     |                       |  
 |     |                       |  
 |     |                       |  
 | HF  |       Li      Li      |  
 |     |                       |  
 |     |     Li      Li   N  Li|  
 |     |  Li      Li     NLi   |  
 |     |   Li      Li      Li  |  
 |     |Li      Li      Li     |  
 |     |                 Li    |  
 |   LLi     LLi     LLi       |  
 |     |  Li      Li      Li   |  
 | Li  |   Li      Li          |  
 |     |Li      Li      Li     |  
 Li    | Li      Li            |  
 |    Li      Li      Li       |  
 |     |                       |  
 |     |                       |  
 |     |                       |  
 |     |                       |  
 |     |                       |  
 |     |                       |  
 |     .-----------------------.  
 |    /                       /   
 |   /                       /    
 |  /                       /     
 | /                       /      
 |/                       /       
 *-----------------------*        

Positions:
   0 Li     1.617037    1.617037   10.000000    ( 0.0000,  0.0000,  0.0000)
   1 Li     4.851111    1.617037   10.000000    ( 0.0000,  0.0000,  0.0000)
   2 Li     8.085185    1.617037   10.000000    ( 0.0000,  0.0000,  0.0000)
   3 Li     1.617037    4.851111   10.000000    ( 0.0000,  0.0000,  0.0000)
   4 Li     4.851111    4.851111   10.000000    ( 0.0000,  0.0000,  0.0000)
   5 Li     8.085185    4.851111   10.000000    ( 0.0000,  0.0000,  0.0000)
   6 Li     1.617037    8.085185   10.000000    ( 0.0000,  0.0000,  0.0000)
   7 Li     4.851111    8.085185   10.000000    ( 0.0000,  0.0000,  0.0000)
   8 Li     8.085185    8.085185   10.000000    ( 0.0000,  0.0000,  0.0000)
   9 Li     0.000000    0.000000   11.617037    ( 0.0000,  0.0000,  0.0000)
  10 Li     3.234074    0.000000   11.617037    ( 0.0000,  0.0000,  0.0000)
  11 Li     6.468148    0.000000   11.617037    ( 0.0000,  0.0000,  0.0000)
  12 Li     0.000000    3.234074   11.617037    ( 0.0000,  0.0000,  0.0000)
  13 Li     3.234074    3.234074   11.617037    ( 0.0000,  0.0000,  0.0000)
  14 Li     6.468148    3.234074   11.617037    ( 0.0000,  0.0000,  0.0000)
  15 Li     0.000000    6.468148   11.617037    ( 0.0000,  0.0000,  0.0000)
  16 Li     3.234074    6.468148   11.617037    ( 0.0000,  0.0000,  0.0000)
  17 Li     6.468148    6.468148   11.617037    ( 0.0000,  0.0000,  0.0000)
  18 Li     1.605138    1.632592   13.450614    ( 0.0000,  0.0000,  0.0000)
  19 Li     4.850829    1.606114   13.459744    ( 0.0000,  0.0000,  0.0000)
  20 Li     8.088529    1.630371   13.414764    ( 0.0000,  0.0000,  0.0000)
  21 Li     1.597963    4.861379   13.487217    ( 0.0000,  0.0000,  0.0000)
  22 Li     4.859414    4.882507   13.453204    ( 0.0000,  0.0000,  0.0000)
  23 Li     8.108439    4.870724   13.470595    ( 0.0000,  0.0000,  0.0000)
  24 Li     1.586318    8.112463   13.503798    ( 0.0000,  0.0000,  0.0000)
  25 Li     4.834841    8.065063   13.460443    ( 0.0000,  0.0000,  0.0000)
  26 Li     8.097656    8.105931   13.487530    ( 0.0000,  0.0000,  0.0000)
  27 Li    -0.050946    0.111643   15.484147    ( 0.0000,  0.0000,  0.0000)
  28 Li     3.245505   -0.012693   15.418164    ( 0.0000,  0.0000,  0.0000)
  29 Li     6.400887   -0.031863   15.379283    ( 0.0000,  0.0000,  0.0000)
  30 Li    -0.004111    3.300435   15.495311    ( 0.0000,  0.0000,  0.0000)
  31 Li     3.307479    3.247819   15.354802    ( 0.0000,  0.0000,  0.0000)
  32 Li     6.419644    3.258044   15.348889    ( 0.0000,  0.0000,  0.0000)
  33 Li    -0.008714    6.518582   15.472426    ( 0.0000,  0.0000,  0.0000)
  34 Li     3.231548    6.456006   15.428351    ( 0.0000,  0.0000,  0.0000)
  35 Li     6.480120    6.461600   15.417635    ( 0.0000,  0.0000,  0.0000)
  36 F      0.782518    1.069055   19.894679    ( 0.0000,  0.0000,  0.0000)
  37 H      0.334033    1.713641   19.385123    ( 0.0000,  0.0000,  0.0000)
  38 N     -0.227976    1.549867   16.790140    ( 0.0000,  0.0000,  0.0000)
  39 N     -0.289311    2.438203   17.512757    ( 0.0000,  0.0000,  0.0000)

Unit cell:
           periodic     x           y           z      points  spacing
  1. axis:    yes    9.702222    0.000000    0.000000    60     0.1617
  2. axis:    yes    0.000000    9.702222    0.000000    60     0.1617
  3. axis:    no     0.000000    0.000000   26.601111   168     0.1583

  Lengths:   9.702222   9.702222  26.601111
  Angles:   90.000000  90.000000  90.000000

Effective grid spacing dv^(1/3) = 0.1606

     iter     time        total  log10-change:
                         energy  eigst   dens
iter:   1 19:08:39  -253.667626  -2.66
iter:   2 19:11:01  -253.667384  -2.96  -2.48
iter:   3 19:13:34  -253.666710c -3.81  -2.57
iter:   4 19:16:05  -253.666692c -4.10  -3.05
Writing to output.gpw (mode='')

iter:   5 19:18:26  -253.666659c -3.88  -3.27
iter:   6 19:20:43  -253.666642c -3.73  -3.42
iter:   7 19:23:08  -253.666652c -4.50  -3.34
iter:   8 19:25:38  -253.666645c -4.83  -3.74
iter:   9 19:28:02  -253.666637c -5.30  -3.74
Writing to output.gpw (mode='')

iter:  10 19:30:27  -253.666648c -5.06  -3.93
iter:  11 19:32:45  -253.666650c -5.71  -4.06c
iter:  12 19:35:05  -253.666644c -5.97  -4.14c
iter:  13 19:37:31  -253.666647c -5.86  -4.30c
iter:  14 19:40:02  -253.666648c -6.30  -4.47c
Writing to output.gpw (mode='')

iter:  15 19:42:24  -253.666648c -6.67  -4.54c
iter:  16 19:44:44  -253.666647c -6.64  -4.55c
iter:  17 19:47:15  -253.666646c -6.57  -4.65c
iter:  18 19:49:41  -253.666646c -6.82  -4.71c
iter:  19 19:52:14  -253.666646c -6.80  -4.79c
Writing to output.gpw (mode='')

iter:  20 19:54:46  -253.666646c -7.17  -4.86c
iter:  21 19:57:14  -253.666646c -7.29  -4.97c
iter:  22 19:59:45  -253.666646c -7.17  -5.02c
iter:  23 20:02:13  -253.666646c -7.62c -5.13c

Converged after 23 iterations.

Dipole moment: (19.973798, -3.463741, -0.359042) |e|*Ang

Energy contributions relative to reference atoms: (reference = -12990.375485)

Kinetic:       +111.295453
Potential:     -101.908530
External:        +0.000000
XC:            -263.406657
Entropy (-ST):   -0.149039
Local:           +0.427607
--------------------------
Free energy:   -253.741166
Extrapolated:  -253.666646

Dipole-layer corrected work functions: 3.416020, 4.106222 eV

Showing only first 2 kpts
 Kpt  Band  Eigenvalues  Occupancy
  0    25     -4.01441    1.98746
  0    26     -3.96508    1.96672
  0    27     -3.64812    0.18898
  0    28     -3.52817    0.01877

  1    25     -3.82421    1.55866
  1    26     -3.74469    0.83718
  1    27     -3.70735    0.50877
  1    28     -3.63798    0.15701


Fermi level: -3.76112

No gap
Writing to output.gpw (mode='')


Forces in eV/Ang:
  0 Li    0.02228   -0.00385   -0.26781
  1 Li   -0.00548   -0.00592   -0.27258
  2 Li   -0.01770   -0.00603   -0.26799
  3 Li   -0.00022    0.01548   -0.27797
  4 Li   -0.00114   -0.00323   -0.28333
  5 Li    0.00373    0.02048   -0.27288
  6 Li    0.00001   -0.01589   -0.27554
  7 Li   -0.00102   -0.00093   -0.28544
  8 Li    0.00331   -0.01956   -0.27202
  9 Li    0.00368   -0.01613    0.27771
 10 Li    0.01165   -0.00074    0.25943
 11 Li   -0.02391   -0.01624    0.26195
 12 Li    0.00425    0.01801    0.30150
 13 Li    0.01996    0.01726    0.26579
 14 Li   -0.02292    0.02423    0.27118
 15 Li    0.00567    0.02107    0.21931
 16 Li   -0.04058    0.00669    0.26527
 17 Li    0.02746    0.01750    0.25142
 18 Li    0.00242   -0.00261   -0.00193
 19 Li   -0.00341    0.00129    0.00739
 20 Li   -0.00066   -0.00244    0.00486
 21 Li   -0.00543   -0.00034    0.00654
 22 Li   -0.00577   -0.00445    0.00455
 23 Li    0.00452   -0.00104    0.00767
 24 Li    0.00170    0.00278    0.00375
 25 Li    0.00155   -0.00212    0.00257
 26 Li    0.00235    0.00191    0.00598
 27 Li    0.00548   -0.02329   -0.01302
 28 Li    0.00158   -0.00365   -0.00128
 29 Li   -0.00137   -0.00295    0.00220
 30 Li   -0.00295    0.00553    0.00000
 31 Li   -0.00824    0.00120    0.00849
 32 Li   -0.00787    0.00418    0.00105
 33 Li    0.00131   -0.00058    0.00289
 34 Li    0.00340    0.00256    0.00276
 35 Li   -0.00596   -0.00002    0.00486
 36 F    -0.01280    0.02025   -0.01744
 37 H     0.02284   -0.03823   -0.00043
 38 N    -0.01664   -0.03812   -0.01113
 39 N     0.00593   -0.00351    0.00274

Timing:                                      incl.     excl.
-------------------------------------------------------------------
Density initialized from wave functions:   187.219   187.202   0.0% |
 Symmetrize density:                         0.017     0.017   0.0% |
Forces:                                    643.934   643.934   0.1% |
Hamiltonian:                              8659.700     0.027   0.0% |
 Atomic:                                    12.309     0.136   0.0% |
  XC Correction:                            12.173    12.173   0.0% |
 Calculate atomic Hamiltonians:             44.422    44.422   0.0% |
 Communicate:                               37.520    37.520   0.0% |
 Hartree integrate/restrict:                16.974    16.974   0.0% |
 Initialize Hamiltonian:                     0.000     0.000   0.0% |
 Poisson:                                  344.451   155.109   0.0% |
  Communicate from 1D:                      24.432    24.432   0.0% |
  Communicate from 2D:                      45.602    45.602   0.0% |
  Communicate to 1D:                        10.405    10.405   0.0% |
  Communicate to 2D:                        40.223    40.223   0.0% |
  FFT 1D:                                   33.570    33.570   0.0% |
  FFT 2D:                                   35.110    35.110   0.0% |
 XC 3D grid:                              8199.823   843.153   0.2% |
  VdW-DF integral:                        7356.670    16.620   0.0% |
   Convolution:                            468.192   468.192   0.1% |
   FFT:                                     77.990    77.990   0.0% |
   gather:                                5855.293  5855.293   1.2% |
   hmm1:                                    90.824    90.824   0.0% |
   hmm2:                                   118.696   118.696   0.0% |
   iFFT:                                    84.222    84.222   0.0% |
   potential:                              630.293     7.199   0.0% |
    collect:                                60.115    60.115   0.0% |
    p1:                                    250.712   250.712   0.1% |
    p2:                                    168.245   168.245   0.0% |
    sum:                                   144.022   144.022   0.0% |
   splines:                                 14.540    14.540   0.0% |
 vbar:                                       4.174     4.174   0.0% |
LCAO initialization:                        12.707     0.467   0.0% |
 LCAO eigensolver:                           4.121     0.001   0.0% |
  Calculate projections:                     0.000     0.000   0.0% |
  DenseAtomicCorrection:                     0.000     0.000   0.0% |
  Distribute overlap matrix:                 3.857     3.857   0.0% |
  Orbital Layouts:                           0.062     0.062   0.0% |
  Potential matrix:                          0.197     0.197   0.0% |
  Sum over cells:                            0.004     0.004   0.0% |
 LCAO to grid:                               6.099     6.099   0.0% |
 Set positions (LCAO WFS):                   2.020     1.579   0.0% |
  Basic WFS set positions:                   0.015     0.015   0.0% |
  Basis functions set positions:             0.001     0.001   0.0% |
  P tci:                                     0.000     0.000   0.0% |
  ST tci:                                    0.246     0.246   0.0% |
  mktci:                                     0.179     0.179   0.0% |
Redistribute:                                0.079     0.079   0.0% |
SCF-cycle:                               459039.480  5954.024   1.3% ||
 Davidson:                               126897.838 52722.389  11.2% |---|
  Apply hamiltonian:                      8103.086  8103.086   1.7% ||
  Subspace diag:                         17509.941     0.918   0.0% |
   calc_h_matrix:                        10953.841  2990.526   0.6% |
    Apply hamiltonian:                    7963.316  7963.316   1.7% ||
   diagonalize:                            642.733   642.733   0.1% |
   rotate_psi:                            5912.449  5912.449   1.3% ||
  calc. matrices:                        37040.238 22311.377   4.7% |-|
   Apply hamiltonian:                    14728.861 14728.861   3.1% ||
  diagonalize:                              42.191    42.191   0.0% |
  rotate_psi:                            11479.992 11479.992   2.4% ||
 Density:                                 3051.481     0.210   0.0% |
  Atomic density matrices:                 771.457   771.457   0.2% |
  Mix:                                    1044.418  1044.418   0.2% |
  Multipole moments:                        11.670    11.670   0.0% |
  Pseudo density:                         1223.725  1223.569   0.3% |
   Symmetrize density:                       0.157     0.157   0.0% |
 Hamiltonian:                            322891.404     0.874   0.0% |
  Atomic:                                  474.993     6.289   0.0% |
   XC Correction:                          468.704   468.704   0.1% |
  Calculate atomic Hamiltonians:          1607.928  1607.928   0.3% |
  Communicate:                            1478.590  1478.590   0.3% |
  Hartree integrate/restrict:              587.515   587.515   0.1% |
  Poisson:                               13012.325  5902.116   1.3% ||
   Communicate from 1D:                    968.346   968.346   0.2% |
   Communicate from 2D:                   1627.706  1627.706   0.3% |
   Communicate to 1D:                      397.693   397.693   0.1% |
   Communicate to 2D:                     1496.062  1496.062   0.3% |
   FFT 1D:                                1293.830  1293.830   0.3% |
   FFT 2D:                                1326.572  1326.572   0.3% |
  XC 3D grid:                            305581.141 31476.417   6.7% |--|
   VdW-DF integral:                      274104.725   639.155   0.1% |
    Convolution:                         17426.761 17426.761   3.7% ||
    FFT:                                  2996.912  2996.912   0.6% |
    gather:                              218758.404 218758.404  46.5% |------------------|
    hmm1:                                 3236.617  3236.617   0.7% |
    hmm2:                                 4335.428  4335.428   0.9% |
    iFFT:                                 3182.686  3182.686   0.7% |
    potential:                           23528.731   271.482   0.1% |
     collect:                             2176.601  2176.601   0.5% |
     p1:                                  9314.606  9314.606   2.0% ||
     p2:                                  6162.564  6162.564   1.3% ||
     sum:                                 5603.478  5603.478   1.2% |
    splines:                                 0.029     0.029   0.0% |
  vbar:                                    148.038   148.038   0.0% |
 Orthonormalize:                           244.733     0.033   0.0% |
  calc_s_matrix:                            37.087    37.087   0.0% |
  inverse-cholesky:                          9.442     9.442   0.0% |
  projections:                             114.918   114.918   0.0% |
  rotate_psi_s:                             83.252    83.252   0.0% |
Set symmetry:                                0.013     0.013   0.0% |
Other:                                    2084.188  2084.188   0.4% |
-------------------------------------------------------------------
Total:                                             470627.321 100.0%

Memory usage: 1.62 GiB
Date: Wed Mar  8 20:02:23 2023
