
  ___ ___ ___ _ _ _  
 |   |   |_  | | | | 
 | | | | | . | | | | 
 |__ |  _|___|_____|  22.8.0
 |___|_|             

User:   vazumah@r387.ib.bridges2.psc.edu
Date:   Wed Mar  8 22:14:20 2023
Arch:   x86_64
Pid:    35901
CWD:    /jet/home/vazumah/Calcs/N2_with_proton_donor/CH3CH2OH_x/bridge/0.0_1.617/N2_z
Python: 3.11.0
gpaw:   /jet/home/vazumah/.conda/envs/GPAW_mpich/lib/python3.11/site-packages/gpaw
_gpaw:  /jet/home/vazumah/.conda/envs/GPAW_mpich/lib/python3.11/site-packages/
        _gpaw.cpython-311-x86_64-linux-gnu.so
ase:    /jet/home/vazumah/.conda/envs/GPAW_mpich/lib/python3.11/site-packages/ase (version 3.22.1)
numpy:  /jet/home/vazumah/.conda/envs/GPAW_mpich/lib/python3.11/site-packages/numpy (version 1.24.2)
scipy:  /jet/home/vazumah/.conda/envs/GPAW_mpich/lib/python3.11/site-packages/scipy (version 1.10.1)
libxc:  5.2.3
units:  Angstrom and eV
cores: 128
OpenMP: True
OMP_NUM_THREADS: 1

Input parameters:
  h: 0.16
  kpts: {size: [4, 4, 1]}
  occupations: {name: fermi-dirac,
                width: 0.05}
  poissonsolver: {dipolelayer: xy}
  xc: BEEF-vdW

System changes: positions, numbers, cell, pbc, initial_charges, initial_magmoms 

Initialize ...

species:
  Li:
    name: Lithium
    id: 830b4218f175192f93f959cfc0aad614
    Z: 3.0
    valence: 1
    core: 2
    charge: 0.0
    file: /jet/home/vazumah/datasets/gpaw-setups-0.9.20000/Li.PBE.gz
    compensation charges: {type: gauss,
                           rc: 0.33,
                           lmax: 2}
    cutoffs: {filter: 1.91,
              core: 2.55}
    valence states:
      #              energy  rcut
      - 2s(1.00)    -2.874   1.058
      - 2p(0.00)    -1.090   1.058
      -  s          24.337   1.058
  
    # Using partial waves for Li as LCAO basis

  O:
    name: Oxygen
    id: 32ecd46bf208036f09c70b0ec9a88b78
    Z: 8.0
    valence: 6
    core: 2
    charge: 0.0
    file: /jet/home/vazumah/datasets/gpaw-setups-0.9.20000/O.PBE.gz
    compensation charges: {type: gauss,
                           rc: 0.21,
                           lmax: 2}
    cutoffs: {filter: 1.17,
              core: 0.83}
    valence states:
      #              energy  rcut
      - 2s(2.00)   -23.961   0.688
      - 2p(4.00)    -9.029   0.598
      -  s           3.251   0.688
      -  p          18.182   0.598
      -  d           0.000   0.619
  
    # Using partial waves for O as LCAO basis

  C:
    name: Carbon
    id: 4aa54d4b901d75f77cc0ea3eec22967b
    Z: 6.0
    valence: 4
    core: 2
    charge: 0.0
    file: /jet/home/vazumah/datasets/gpaw-setups-0.9.20000/C.PBE.gz
    compensation charges: {type: gauss,
                           rc: 0.20,
                           lmax: 2}
    cutoffs: {filter: 1.14,
              core: 1.14}
    valence states:
      #              energy  rcut
      - 2s(2.00)   -13.751   0.635
      - 2p(2.00)    -5.284   0.635
      -  s          13.461   0.635
      -  p          21.927   0.635
      -  d           0.000   0.635
  
    # Using partial waves for C as LCAO basis

  H:
    name: Hydrogen
    id: d65de229564ff8ea4db303e23b6d1ecf
    Z: 1.0
    valence: 1
    core: 0
    charge: 0.0
    file: /jet/home/vazumah/datasets/gpaw-setups-0.9.20000/H.PBE.gz
    compensation charges: {type: gauss,
                           rc: 0.15,
                           lmax: 2}
    cutoffs: {filter: 0.85,
              core: 0.53}
    valence states:
      #              energy  rcut
      - 1s(1.00)    -6.494   0.476
      -  s          20.717   0.476
      -  p           0.000   0.476
  
    # Using partial waves for H as LCAO basis

  N:
    name: Nitrogen
    id: f7500608b86eaa90eef8b1d9a670dc53
    Z: 7.0
    valence: 5
    core: 2
    charge: 0.0
    file: /jet/home/vazumah/datasets/gpaw-setups-0.9.20000/N.PBE.gz
    compensation charges: {type: gauss,
                           rc: 0.18,
                           lmax: 2}
    cutoffs: {filter: 1.11,
              core: 0.96}
    valence states:
      #              energy  rcut
      - 2s(2.00)   -18.583   0.603
      - 2p(3.00)    -7.089   0.529
      -  s           8.629   0.603
      -  p          20.123   0.529
      -  d           0.000   0.577
  
    # Using partial waves for N as LCAO basis

Reference energy: -14434.854043  # eV

Spin-paired calculation

Convergence criteria:
 Maximum [total energy] change in last 3 cyles: 0.0005 eV / electron
 Maximum integral of absolute [dens]ity change: 0.0001 electrons / valence electron
 Maximum integral of absolute [eigenst]ate change: 4e-08 eV^2 / valence electron
 Maximum number of scf [iter]ations: 333
 (Square brackets indicate name in SCF output, whereas a 'c' in
 the SCF output indicates the quantity has converged.)

Symmetries present (total): 1

  ( 1  0  0)
  ( 0  1  0)
  ( 0  0  1)

16 k-points: 4 x 4 x 1 Monkhorst-Pack grid
8 k-points in the irreducible part of the Brillouin zone
       k-points in crystal coordinates                weights
   0:     0.12500000   -0.37500000    0.00000000          2/16
   1:     0.12500000   -0.12500000    0.00000000          2/16
   2:     0.12500000    0.12500000    0.00000000          2/16
   3:     0.12500000    0.37500000    0.00000000          2/16
   4:     0.37500000   -0.37500000    0.00000000          2/16
   5:     0.37500000   -0.12500000    0.00000000          2/16
   6:     0.37500000    0.12500000    0.00000000          2/16
   7:     0.37500000    0.37500000    0.00000000          2/16

Wave functions: Uniform real-space grid
  Kinetic energy operator: 6*3+1=19 point O(h^6) finite-difference Laplacian
  ScaLapack parameters: grid=1x1, blocksize=None
  Wavefunction extrapolation:
    Improved wavefunction reuse through dual PAW basis 

Occupation numbers: Fermi-Dirac:
  width: 0.0500  # eV
 

Eigensolver
   Davidson(niter=2) 

Densities:
  Coarse grid: 60*60*164 grid
  Fine grid: 120*120*328 grid
  Total Charge: 0.000000 

Density mixing:
  Method: separate
  Backend: pulay
  Linear mixing parameter: 0.05
  old densities: 5
  Damping of long wavelength oscillations: 50 

Hamiltonian:
  XC and Coulomb potentials evaluated on a 120*120*328 grid
  Using the BEEF-vdW Exchange-Correlation functional
  Interpolation: tri-quintic (5. degree polynomial)
  Poisson solver: FastPoissonSolver using
    Stencil: 6*3+1=19 point O(h^6) finite-difference Laplacian
    FFT axes: [0, 1]
    FST axes: [2]

Dipole correction along z-axis 

XC parameters: BEEF-vdW with 2 nearest neighbor stencil

Memory estimate:
  Process memory now: 129.03 MiB
  Calculator: 80.22 MiB
    Density: 22.47 MiB
      Arrays: 7.22 MiB
      Localized functions: 12.50 MiB
      Mixer: 2.75 MiB
    Hamiltonian: 5.71 MiB
      Arrays: 4.72 MiB
      XC: 0.00 MiB
      Poisson: 0.00 MiB
      vbar: 0.99 MiB
    Wavefunctions: 52.04 MiB
      Arrays psit_nG: 24.17 MiB
      Eigensolver: 27.21 MiB
      Projections: 0.01 MiB
      Projectors: 0.65 MiB

Total number of cores used: 128
Parallelization over k-points: 8
Domain decomposition: 2 x 2 x 4

Number of atoms: 47
Number of atomic orbitals: 170
Number of bands in calculation: 44
Number of valence electrons: 66
Bands to converge: occupied

... initialized

Initializing position-dependent things.

Density initialized from atomic densities
Creating initial wave functions:
  44 bands from LCAO basis set

       .-----------------------.  
      /|                       |  
     / |                       |  
    /  |                       |  
   /   |                       |  
  /    |                       |  
 *     |                       |  
 |     |                       |  
 |     |                       |  
 |     |                       |  
 |     |                       |  
 |     |                H      |  
 |     |           H           |  
 |O    |          H C   C H    |  
 |     |                       |  
 |N  Li|     Li    H Li        |  
 |N    |                       |  
 | Li  |  LLi     LLi     Li   |  
 |     |                       |  
 Li    |LLi     LLi     Li     |  
 |   Li|     Li      Li        |  
 |    Li  Li  Li  Li  Li  Li   |  
 | Li  |   Li      Li          |  
 |     |Li      Li      Li     |  
 Li    | Li      Li            |  
 |    Li      Li      Li       |  
 |     |                       |  
 |     |                       |  
 |     |                       |  
 |     |                       |  
 |     |                       |  
 |     |                       |  
 |     .-----------------------.  
 |    /                       /   
 |   /                       /    
 |  /                       /     
 | /                       /      
 |/                       /       
 *-----------------------*        

Positions:
   0 Li     1.617037    1.617037   10.000000    ( 0.0000,  0.0000,  0.0000)
   1 Li     4.851111    1.617037   10.000000    ( 0.0000,  0.0000,  0.0000)
   2 Li     8.085185    1.617037   10.000000    ( 0.0000,  0.0000,  0.0000)
   3 Li     1.617037    4.851111   10.000000    ( 0.0000,  0.0000,  0.0000)
   4 Li     4.851111    4.851111   10.000000    ( 0.0000,  0.0000,  0.0000)
   5 Li     8.085185    4.851111   10.000000    ( 0.0000,  0.0000,  0.0000)
   6 Li     1.617037    8.085185   10.000000    ( 0.0000,  0.0000,  0.0000)
   7 Li     4.851111    8.085185   10.000000    ( 0.0000,  0.0000,  0.0000)
   8 Li     8.085185    8.085185   10.000000    ( 0.0000,  0.0000,  0.0000)
   9 Li     0.000000    0.000000   11.617037    ( 0.0000,  0.0000,  0.0000)
  10 Li     3.234074    0.000000   11.617037    ( 0.0000,  0.0000,  0.0000)
  11 Li     6.468148    0.000000   11.617037    ( 0.0000,  0.0000,  0.0000)
  12 Li     0.000000    3.234074   11.617037    ( 0.0000,  0.0000,  0.0000)
  13 Li     3.234074    3.234074   11.617037    ( 0.0000,  0.0000,  0.0000)
  14 Li     6.468148    3.234074   11.617037    ( 0.0000,  0.0000,  0.0000)
  15 Li     0.000000    6.468148   11.617037    ( 0.0000,  0.0000,  0.0000)
  16 Li     3.234074    6.468148   11.617037    ( 0.0000,  0.0000,  0.0000)
  17 Li     6.468148    6.468148   11.617037    ( 0.0000,  0.0000,  0.0000)
  18 Li     1.617038    1.617038   13.469728    ( 0.0000,  0.0000,  0.0000)
  19 Li     4.851111    1.617038   13.469729    ( 0.0000,  0.0000,  0.0000)
  20 Li     8.085184    1.617038   13.469728    ( 0.0000,  0.0000,  0.0000)
  21 Li     1.617038    4.851111   13.469729    ( 0.0000,  0.0000,  0.0000)
  22 Li     4.851111    4.851111   13.469730    ( 0.0000,  0.0000,  0.0000)
  23 Li     8.085184    4.851111   13.469729    ( 0.0000,  0.0000,  0.0000)
  24 Li     1.617038    8.085184   13.469728    ( 0.0000,  0.0000,  0.0000)
  25 Li     4.851111    8.085184   13.469729    ( 0.0000,  0.0000,  0.0000)
  26 Li     8.085184    8.085184   13.469728    ( 0.0000,  0.0000,  0.0000)
  27 Li    -0.000000   -0.000000   15.445939    ( 0.0000,  0.0000,  0.0000)
  28 Li     3.234074    0.000000   15.445939    ( 0.0000,  0.0000,  0.0000)
  29 Li     6.468148    0.000000   15.445939    ( 0.0000,  0.0000,  0.0000)
  30 Li     0.000000    3.234074   15.445939    ( 0.0000,  0.0000,  0.0000)
  31 Li     3.234076    3.234076   15.445938    ( 0.0000,  0.0000,  0.0000)
  32 Li     6.468146    3.234076   15.445938    ( 0.0000,  0.0000,  0.0000)
  33 Li     0.000000    6.468148   15.445939    ( 0.0000,  0.0000,  0.0000)
  34 Li     3.234076    6.468146   15.445938    ( 0.0000,  0.0000,  0.0000)
  35 Li     6.468146    6.468146   15.445938    ( 0.0000,  0.0000,  0.0000)
  36 O      0.000000    1.617037   19.645939    ( 0.0000,  0.0000,  0.0000)
  37 C     -1.182408    2.433794   19.650238    ( 0.0000,  0.0000,  0.0000)
  38 C     -2.466622    1.614176   19.635704    ( 0.0000,  0.0000,  0.0000)
  39 H     -1.173784    3.117330   20.510398    ( 0.0000,  0.0000,  0.0000)
  40 H     -1.107019    3.043520   18.747442    ( 0.0000,  0.0000,  0.0000)
  41 H     -3.343549    2.268122   19.620269    ( 0.0000,  0.0000,  0.0000)
  42 H     -2.501333    0.965153   18.758886    ( 0.0000,  0.0000,  0.0000)
  43 H     -2.536810    0.985688   20.528265    ( 0.0000,  0.0000,  0.0000)
  44 H     -0.039167    1.034060   20.414164    ( 0.0000,  0.0000,  0.0000)
  45 N      0.000000    1.617000   16.945939    ( 0.0000,  0.0000,  0.0000)
  46 N      0.000000    1.617000   18.042561    ( 0.0000,  0.0000,  0.0000)

Unit cell:
           periodic     x           y           z      points  spacing
  1. axis:    yes    9.702222    0.000000    0.000000    60     0.1617
  2. axis:    yes    0.000000    9.702222    0.000000    60     0.1617
  3. axis:    no     0.000000    0.000000   26.351111   164     0.1607

  Lengths:   9.702222   9.702222  26.351111
  Angles:   90.000000  90.000000  90.000000

Effective grid spacing dv^(1/3) = 0.1614

     iter     time        total  log10-change:
                         energy  eigst   dens
iter:   1 22:14:34  -576.983975
iter:   2 22:14:48   -60.083134  +2.57  +0.01
iter:   3 22:14:55     7.344562  +3.25  -0.15
iter:   4 22:15:02  -169.964530  +3.18  -0.22
Writing to output.gpw (mode='')

iter:   5 22:15:09  -231.133640  +2.91  -0.23
iter:   6 22:15:16  -288.277730  +2.62  -0.48
iter:   7 22:15:23  -314.033618  +2.23  -0.62
iter:   8 22:15:30  -338.855262  +2.04  -0.61
iter:   9 22:15:37  -409.892800  +2.34  -0.51
Writing to output.gpw (mode='')

iter:  10 22:15:45  -334.842274  +1.61  -0.41
iter:  11 22:15:52  -313.271936  +1.37  -0.55
iter:  12 22:15:59  -311.213405  +1.36  -0.72
iter:  13 22:16:06  -312.829168  +1.35  -0.77
iter:  14 22:16:13  -308.832105  +0.62  -0.67
Writing to output.gpw (mode='')

iter:  15 22:16:20  -304.846368  +0.93  -0.76
iter:  16 22:16:27  -304.856377  +0.70  -0.92
iter:  17 22:16:34  -305.006783  +0.35  -0.95
iter:  18 22:16:41  -303.412296  +0.38  -0.97
iter:  19 22:16:49  -303.415176  -0.04  -1.32
Writing to output.gpw (mode='')

iter:  20 22:16:56  -303.414862c +0.05  -1.35
iter:  21 22:17:03  -303.417489c -0.27  -1.40
iter:  22 22:17:10  -303.371371  -0.49  -1.47
iter:  23 22:17:17  -303.410434  -0.19  -1.58
iter:  24 22:17:24  -303.414396  -0.66  -1.60
Writing to output.gpw (mode='')

iter:  25 22:17:31  -303.412966c -0.82  -1.63
iter:  26 22:17:38  -303.413852c -1.04  -1.69
iter:  27 22:17:46  -303.399292c -1.08  -1.75
iter:  28 22:17:53  -303.398319c -1.33  -2.06
iter:  29 22:18:00  -303.406036c -1.11  -2.19
Writing to output.gpw (mode='')

iter:  30 22:18:07  -303.408777c -1.51  -2.22
iter:  31 22:18:14  -303.412283c -1.59  -2.34
iter:  32 22:18:21  -303.417234c -1.45  -2.46
iter:  33 22:18:28  -303.419633c -1.89  -2.56
iter:  34 22:18:35  -303.422723c -1.67  -2.61
Writing to output.gpw (mode='')

iter:  35 22:18:42  -303.424710c -2.10  -2.78
iter:  36 22:18:49  -303.426445c -2.10  -2.76
iter:  37 22:18:56  -303.428521c -1.84  -2.76
iter:  38 22:19:03  -303.430403c -1.90  -2.82
iter:  39 22:19:10  -303.431894c -2.11  -2.85
Writing to output.gpw (mode='')

iter:  40 22:19:18  -303.433312c -2.17  -2.86
iter:  41 22:19:25  -303.434171c -2.46  -2.99
iter:  42 22:19:32  -303.434855c -2.49  -3.09
iter:  43 22:19:46  -303.435626c -2.50  -3.15
iter:  44 22:19:53  -303.436083c -2.85  -3.34
Writing to output.gpw (mode='')

iter:  45 22:20:00  -303.436686c -2.50  -3.38
iter:  46 22:20:07  -303.437066c -2.82  -3.50
iter:  47 22:20:14  -303.437366c -2.91  -3.56
iter:  48 22:20:21  -303.437600c -3.09  -3.56
iter:  49 22:20:28  -303.437812c -3.19  -3.52
Writing to output.gpw (mode='')

iter:  50 22:20:36  -303.438097c -2.94  -3.51
iter:  51 22:20:43  -303.438251c -3.21  -3.26
iter:  52 22:20:50  -303.438445c -3.00  -3.35
iter:  53 22:20:57  -303.438584c -3.14  -3.45
iter:  54 22:21:04  -303.438706c -3.38  -3.51
Writing to output.gpw (mode='')

iter:  55 22:21:11  -303.438814c -3.24  -3.36
iter:  56 22:21:18  -303.438892c -3.44  -3.50
iter:  57 22:21:25  -303.438960c -3.37  -3.57
iter:  58 22:21:32  -303.439024c -3.41  -3.64
iter:  59 22:21:39  -303.439074c -3.65  -3.89
Writing to output.gpw (mode='')

iter:  60 22:21:46  -303.439117c -3.70  -3.93
iter:  61 22:21:53  -303.439157c -3.65  -3.98
iter:  62 22:22:00  -303.439187c -3.85  -4.18c
iter:  63 22:22:07  -303.439211c -3.99  -4.30c
iter:  64 22:22:14  -303.439234c -3.94  -4.50c
Writing to output.gpw (mode='')

iter:  65 22:22:22  -303.439253c -4.04  -4.49c
iter:  66 22:22:29  -303.439268c -4.09  -4.65c
iter:  67 22:22:36  -303.439282c -4.09  -4.71c
iter:  68 22:22:43  -303.439293c -4.26  -4.77c
iter:  69 22:22:50  -303.439303c -4.32  -4.73c
Writing to output.gpw (mode='')

iter:  70 22:22:57  -303.439311c -4.32  -4.74c
iter:  71 22:23:04  -303.439319c -4.37  -4.73c
iter:  72 22:23:11  -303.439328c -4.37  -4.63c
iter:  73 22:23:18  -303.439334c -4.61  -4.54c
iter:  74 22:23:25  -303.439338c -4.64  -4.46c
Writing to output.gpw (mode='')

iter:  75 22:23:32  -303.439342c -4.63  -4.45c
iter:  76 22:23:39  -303.439346c -4.74  -4.48c
iter:  77 22:23:47  -303.439349c -4.72  -4.38c
iter:  78 22:23:54  -303.439352c -4.62  -4.44c
iter:  79 22:24:01  -303.439354c -4.83  -4.42c
Writing to output.gpw (mode='')

iter:  80 22:24:08  -303.439356c -4.89  -4.38c
iter:  81 22:24:15  -303.439358c -4.88  -4.40c
iter:  82 22:24:22  -303.439359c -4.82  -4.39c
iter:  83 22:24:29  -303.439361c -4.82  -4.37c
iter:  84 22:24:42  -303.439362c -5.11  -4.35c
Writing to output.gpw (mode='')

iter:  85 22:24:51  -303.439363c -5.21  -4.23c
iter:  86 22:24:58  -303.439364c -5.21  -4.41c
iter:  87 22:25:05  -303.439365c -5.22  -4.47c
iter:  88 22:25:12  -303.439366c -5.23  -4.63c
iter:  89 22:25:19  -303.439366c -5.14  -4.70c
Writing to output.gpw (mode='')

iter:  90 22:25:26  -303.439366c -5.32  -4.76c
iter:  91 22:25:33  -303.439366c -5.54  -4.81c
iter:  92 22:25:40  -303.439367c -5.65  -5.07c
iter:  93 22:25:47  -303.439367c -5.51  -5.11c
iter:  94 22:25:54  -303.439367c -5.71  -5.26c
Writing to output.gpw (mode='')

iter:  95 22:26:02  -303.439367c -5.53  -5.34c
iter:  96 22:26:09  -303.439367c -5.77  -5.42c
iter:  97 22:26:19  -303.439367c -5.81  -5.52c
iter:  98 22:26:26  -303.439367c -5.83  -5.58c
iter:  99 22:26:33  -303.439367c -5.91  -5.56c
Writing to output.gpw (mode='')

iter: 100 22:26:40  -303.439367c -5.93  -5.49c
iter: 101 22:26:47  -303.439367c -5.98  -5.58c
iter: 102 22:26:54  -303.439367c -6.01  -5.60c
iter: 103 22:27:01  -303.439367c -5.89  -5.68c
iter: 104 22:27:08  -303.439367c -5.98  -5.63c
Writing to output.gpw (mode='')

iter: 105 22:27:15  -303.439367c -6.21  -5.58c
iter: 106 22:27:22  -303.439367c -6.09  -5.48c
iter: 107 22:27:30  -303.439367c -6.23  -5.46c
iter: 108 22:27:37  -303.439367c -6.20  -5.40c
iter: 109 22:27:44  -303.439367c -6.45  -5.38c
Writing to output.gpw (mode='')

iter: 110 22:27:51  -303.439367c -6.49  -5.48c
iter: 111 22:27:58  -303.439367c -6.51  -5.38c
iter: 112 22:28:05  -303.439367c -6.60  -5.70c
iter: 113 22:28:12  -303.439367c -6.61  -5.74c
iter: 114 22:28:19  -303.439367c -6.64  -5.67c
Writing to output.gpw (mode='')

iter: 115 22:28:26  -303.439367c -6.62  -5.68c
iter: 116 22:28:33  -303.439367c -6.59  -5.74c
iter: 117 22:28:40  -303.439367c -6.72  -5.78c
iter: 118 22:28:47  -303.439367c -6.80  -5.76c
iter: 119 22:28:54  -303.439367c -6.88  -5.60c
Writing to output.gpw (mode='')

iter: 120 22:29:01  -303.439367c -6.89  -5.60c
iter: 121 22:29:09  -303.439367c -6.91  -5.49c
iter: 122 22:29:16  -303.439367c -6.98  -5.59c
iter: 123 22:29:23  -303.439367c -7.00  -5.74c
iter: 124 22:29:30  -303.439367c -6.99  -5.86c
Writing to output.gpw (mode='')

iter: 125 22:29:45  -303.439367c -6.99  -5.96c
iter: 126 22:29:52  -303.439367c -6.90  -6.11c
iter: 127 22:29:59  -303.439367c -6.92  -6.22c
iter: 128 22:30:07  -303.439367c -6.94  -6.29c
iter: 129 22:30:14  -303.439367c -7.14  -6.31c
Writing to output.gpw (mode='')

iter: 130 22:30:21  -303.439367c -7.20  -6.32c
iter: 131 22:30:28  -303.439367c -7.29  -6.32c
iter: 132 22:30:35  -303.439367c -7.31  -6.49c
iter: 133 22:30:42  -303.439367c -7.31  -6.69c
iter: 134 22:30:49  -303.439367c -7.39  -6.77c
Writing to output.gpw (mode='')

iter: 135 22:30:56  -303.439367c -7.37  -6.73c
iter: 136 22:31:03  -303.439367c -7.42c -6.65c

Converged after 136 iterations.

Dipole moment: (-13.076514, -4.130077, 0.338074) |e|*Ang

Energy contributions relative to reference atoms: (reference = -14434.854043)

Kinetic:       +178.603408
Potential:     -165.066028
External:        +0.000000
XC:            -317.623418
Entropy (-ST):   -0.141135
Local:           +0.717239
--------------------------
Free energy:   -303.509934
Extrapolated:  -303.439367

Dipole-layer corrected work functions: 3.381935, 2.732041 eV

Showing only first 2 kpts
 Kpt  Band  Eigenvalues  Occupancy
  0    31     -3.30158    1.98510
  0    32     -3.17805    1.83687
  0    33     -2.89935    0.08196
  0    34     -2.80044    0.01175

  1    31     -3.10538    1.44941
  1    32     -3.06104    1.04053
  1    33     -3.03375    0.77173
  1    34     -2.93895    0.17242


Fermi level: -3.05699

No gap
Writing to output.gpw (mode='')


Forces in eV/Ang:
  0 Li    0.01224   -0.00020   -0.27327
  1 Li    0.00095   -0.00058   -0.26000
  2 Li   -0.01281    0.00117   -0.27395
  3 Li    0.00187    0.01095   -0.27124
  4 Li    0.00021    0.00216   -0.28147
  5 Li   -0.00177    0.00868   -0.27184
  6 Li    0.00331   -0.01037   -0.27214
  7 Li   -0.00100   -0.00130   -0.28031
  8 Li   -0.00200   -0.00955   -0.27195
  9 Li   -0.00012    0.02004    0.31751
 10 Li    0.02081   -0.00761    0.25424
 11 Li   -0.02058   -0.00378    0.25383
 12 Li    0.00036   -0.01829    0.31333
 13 Li    0.02123    0.00618    0.25639
 14 Li   -0.02145    0.00505    0.25310
 15 Li   -0.00107   -0.00195    0.23484
 16 Li   -0.02976    0.00071    0.26305
 17 Li    0.02998   -0.00164    0.27018
 18 Li    0.07301    0.00060   -0.09861
 19 Li   -0.00252   -0.00071    0.06112
 20 Li   -0.07187    0.00130   -0.08631
 21 Li   -0.02061   -0.02344    0.05597
 22 Li   -0.00222    0.01354    0.02549
 23 Li    0.02221   -0.02648    0.06220
 24 Li   -0.02331    0.02154    0.05623
 25 Li   -0.00043   -0.01291    0.03055
 26 Li    0.02318    0.02409    0.05632
 27 Li    0.00123    0.10360   -0.02835
 28 Li    0.05950   -0.02945   -0.05136
 29 Li   -0.05886   -0.02992   -0.06408
 30 Li   -0.00104   -0.07888   -0.06041
 31 Li    0.05622    0.03023   -0.04744
 32 Li   -0.05028    0.03263   -0.05656
 33 Li   -0.00403   -0.00534   -0.02334
 34 Li   -0.01218    0.00071   -0.01530
 35 Li    0.01696   -0.00259   -0.00683
 36 O    -0.08454   -1.00430   11.96699
 37 C    -0.95456    0.61668    1.27666
 38 C     0.02825   -0.08467    0.10325
 39 H     0.18670   -0.13473   -0.12404
 40 H    -0.14765    0.20463    0.29174
 41 H     0.07414    0.00858   -0.05526
 42 H    -0.06985   -0.01239   -0.02801
 43 H     0.00103    0.00867   -0.03442
 44 H    -0.07632   -0.22414    2.16615
 45 N     0.34035   -1.40609   -4.68785
 46 N     0.70434    2.01612  -10.68263

System changes: positions 

Initializing position-dependent things.

Density initialized from wave functions
       .-----------------------.  
      /|                       |  
     / |                       |  
    /  |                       |  
   /   |                       |  
  /    |                       |  
 *     |                       |  
 |     |                       |  
 |     |                       |  
 |     |                       |  
 |     |                       |  
 |     |                H      |  
 |     |           H           |  
 |     |       Li H C  LC H    |  
 |     |                       |  
 |N    |     Li    H Li      Li|  
 |N    |                       |  
 |     |  LLi     LLi     LLi  |  
 |     |                       |  
 Li    |Li      Li      Li     |  
 |   Li|     Li      Li        |  
 |    Li  Li  Li  Li  Li  Li   |  
 | Li  |   Li      Li          |  
 |     |Li      Li      Li     |  
 Li    | Li      Li            |  
 |    Li      Li      Li       |  
 |     |                       |  
 |     |                       |  
 |     |                       |  
 |     |                       |  
 |     |                       |  
 |     |                       |  
 |     .-----------------------.  
 |    /                       /   
 |   /                       /    
 |  /                       /     
 | /                       /      
 |/                       /       
 *-----------------------*        

Positions:
   0 Li     1.617037    1.617037   10.000000    ( 0.0000,  0.0000,  0.0000)
   1 Li     4.851111    1.617037   10.000000    ( 0.0000,  0.0000,  0.0000)
   2 Li     8.085185    1.617037   10.000000    ( 0.0000,  0.0000,  0.0000)
   3 Li     1.617037    4.851111   10.000000    ( 0.0000,  0.0000,  0.0000)
   4 Li     4.851111    4.851111   10.000000    ( 0.0000,  0.0000,  0.0000)
   5 Li     8.085185    4.851111   10.000000    ( 0.0000,  0.0000,  0.0000)
   6 Li     1.617037    8.085185   10.000000    ( 0.0000,  0.0000,  0.0000)
   7 Li     4.851111    8.085185   10.000000    ( 0.0000,  0.0000,  0.0000)
   8 Li     8.085185    8.085185   10.000000    ( 0.0000,  0.0000,  0.0000)
   9 Li     0.000000    0.000000   11.617037    ( 0.0000,  0.0000,  0.0000)
  10 Li     3.234074    0.000000   11.617037    ( 0.0000,  0.0000,  0.0000)
  11 Li     6.468148    0.000000   11.617037    ( 0.0000,  0.0000,  0.0000)
  12 Li     0.000000    3.234074   11.617037    ( 0.0000,  0.0000,  0.0000)
  13 Li     3.234074    3.234074   11.617037    ( 0.0000,  0.0000,  0.0000)
  14 Li     6.468148    3.234074   11.617037    ( 0.0000,  0.0000,  0.0000)
  15 Li     0.000000    6.468148   11.617037    ( 0.0000,  0.0000,  0.0000)
  16 Li     3.234074    6.468148   11.617037    ( 0.0000,  0.0000,  0.0000)
  17 Li     6.468148    6.468148   11.617037    ( 0.0000,  0.0000,  0.0000)
  18 Li     1.617281    1.617040   13.469399    ( 0.0000,  0.0000,  0.0000)
  19 Li     4.851103    1.617036   13.469933    ( 0.0000,  0.0000,  0.0000)
  20 Li     8.084945    1.617042   13.469440    ( 0.0000,  0.0000,  0.0000)
  21 Li     1.616970    4.851033   13.469916    ( 0.0000,  0.0000,  0.0000)
  22 Li     4.851104    4.851156   13.469815    ( 0.0000,  0.0000,  0.0000)
  23 Li     8.085258    4.851023   13.469937    ( 0.0000,  0.0000,  0.0000)
  24 Li     1.616960    8.085256   13.469915    ( 0.0000,  0.0000,  0.0000)
  25 Li     4.851110    8.085141   13.469831    ( 0.0000,  0.0000,  0.0000)
  26 Li     8.085261    8.085264   13.469915    ( 0.0000,  0.0000,  0.0000)
  27 Li     0.000004    0.000345   15.445845    ( 0.0000,  0.0000,  0.0000)
  28 Li     3.234272   -0.000098   15.445768    ( 0.0000,  0.0000,  0.0000)
  29 Li     6.467952   -0.000100   15.445725    ( 0.0000,  0.0000,  0.0000)
  30 Li    -0.000003    3.233811   15.445738    ( 0.0000,  0.0000,  0.0000)
  31 Li     3.234264    3.234177   15.445780    ( 0.0000,  0.0000,  0.0000)
  32 Li     6.467978    3.234185   15.445750    ( 0.0000,  0.0000,  0.0000)
  33 Li    -0.000013    6.468130   15.445861    ( 0.0000,  0.0000,  0.0000)
  34 Li     3.234036    6.468148   15.445887    ( 0.0000,  0.0000,  0.0000)
  35 Li     6.468202    6.468137   15.445915    ( 0.0000,  0.0000,  0.0000)
  36 O     -0.000282    1.613692   19.685798    ( 0.0000,  0.0000,  0.0000)
  37 C     -1.185587    2.435848   19.654490    ( 0.0000,  0.0000,  0.0000)
  38 C     -2.466528    1.613894   19.636048    ( 0.0000,  0.0000,  0.0000)
  39 H     -1.173162    3.116881   20.509985    ( 0.0000,  0.0000,  0.0000)
  40 H     -1.107511    3.044201   18.748414    ( 0.0000,  0.0000,  0.0000)
  41 H     -3.343302    2.268151   19.620085    ( 0.0000,  0.0000,  0.0000)
  42 H     -2.501566    0.965112   18.758793    ( 0.0000,  0.0000,  0.0000)
  43 H     -2.536806    0.985717   20.528151    ( 0.0000,  0.0000,  0.0000)
  44 H     -0.039421    1.033314   20.421379    ( 0.0000,  0.0000,  0.0000)
  45 N      0.001134    1.612317   16.930325    ( 0.0000,  0.0000,  0.0000)
  46 N      0.002346    1.623715   18.006980    ( 0.0000,  0.0000,  0.0000)

Unit cell:
           periodic     x           y           z      points  spacing
  1. axis:    yes    9.702222    0.000000    0.000000    60     0.1617
  2. axis:    yes    0.000000    9.702222    0.000000    60     0.1617
  3. axis:    no     0.000000    0.000000   26.351111   164     0.1607

  Lengths:   9.702222   9.702222  26.351111
  Angles:   90.000000  90.000000  90.000000

Effective grid spacing dv^(1/3) = 0.1614

     iter     time        total  log10-change:
                         energy  eigst   dens
iter:   1 22:31:12  -304.884882  -0.73
iter:   2 22:31:19  -304.445343  -0.44  -1.27
iter:   3 22:31:26  -304.347967  -1.23  -1.49
iter:   4 22:31:33  -304.297492  -0.51  -1.85
Writing to output.gpw (mode='')

iter:   5 22:31:41  -304.293135  -1.50  -1.87
iter:   6 22:31:48  -304.302735c -1.31  -2.17
iter:   7 22:31:55  -304.291115c -1.14  -2.11
iter:   8 22:32:02  -304.286790c -1.85  -2.26
iter:   9 22:32:09  -304.285020c -1.90  -2.36
Writing to output.gpw (mode='')

iter:  10 22:32:16  -304.285174c -2.44  -2.57
iter:  11 22:32:23  -304.285205c -2.57  -2.67
iter:  12 22:32:30  -304.285484c -2.48  -2.74
iter:  13 22:32:38  -304.285486c -3.00  -2.78
iter:  14 22:32:45  -304.285595c -2.83  -2.93
Writing to output.gpw (mode='')

iter:  15 22:32:52  -304.285724c -3.02  -3.06
iter:  16 22:32:59  -304.285816c -3.24  -3.09
iter:  17 22:33:06  -304.285847c -3.24  -3.11
iter:  18 22:33:13  -304.285844c -3.37  -3.29
iter:  19 22:33:20  -304.285882c -3.88  -3.57
Writing to output.gpw (mode='')

iter:  20 22:33:28  -304.285956c -3.49  -3.63
iter:  21 22:33:35  -304.285955c -3.91  -3.57
iter:  22 22:33:42  -304.285968c -3.76  -3.73
iter:  23 22:33:49  -304.285980c -4.28  -3.75
iter:  24 22:33:56  -304.286008c -3.95  -3.77
Writing to output.gpw (mode='')

iter:  25 22:34:03  -304.286007c -4.23  -3.74
iter:  26 22:34:10  -304.286012c -4.55  -3.86
iter:  27 22:34:18  -304.286018c -4.43  -3.97
iter:  28 22:34:25  -304.286021c -4.29  -3.98
iter:  29 22:34:32  -304.286023c -4.70  -4.11c
Writing to output.gpw (mode='')

iter:  30 22:34:43  -304.286025c -4.61  -4.31c
iter:  31 22:34:51  -304.286027c -5.08  -4.34c
iter:  32 22:34:59  -304.286030c -5.01  -4.46c
iter:  33 22:35:06  -304.286032c -4.95  -4.61c
iter:  34 22:35:13  -304.286033c -5.38  -4.71c
Writing to output.gpw (mode='')

iter:  35 22:35:20  -304.286034c -5.15  -4.77c
iter:  36 22:35:27  -304.286036c -5.01  -4.77c
iter:  37 22:35:34  -304.286037c -5.26  -4.70c
iter:  38 22:35:42  -304.286037c -5.35  -4.77c
iter:  39 22:35:49  -304.286038c -5.50  -4.78c
Writing to output.gpw (mode='')

iter:  40 22:35:56  -304.286039c -5.32  -4.75c
iter:  41 22:36:03  -304.286039c -5.71  -4.70c
iter:  42 22:36:10  -304.286040c -5.46  -4.69c
iter:  43 22:36:17  -304.286041c -5.56  -4.67c
iter:  44 22:36:24  -304.286041c -5.77  -4.62c
Writing to output.gpw (mode='')

iter:  45 22:36:32  -304.286041c -5.85  -4.66c
iter:  46 22:36:39  -304.286042c -5.93  -4.59c
iter:  47 22:36:46  -304.286041c -5.81  -4.60c
iter:  48 22:36:53  -304.286041c -6.09  -4.75c
iter:  49 22:37:00  -304.286041c -6.00  -4.80c
Writing to output.gpw (mode='')

iter:  50 22:37:07  -304.286041c -6.13  -4.86c
iter:  51 22:37:15  -304.286041c -6.28  -4.85c
iter:  52 22:37:22  -304.286041c -6.01  -4.81c
iter:  53 22:37:29  -304.286041c -6.34  -4.88c
iter:  54 22:37:36  -304.286041c -6.36  -4.86c
Writing to output.gpw (mode='')

iter:  55 22:37:43  -304.286041c -6.06  -4.86c
iter:  56 22:37:50  -304.286042c -6.00  -4.85c
iter:  57 22:37:57  -304.286042c -6.36  -4.84c
iter:  58 22:38:05  -304.286041c -6.60  -4.81c
iter:  59 22:38:12  -304.286041c -6.74  -4.81c
Writing to output.gpw (mode='')

iter:  60 22:38:19  -304.286042c -6.64  -4.85c
iter:  61 22:38:26  -304.286041c -6.68  -4.85c
iter:  62 22:38:33  -304.286041c -6.71  -4.84c
iter:  63 22:38:40  -304.286041c -6.57  -4.85c
iter:  64 22:38:47  -304.286041c -6.77  -4.98c
Writing to output.gpw (mode='')

iter:  65 22:38:55  -304.286041c -6.83  -5.06c
iter:  66 22:39:02  -304.286041c -6.62  -5.25c
iter:  67 22:39:09  -304.286041c -6.87  -5.34c
iter:  68 22:39:16  -304.286041c -6.78  -5.37c
iter:  69 22:39:23  -304.286041c -6.89  -5.44c
Writing to output.gpw (mode='')

iter:  70 22:39:30  -304.286041c -6.66  -5.56c
iter:  71 22:39:43  -304.286041c -7.17  -5.65c
iter:  72 22:39:51  -304.286041c -6.97  -5.70c
iter:  73 22:39:58  -304.286041c -7.12  -5.75c
iter:  74 22:40:05  -304.286041c -7.27  -5.81c
Writing to output.gpw (mode='')

iter:  75 22:40:12  -304.286041c -7.04  -5.82c
iter:  76 22:40:20  -304.286041c -7.26  -5.83c
iter:  77 22:40:27  -304.286041c -7.23  -5.85c
iter:  78 22:40:34  -304.286041c -7.70c -5.92c

Converged after 78 iterations.

Dipole moment: (-13.322470, -4.159716, 0.360522) |e|*Ang

Energy contributions relative to reference atoms: (reference = -14434.854043)

Kinetic:       +179.635790
Potential:     -166.280863
External:        +0.000000
XC:            -318.299649
Entropy (-ST):   -0.140949
Local:           +0.729156
--------------------------
Free energy:   -304.356516
Extrapolated:  -304.286041

Dipole-layer corrected work functions: 3.380736, 2.687688 eV

Showing only first 2 kpts
 Kpt  Band  Eigenvalues  Occupancy
  0    31     -3.27930    1.98524
  0    32     -3.15672    1.84113
  0    33     -2.87572    0.08063
  0    34     -2.77755    0.01172

  1    31     -3.08196    1.44425
  1    32     -3.03827    1.04058
  1    33     -3.01098    0.77174
  1    34     -2.91692    0.17479


Fermi level: -3.03421

No gap
Writing to output.gpw (mode='')


Forces in eV/Ang:
  0 Li    0.01228   -0.00023   -0.27321
  1 Li    0.00080   -0.00053   -0.25998
  2 Li   -0.01275    0.00108   -0.27381
  3 Li    0.00161    0.01068   -0.27111
  4 Li    0.00028    0.00187   -0.28099
  5 Li   -0.00155    0.00862   -0.27170
  6 Li    0.00295   -0.01011   -0.27192
  7 Li   -0.00095   -0.00125   -0.27998
  8 Li   -0.00166   -0.00946   -0.27177
  9 Li   -0.00007    0.02025    0.31696
 10 Li    0.02131   -0.00770    0.25401
 11 Li   -0.02107   -0.00410    0.25363
 12 Li    0.00028   -0.01888    0.31341
 13 Li    0.02173    0.00641    0.25583
 14 Li   -0.02182    0.00536    0.25282
 15 Li   -0.00105   -0.00174    0.23485
 16 Li   -0.03002    0.00068    0.26377
 17 Li    0.03020   -0.00146    0.27045
 18 Li    0.07430    0.00071   -0.09923
 19 Li   -0.00233   -0.00055    0.06109
 20 Li   -0.07312    0.00107   -0.08750
 21 Li   -0.02096   -0.02469    0.05731
 22 Li   -0.00211    0.01471    0.02494
 23 Li    0.02242   -0.02743    0.06336
 24 Li   -0.02329    0.02310    0.05762
 25 Li   -0.00047   -0.01411    0.02909
 26 Li    0.02317    0.02555    0.05780
 27 Li    0.00148    0.07693   -0.06668
 28 Li    0.06246   -0.03112   -0.05391
 29 Li   -0.06135   -0.03164   -0.06658
 30 Li   -0.00212   -0.05010   -0.09839
 31 Li    0.05917    0.03149   -0.05051
 32 Li   -0.05450    0.03435   -0.06040
 33 Li   -0.00409   -0.00464   -0.02189
 34 Li   -0.01301    0.00077   -0.01449
 35 Li    0.01785   -0.00281   -0.00620
 36 O    -0.12323    0.12555    8.80736
 37 C    -0.58973    0.25863    1.21893
 38 C    -0.01772   -0.02526    0.08489
 39 H     0.06838    0.01808   -0.00903
 40 H    -0.07764    0.12156    0.34992
 41 H     0.05351   -0.00820   -0.05234
 42 H    -0.05564   -0.00848   -0.02285
 43 H    -0.00445   -0.00222   -0.01426
 44 H    -0.25296   -0.87039    2.72199
 45 N     0.27533   -1.20243   -6.96381
 46 N     0.72464    1.60120   -5.71834

System changes: positions 

Initializing position-dependent things.

Density initialized from wave functions
       .-----------------------.  
      /|                       |  
     / |                       |  
    /  |                       |  
   /   |                       |  
  /    |                       |  
 *     |                       |  
 |     |                       |  
 |     |                       |  
 |     |                       |  
 |     |                       |  
 |     |                H      |  
 |     |           H           |  
 |     |       Li H C  LC H    |  
 |     |                       |  
 |N    |     Li    H Li      Li|  
 |N    |                       |  
 |     |  LLi     LLi     LLi  |  
 |     |                       |  
 Li    |Li      Li      Li     |  
 |   Li|     Li      Li        |  
 |    Li  Li  Li  Li  Li  Li   |  
 | Li  |   Li      Li          |  
 |     |Li      Li      Li     |  
 Li    | Li      Li            |  
 |    Li      Li      Li       |  
 |     |                       |  
 |     |                       |  
 |     |                       |  
 |     |                       |  
 |     |                       |  
 |     |                       |  
 |     .-----------------------.  
 |    /                       /   
 |   /                       /    
 |  /                       /     
 | /                       /      
 |/                       /       
 *-----------------------*        

Positions:
   0 Li     1.617037    1.617037   10.000000    ( 0.0000,  0.0000,  0.0000)
   1 Li     4.851111    1.617037   10.000000    ( 0.0000,  0.0000,  0.0000)
   2 Li     8.085185    1.617037   10.000000    ( 0.0000,  0.0000,  0.0000)
   3 Li     1.617037    4.851111   10.000000    ( 0.0000,  0.0000,  0.0000)
   4 Li     4.851111    4.851111   10.000000    ( 0.0000,  0.0000,  0.0000)
   5 Li     8.085185    4.851111   10.000000    ( 0.0000,  0.0000,  0.0000)
   6 Li     1.617037    8.085185   10.000000    ( 0.0000,  0.0000,  0.0000)
   7 Li     4.851111    8.085185   10.000000    ( 0.0000,  0.0000,  0.0000)
   8 Li     8.085185    8.085185   10.000000    ( 0.0000,  0.0000,  0.0000)
   9 Li     0.000000    0.000000   11.617037    ( 0.0000,  0.0000,  0.0000)
  10 Li     3.234074    0.000000   11.617037    ( 0.0000,  0.0000,  0.0000)
  11 Li     6.468148    0.000000   11.617037    ( 0.0000,  0.0000,  0.0000)
  12 Li     0.000000    3.234074   11.617037    ( 0.0000,  0.0000,  0.0000)
  13 Li     3.234074    3.234074   11.617037    ( 0.0000,  0.0000,  0.0000)
  14 Li     6.468148    3.234074   11.617037    ( 0.0000,  0.0000,  0.0000)
  15 Li     0.000000    6.468148   11.617037    ( 0.0000,  0.0000,  0.0000)
  16 Li     3.234074    6.468148   11.617037    ( 0.0000,  0.0000,  0.0000)
  17 Li     6.468148    6.468148   11.617037    ( 0.0000,  0.0000,  0.0000)
  18 Li     1.617652    1.617044   13.468907    ( 0.0000,  0.0000,  0.0000)
  19 Li     4.851092    1.617034   13.470235    ( 0.0000,  0.0000,  0.0000)
  20 Li     8.084580    1.617047   13.469005    ( 0.0000,  0.0000,  0.0000)
  21 Li     1.616865    4.850908   13.470203    ( 0.0000,  0.0000,  0.0000)
  22 Li     4.851093    4.851232   13.469937    ( 0.0000,  0.0000,  0.0000)
  23 Li     8.085369    4.850885   13.470253    ( 0.0000,  0.0000,  0.0000)
  24 Li     1.616845    8.085373   13.470203    ( 0.0000,  0.0000,  0.0000)
  25 Li     4.851107    8.085068   13.469972    ( 0.0000,  0.0000,  0.0000)
  26 Li     8.085376    8.085394   13.470205    ( 0.0000,  0.0000,  0.0000)
  27 Li     0.000012    0.000666   15.445428    ( 0.0000,  0.0000,  0.0000)
  28 Li     3.234588   -0.000256   15.445495    ( 0.0000,  0.0000,  0.0000)
  29 Li     6.467643   -0.000260   15.445390    ( 0.0000,  0.0000,  0.0000)
  30 Li    -0.000016    3.233628   15.445165    ( 0.0000,  0.0000,  0.0000)
  31 Li     3.234563    3.234336   15.445523    ( 0.0000,  0.0000,  0.0000)
  32 Li     6.467699    3.234359   15.445442    ( 0.0000,  0.0000,  0.0000)
  33 Li    -0.000034    6.468109   15.445756    ( 0.0000,  0.0000,  0.0000)
  34 Li     3.233970    6.468152   15.445817    ( 0.0000,  0.0000,  0.0000)
  35 Li     6.468292    6.468123   15.445886    ( 0.0000,  0.0000,  0.0000)
  36 O     -0.000979    1.616862   19.722264    ( 0.0000,  0.0000,  0.0000)
  37 C     -1.187683    2.436321   19.660393    ( 0.0000,  0.0000,  0.0000)
  38 C     -2.466719    1.613903   19.636427    ( 0.0000,  0.0000,  0.0000)
  39 H     -1.173091    3.117315   20.510199    ( 0.0000,  0.0000,  0.0000)
  40 H     -1.107737    3.044616   18.750277    ( 0.0000,  0.0000,  0.0000)
  41 H     -3.343084    2.268072   19.619833    ( 0.0000,  0.0000,  0.0000)
  42 H     -2.501809    0.965079   18.758691    ( 0.0000,  0.0000,  0.0000)
  43 H     -2.536841    0.985682   20.528126    ( 0.0000,  0.0000,  0.0000)
  44 H     -0.041072    1.027548   20.436106    ( 0.0000,  0.0000,  0.0000)
  45 N      0.002350    1.606825   16.890723    ( 0.0000,  0.0000,  0.0000)
  46 N      0.005978    1.630705   17.989875    ( 0.0000,  0.0000,  0.0000)

Unit cell:
           periodic     x           y           z      points  spacing
  1. axis:    yes    9.702222    0.000000    0.000000    60     0.1617
  2. axis:    yes    0.000000    9.702222    0.000000    60     0.1617
  3. axis:    no     0.000000    0.000000   26.351111   164     0.1607

  Lengths:   9.702222   9.702222  26.351111
  Angles:   90.000000  90.000000  90.000000

Effective grid spacing dv^(1/3) = 0.1614

     iter     time        total  log10-change:
                         energy  eigst   dens
iter:   1 22:40:42  -305.013907  -0.80
iter:   2 22:40:50  -305.006113  -1.51  -2.07
iter:   3 22:40:57  -304.971103  -1.36  -2.16
iter:   4 22:41:04  -304.970837  -1.96  -2.26
Writing to output.gpw (mode='')

iter:   5 22:41:11  -304.968929c -2.24  -2.29
iter:   6 22:41:18  -304.966801c -2.02  -2.52
iter:   7 22:41:25  -304.966083c -2.26  -2.53
iter:   8 22:41:33  -304.966117c -2.55  -2.73
iter:   9 22:41:40  -304.966037c -3.19  -2.74
Writing to output.gpw (mode='')

iter:  10 22:41:47  -304.965935c -2.89  -2.80
iter:  11 22:41:54  -304.965731c -3.23  -2.91
iter:  12 22:42:01  -304.965688c -3.59  -3.16
iter:  13 22:42:08  -304.965752c -3.65  -3.19
iter:  14 22:42:15  -304.965708c -3.98  -3.23
Writing to output.gpw (mode='')

iter:  15 22:42:25  -304.965724c -3.90  -3.35
iter:  16 22:42:32  -304.965716c -4.48  -3.40
iter:  17 22:42:39  -304.965720c -4.47  -3.60
iter:  18 22:42:46  -304.965726c -4.52  -3.74
iter:  19 22:42:53  -304.965723c -5.06  -3.83
Writing to output.gpw (mode='')

iter:  20 22:43:01  -304.965715c -5.08  -3.86
iter:  21 22:43:14  -304.965721c -5.01  -3.91
iter:  22 22:43:23  -304.965725c -5.11  -4.17c
iter:  23 22:43:31  -304.965723c -5.51  -4.17c
iter:  24 22:43:38  -304.965723c -5.38  -4.24c
Writing to output.gpw (mode='')

iter:  25 22:43:45  -304.965724c -5.60  -4.44c
iter:  26 22:43:52  -304.965723c -5.90  -4.50c
iter:  27 22:43:59  -304.965723c -5.94  -4.53c
iter:  28 22:44:06  -304.965724c -5.85  -4.66c
iter:  29 22:44:13  -304.965724c -5.88  -4.73c
Writing to output.gpw (mode='')

iter:  30 22:44:20  -304.965724c -6.31  -4.78c
iter:  31 22:44:27  -304.965724c -6.41  -4.87c
iter:  32 22:44:35  -304.965724c -6.30  -5.01c
iter:  33 22:44:48  -304.965724c -6.73  -5.04c
iter:  34 22:44:55  -304.965724c -6.71  -5.11c
Writing to output.gpw (mode='')

iter:  35 22:45:02  -304.965724c -6.87  -5.36c
iter:  36 22:45:09  -304.965724c -6.79  -5.44c
iter:  37 22:45:16  -304.965724c -6.70  -5.49c
iter:  38 22:45:23  -304.965724c -6.97  -5.58c
iter:  39 22:45:30  -304.965724c -6.97  -5.61c
Writing to output.gpw (mode='')

iter:  40 22:45:38  -304.965724c -7.04  -5.71c
iter:  41 22:45:45  -304.965724c -7.26  -5.78c
iter:  42 22:45:52  -304.965724c -7.12  -5.86c
iter:  43 22:45:59  -304.965724c -7.34  -5.89c
iter:  44 22:46:06  -304.965724c -7.38  -5.91c
Writing to output.gpw (mode='')

iter:  45 22:46:13  -304.965724c -7.22  -5.81c
iter:  46 22:46:20  -304.965724c -7.59c -5.78c

Converged after 46 iterations.

Dipole moment: (-13.670550, -4.102860, 0.350812) |e|*Ang

Energy contributions relative to reference atoms: (reference = -14434.854043)

Kinetic:       +174.114482
Potential:     -162.119995
External:        +0.000000
XC:            -317.624183
Entropy (-ST):   -0.140620
Local:           +0.734282
--------------------------
Free energy:   -305.036034
Extrapolated:  -304.965724

Dipole-layer corrected work functions: 3.381704, 2.707322 eV

Showing only first 2 kpts
 Kpt  Band  Eigenvalues  Occupancy
  0    31     -3.28914    1.98511
  0    32     -3.16325    1.82977
  0    33     -2.88713    0.08237
  0    34     -2.78795    0.01175

  1    31     -3.09322    1.45187
  1    32     -3.04795    1.03440
  1    33     -3.02303    0.78841
  1    34     -2.92256    0.16049


Fermi level: -3.04451

No gap
Writing to output.gpw (mode='')


Forces in eV/Ang:
  0 Li    0.01192   -0.00016   -0.27324
  1 Li    0.00082   -0.00062   -0.25930
  2 Li   -0.01238    0.00113   -0.27398
  3 Li    0.00193    0.01088   -0.27160
  4 Li    0.00030    0.00242   -0.28147
  5 Li   -0.00182    0.00870   -0.27217
  6 Li    0.00333   -0.01026   -0.27245
  7 Li   -0.00104   -0.00202   -0.28035
  8 Li   -0.00192   -0.00958   -0.27230
  9 Li   -0.00004    0.02031    0.31832
 10 Li    0.02089   -0.00769    0.25458
 11 Li   -0.02061   -0.00397    0.25406
 12 Li    0.00016   -0.01904    0.31452
 13 Li    0.02161    0.00646    0.25601
 14 Li   -0.02158    0.00533    0.25317
 15 Li   -0.00111   -0.00212    0.23452
 16 Li   -0.03026    0.00056    0.26326
 17 Li    0.03039   -0.00142    0.27046
 18 Li    0.07597    0.00107   -0.10049
 19 Li   -0.00245   -0.00043    0.06030
 20 Li   -0.07480    0.00096   -0.08884
 21 Li   -0.02110   -0.02392    0.05561
 22 Li   -0.00209    0.01390    0.02560
 23 Li    0.02244   -0.02648    0.06144
 24 Li   -0.02365    0.02193    0.05579
 25 Li   -0.00057   -0.01311    0.02942
 26 Li    0.02356    0.02453    0.05597
 27 Li    0.00255    0.08692   -0.06329
 28 Li    0.06124   -0.03006   -0.05221
 29 Li   -0.05918   -0.03024   -0.06409
 30 Li   -0.00317   -0.05166   -0.09542
 31 Li    0.05717    0.03028   -0.04921
 32 Li   -0.05358    0.03323   -0.05893
 33 Li   -0.00399   -0.00405   -0.02425
 34 Li   -0.01160    0.00098   -0.01535
 35 Li    0.01643   -0.00297   -0.00702
 36 O    -0.06064    0.74375    6.61879
 37 C    -0.43433    0.12083    1.12287
 38 C    -0.03416   -0.02031    0.08601
 39 H    -0.03264    0.14543    0.10326
 40 H    -0.01422    0.02682    0.42146
 41 H     0.03387   -0.00767   -0.04825
 42 H    -0.03525    0.00274   -0.01433
 43 H    -0.01963   -0.01149   -0.00362
 44 H    -0.38477   -1.23592    2.92058
 45 N     0.21965   -1.10560   -3.61107
 46 N     0.77844    1.33917   -7.23564

System changes: positions 

Initializing position-dependent things.

Density initialized from wave functions
       .-----------------------.  
      /|                       |  
     / |                       |  
    /  |                       |  
   /   |                       |  
  /    |                       |  
 *     |                       |  
 |     |                       |  
 |     |                       |  
 |     |                       |  
 |     |                       |  
 |     |                H      |  
 |     |           H           |  
 |     |       Li H C  LC H    |  
 |     |                       |  
 |N    |     Li    H Li      Li|  
 |     |                       |  
 |N    |  LLi     LLi     LLi  |  
 |     |                       |  
 Li    |Li      Li      Li     |  
 |   Li|     Li      Li        |  
 |    Li  Li  Li  Li  Li  Li   |  
 | Li  |   Li      Li          |  
 |     |Li      Li      Li     |  
 Li    | Li      Li            |  
 |    Li      Li      Li       |  
 |     |                       |  
 |     |                       |  
 |     |                       |  
 |     |                       |  
 |     |                       |  
 |     |                       |  
 |     .-----------------------.  
 |    /                       /   
 |   /                       /    
 |  /                       /     
 | /                       /      
 |/                       /       
 *-----------------------*        

Positions:
   0 Li     1.617037    1.617037   10.000000    ( 0.0000,  0.0000,  0.0000)
   1 Li     4.851111    1.617037   10.000000    ( 0.0000,  0.0000,  0.0000)
   2 Li     8.085185    1.617037   10.000000    ( 0.0000,  0.0000,  0.0000)
   3 Li     1.617037    4.851111   10.000000    ( 0.0000,  0.0000,  0.0000)
   4 Li     4.851111    4.851111   10.000000    ( 0.0000,  0.0000,  0.0000)
   5 Li     8.085185    4.851111   10.000000    ( 0.0000,  0.0000,  0.0000)
   6 Li     1.617037    8.085185   10.000000    ( 0.0000,  0.0000,  0.0000)
   7 Li     4.851111    8.085185   10.000000    ( 0.0000,  0.0000,  0.0000)
   8 Li     8.085185    8.085185   10.000000    ( 0.0000,  0.0000,  0.0000)
   9 Li     0.000000    0.000000   11.617037    ( 0.0000,  0.0000,  0.0000)
  10 Li     3.234074    0.000000   11.617037    ( 0.0000,  0.0000,  0.0000)
  11 Li     6.468148    0.000000   11.617037    ( 0.0000,  0.0000,  0.0000)
  12 Li     0.000000    3.234074   11.617037    ( 0.0000,  0.0000,  0.0000)
  13 Li     3.234074    3.234074   11.617037    ( 0.0000,  0.0000,  0.0000)
  14 Li     6.468148    3.234074   11.617037    ( 0.0000,  0.0000,  0.0000)
  15 Li     0.000000    6.468148   11.617037    ( 0.0000,  0.0000,  0.0000)
  16 Li     3.234074    6.468148   11.617037    ( 0.0000,  0.0000,  0.0000)
  17 Li     6.468148    6.468148   11.617037    ( 0.0000,  0.0000,  0.0000)
  18 Li     1.618319    1.617055   13.468033    ( 0.0000,  0.0000,  0.0000)
  19 Li     4.851071    1.617031   13.470753    ( 0.0000,  0.0000,  0.0000)
  20 Li     8.083923    1.617054   13.468228    ( 0.0000,  0.0000,  0.0000)
  21 Li     1.616681    4.850697   13.470685    ( 0.0000,  0.0000,  0.0000)
  22 Li     4.851076    4.851356   13.470157    ( 0.0000,  0.0000,  0.0000)
  23 Li     8.085564    4.850654   13.470784    ( 0.0000,  0.0000,  0.0000)
  24 Li     1.616640    8.085568   13.470688    ( 0.0000,  0.0000,  0.0000)
  25 Li     4.851102    8.084951   13.470218    ( 0.0000,  0.0000,  0.0000)
  26 Li     8.085580    8.085611   13.470691    ( 0.0000,  0.0000,  0.0000)
  27 Li     0.000038    0.001292   15.444674    ( 0.0000,  0.0000,  0.0000)
  28 Li     3.235129   -0.000522   15.445035    ( 0.0000,  0.0000,  0.0000)
  29 Li     6.467124   -0.000527   15.444830    ( 0.0000,  0.0000,  0.0000)
  30 Li    -0.000053    3.233342   15.444134    ( 0.0000,  0.0000,  0.0000)
  31 Li     3.235068    3.234601   15.445085    ( 0.0000,  0.0000,  0.0000)
  32 Li     6.467215    3.234652   15.444916    ( 0.0000,  0.0000,  0.0000)
  33 Li    -0.000068    6.468080   15.445548    ( 0.0000,  0.0000,  0.0000)
  34 Li     3.233869    6.468161   15.445687    ( 0.0000,  0.0000,  0.0000)
  35 Li     6.468435    6.468095   15.445827    ( 0.0000,  0.0000,  0.0000)
  36 O     -0.001546    1.631442   19.755240    ( 0.0000,  0.0000,  0.0000)
  37 C     -1.188918    2.434940   19.669481    ( 0.0000,  0.0000,  0.0000)
  38 C     -2.467322    1.614079   19.637067    ( 0.0000,  0.0000,  0.0000)
  39 H     -1.174330    3.119797   20.512060    ( 0.0000,  0.0000,  0.0000)
  40 H     -1.107283    3.044108   18.754445    ( 0.0000,  0.0000,  0.0000)
  41 H     -3.342964    2.267912   19.619445    ( 0.0000,  0.0000,  0.0000)
  42 H     -2.501975    0.965156   18.758621    ( 0.0000,  0.0000,  0.0000)
  43 H     -2.537084    0.985494   20.528239    ( 0.0000,  0.0000,  0.0000)
  44 H     -0.045766    1.012183   20.465021    ( 0.0000,  0.0000,  0.0000)
  45 N      0.003718    1.598717   16.856066    ( 0.0000,  0.0000,  0.0000)
  46 N      0.012961    1.639161   17.951408    ( 0.0000,  0.0000,  0.0000)

Unit cell:
           periodic     x           y           z      points  spacing
  1. axis:    yes    9.702222    0.000000    0.000000    60     0.1617
  2. axis:    yes    0.000000    9.702222    0.000000    60     0.1617
  3. axis:    no     0.000000    0.000000   26.351111   164     0.1607

  Lengths:   9.702222   9.702222  26.351111
  Angles:   90.000000  90.000000  90.000000

Effective grid spacing dv^(1/3) = 0.1614

     iter     time        total  log10-change:
                         energy  eigst   dens
iter:   1 22:46:29  -305.817234  -0.73
iter:   2 22:46:36  -305.707635  -0.88  -1.54
iter:   3 22:46:43  -305.675812  -1.75  -1.74
iter:   4 22:46:50  -305.669267  -0.95  -2.16
Writing to output.gpw (mode='')

iter:   5 22:46:58  -305.657012c -1.89  -2.01
iter:   6 22:47:05  -305.657475c -1.78  -2.31
iter:   7 22:47:12  -305.657813c -1.87  -2.52
iter:   8 22:47:19  -305.656349c -2.53  -2.45
iter:   9 22:47:26  -305.656236c -2.48  -2.63
Writing to output.gpw (mode='')

iter:  10 22:47:33  -305.656179c -2.90  -2.81
iter:  11 22:47:40  -305.656237c -3.30  -2.93
iter:  12 22:47:48  -305.656227c -3.01  -2.95
iter:  13 22:47:55  -305.656154c -3.54  -2.98
iter:  14 22:48:02  -305.656178c -3.67  -3.22
Writing to output.gpw (mode='')

iter:  15 22:48:09  -305.656188c -3.95  -3.30
iter:  16 22:48:16  -305.656202c -3.85  -3.39
iter:  17 22:48:23  -305.656218c -3.92  -3.47
iter:  18 22:48:31  -305.656220c -4.40  -3.63
iter:  19 22:48:38  -305.656212c -4.38  -3.67
Writing to output.gpw (mode='')

iter:  20 22:48:45  -305.656218c -4.74  -3.81
iter:  21 22:48:52  -305.656219c -4.82  -3.96
iter:  22 22:48:59  -305.656219c -4.98  -4.22c
iter:  23 22:49:06  -305.656221c -5.19  -4.24c
iter:  24 22:49:14  -305.656223c -5.23  -4.27c
Writing to output.gpw (mode='')

iter:  25 22:49:21  -305.656223c -5.53  -4.48c
iter:  26 22:49:28  -305.656223c -5.37  -4.51c
iter:  27 22:49:36  -305.656224c -5.56  -4.70c
iter:  28 22:49:48  -305.656224c -5.61  -4.75c
iter:  29 22:49:55  -305.656225c -5.54  -4.79c
Writing to output.gpw (mode='')

iter:  30 22:50:02  -305.656224c -6.09  -4.58c
iter:  31 22:50:09  -305.656224c -6.10  -4.80c
iter:  32 22:50:17  -305.656224c -6.12  -4.90c
iter:  33 22:50:24  -305.656224c -6.27  -4.95c
iter:  34 22:50:31  -305.656224c -6.35  -5.07c
Writing to output.gpw (mode='')

iter:  35 22:50:38  -305.656224c -6.50  -5.15c
iter:  36 22:50:45  -305.656224c -6.22  -5.26c
iter:  37 22:50:52  -305.656224c -6.77  -5.37c
iter:  38 22:51:00  -305.656224c -6.66  -5.40c
iter:  39 22:51:07  -305.656224c -6.70  -5.46c
Writing to output.gpw (mode='')

iter:  40 22:51:14  -305.656224c -6.74  -5.69c
iter:  41 22:51:21  -305.656224c -7.03  -5.71c
iter:  42 22:51:28  -305.656224c -7.03  -5.69c
iter:  43 22:51:35  -305.656224c -6.98  -5.64c
iter:  44 22:51:43  -305.656224c -6.87  -5.68c
Writing to output.gpw (mode='')

iter:  45 22:51:50  -305.656224c -7.17  -5.66c
iter:  46 22:51:57  -305.656224c -7.39  -5.71c
iter:  47 22:52:04  -305.656224c -6.99  -5.66c
iter:  48 22:52:11  -305.656224c -7.28  -5.62c
iter:  49 22:52:19  -305.656224c -7.29  -5.65c
Writing to output.gpw (mode='')

iter:  50 22:52:26  -305.656224c -7.40c -5.64c

Converged after 50 iterations.

Dipole moment: (-14.252179, -4.103401, 0.338782) |e|*Ang

Energy contributions relative to reference atoms: (reference = -14434.854043)

Kinetic:       +171.172465
Potential:     -160.167218
External:        +0.000000
XC:            -317.330455
Entropy (-ST):   -0.140279
Local:           +0.739123
--------------------------
Free energy:   -305.726363
Extrapolated:  -305.656224

Dipole-layer corrected work functions: 3.382098, 2.730843 eV

Showing only first 2 kpts
 Kpt  Band  Eigenvalues  Occupancy
  0    31     -3.30101    1.98508
  0    32     -3.17370    1.82501
  0    33     -2.89886    0.08201
  0    34     -2.80001    0.01177

  1    31     -3.10544    1.45394
  1    32     -3.05943    1.02963
  1    33     -3.03576    0.79578
  1    34     -2.93216    0.15366


Fermi level: -3.05647

No gap

Forces in eV/Ang:
  0 Li    0.01176   -0.00008   -0.27322
  1 Li    0.00068   -0.00069   -0.25883
  2 Li   -0.01212    0.00112   -0.27399
  3 Li    0.00201    0.01081   -0.27185
  4 Li    0.00033    0.00256   -0.28167
  5 Li   -0.00181    0.00880   -0.27238
  6 Li    0.00335   -0.01022   -0.27268
  7 Li   -0.00099   -0.00255   -0.28048
  8 Li   -0.00189   -0.00963   -0.27260
  9 Li   -0.00006    0.02040    0.31885
 10 Li    0.02113   -0.00785    0.25469
 11 Li   -0.02068   -0.00424    0.25423
 12 Li    0.00007   -0.01949    0.31517
 13 Li    0.02208    0.00680    0.25563
 14 Li   -0.02186    0.00570    0.25305
 15 Li   -0.00115   -0.00241    0.23441
 16 Li   -0.03073    0.00048    0.26345
 17 Li    0.03072   -0.00139    0.27070
 18 Li    0.07730    0.00127   -0.09995
 19 Li   -0.00229   -0.00020    0.05910
 20 Li   -0.07619    0.00097   -0.08944
 21 Li   -0.02122   -0.02404    0.05504
 22 Li   -0.00201    0.01413    0.02548
 23 Li    0.02231   -0.02639    0.06047
 24 Li   -0.02380    0.02195    0.05517
 25 Li   -0.00067   -0.01316    0.02840
 26 Li    0.02366    0.02438    0.05534
 27 Li    0.00197    0.06614   -0.09888
 28 Li    0.06110   -0.02987   -0.05261
 29 Li   -0.05885   -0.03016   -0.06352
 30 Li   -0.00407   -0.02478   -0.12571
 31 Li    0.05718    0.02997   -0.05047
 32 Li   -0.05475    0.03312   -0.05970
 33 Li   -0.00385   -0.00303   -0.02437
 34 Li   -0.01119    0.00102   -0.01513
 35 Li    0.01596   -0.00283   -0.00709
 36 O     0.05934    0.14305    5.58616
 37 C    -0.36801    0.17820    0.93430
 38 C    -0.02436   -0.04961    0.09983
 39 H    -0.15779    0.25567    0.18548
 40 H     0.01548   -0.06158    0.50111
 41 H     0.01199    0.00245   -0.04380
 42 H    -0.01749    0.01279   -0.00166
 43 H    -0.04374   -0.02658    0.00549
 44 H    -0.41362   -0.54206    1.81443
 45 N     0.14840   -1.03707   -3.85118
 46 N     0.78094    1.08220   -4.90314

System changes: positions 

Initializing position-dependent things.

Density initialized from wave functions
       .-----------------------.  
      /|                       |  
     / |                       |  
    /  |                       |  
   /   |                       |  
  /    |                       |  
 *     |                       |  
 |     |                       |  
 |     |                       |  
 |     |                       |  
 |     |                       |  
 |     |                H      |  
 |     |           H           |  
 |     |       Li H C  LCHO    |  
 |     |                       |  
 |N    |     Li    H Li      Li|  
 |     |                       |  
 |N    |  LLi     LLi     LLi  |  
 |     |                       |  
 Li    |Li      Li      Li     |  
 |   Li|     Li      Li        |  
 |    Li  Li  Li  Li  Li  Li   |  
 | Li  |   Li      Li          |  
 |     |Li      Li      Li     |  
 Li    | Li      Li            |  
 |    Li      Li      Li       |  
 |     |                       |  
 |     |                       |  
 |     |                       |  
 |     |                       |  
 |     |                       |  
 |     |                       |  
 |     .-----------------------.  
 |    /                       /   
 |   /                       /    
 |  /                       /     
 | /                       /      
 |/                       /       
 *-----------------------*        

Positions:
   0 Li     1.617037    1.617037   10.000000    ( 0.0000,  0.0000,  0.0000)
   1 Li     4.851111    1.617037   10.000000    ( 0.0000,  0.0000,  0.0000)
   2 Li     8.085185    1.617037   10.000000    ( 0.0000,  0.0000,  0.0000)
   3 Li     1.617037    4.851111   10.000000    ( 0.0000,  0.0000,  0.0000)
   4 Li     4.851111    4.851111   10.000000    ( 0.0000,  0.0000,  0.0000)
   5 Li     8.085185    4.851111   10.000000    ( 0.0000,  0.0000,  0.0000)
   6 Li     1.617037    8.085185   10.000000    ( 0.0000,  0.0000,  0.0000)
   7 Li     4.851111    8.085185   10.000000    ( 0.0000,  0.0000,  0.0000)
   8 Li     8.085185    8.085185   10.000000    ( 0.0000,  0.0000,  0.0000)
   9 Li     0.000000    0.000000   11.617037    ( 0.0000,  0.0000,  0.0000)
  10 Li     3.234074    0.000000   11.617037    ( 0.0000,  0.0000,  0.0000)
  11 Li     6.468148    0.000000   11.617037    ( 0.0000,  0.0000,  0.0000)
  12 Li     0.000000    3.234074   11.617037    ( 0.0000,  0.0000,  0.0000)
  13 Li     3.234074    3.234074   11.617037    ( 0.0000,  0.0000,  0.0000)
  14 Li     6.468148    3.234074   11.617037    ( 0.0000,  0.0000,  0.0000)
  15 Li     0.000000    6.468148   11.617037    ( 0.0000,  0.0000,  0.0000)
  16 Li     3.234074    6.468148   11.617037    ( 0.0000,  0.0000,  0.0000)
  17 Li     6.468148    6.468148   11.617037    ( 0.0000,  0.0000,  0.0000)
  18 Li     1.619237    1.617073   13.466863    ( 0.0000,  0.0000,  0.0000)
  19 Li     4.851045    1.617031   13.471431    ( 0.0000,  0.0000,  0.0000)
  20 Li     8.083017    1.617063   13.467173    ( 0.0000,  0.0000,  0.0000)
  21 Li     1.616431    4.850415   13.471320    ( 0.0000,  0.0000,  0.0000)
  22 Li     4.851054    4.851522   13.470453    ( 0.0000,  0.0000,  0.0000)
  23 Li     8.085824    4.850348   13.471479    ( 0.0000,  0.0000,  0.0000)
  24 Li     1.616361    8.085825   13.471323    ( 0.0000,  0.0000,  0.0000)
  25 Li     4.851093    8.084798   13.470539    ( 0.0000,  0.0000,  0.0000)
  26 Li     8.085857    8.085895   13.471329    ( 0.0000,  0.0000,  0.0000)
  27 Li     0.000066    0.001914   15.443235    ( 0.0000,  0.0000,  0.0000)
  28 Li     3.235847   -0.000871   15.444419    ( 0.0000,  0.0000,  0.0000)
  29 Li     6.466441   -0.000878   15.444095    ( 0.0000,  0.0000,  0.0000)
  30 Li    -0.000114    3.233277   15.442401    ( 0.0000,  0.0000,  0.0000)
  31 Li     3.235736    3.234948   15.444486    ( 0.0000,  0.0000,  0.0000)
  32 Li     6.466559    3.235039   15.444209    ( 0.0000,  0.0000,  0.0000)
  33 Li    -0.000112    6.468055   15.445259    ( 0.0000,  0.0000,  0.0000)
  34 Li     3.233744    6.468175   15.445511    ( 0.0000,  0.0000,  0.0000)
  35 Li     6.468616    6.468061   15.445743    ( 0.0000,  0.0000,  0.0000)
  36 O     -0.000300    1.639887   19.789472    ( 0.0000,  0.0000,  0.0000)
  37 C     -1.190355    2.434720   19.678898    ( 0.0000,  0.0000,  0.0000)
  38 C     -2.467884    1.613719   19.638191    ( 0.0000,  0.0000,  0.0000)
  39 H     -1.177709    3.124572   20.515659    ( 0.0000,  0.0000,  0.0000)
  40 H     -1.106320    3.042178   18.761207    ( 0.0000,  0.0000,  0.0000)
  41 H     -3.343105    2.267896   19.618987    ( 0.0000,  0.0000,  0.0000)
  42 H     -2.501939    0.965418   18.758716    ( 0.0000,  0.0000,  0.0000)
  43 H     -2.537783    0.985031   20.528489    ( 0.0000,  0.0000,  0.0000)
  44 H     -0.052240    1.003133   20.486113    ( 0.0000,  0.0000,  0.0000)
  45 N      0.004584    1.588413   16.817426    ( 0.0000,  0.0000,  0.0000)
  46 N      0.022432    1.647430   17.918417    ( 0.0000,  0.0000,  0.0000)

Unit cell:
           periodic     x           y           z      points  spacing
  1. axis:    yes    9.702222    0.000000    0.000000    60     0.1617
  2. axis:    yes    0.000000    9.702222    0.000000    60     0.1617
  3. axis:    no     0.000000    0.000000   26.351111   164     0.1607

  Lengths:   9.702222   9.702222  26.351111
  Angles:   90.000000  90.000000  90.000000

Effective grid spacing dv^(1/3) = 0.1614

     iter     time        total  log10-change:
                         energy  eigst   dens
iter:   1 22:52:34  -306.250777  -0.78
iter:   2 22:52:41  -306.209381  -1.22  -1.72
iter:   3 22:52:48  -306.196070  -2.00  -1.92
iter:   4 22:52:56  -306.191856c -1.23  -2.30
Writing to output.gpw (mode='')

iter:   5 22:53:03  -306.188233c -2.22  -2.24
iter:   6 22:53:10  -306.187713c -2.23  -2.46
iter:   7 22:53:17  -306.188826c -2.22  -2.73
iter:   8 22:53:24  -306.187679c -2.84  -2.67
iter:   9 22:53:31  -306.187396c -2.71  -2.85
Writing to output.gpw (mode='')

iter:  10 22:53:38  -306.187415c -3.58  -3.10
iter:  11 22:53:45  -306.187432c -3.54  -3.15
iter:  12 22:53:53  -306.187376c -3.70  -3.13
iter:  13 22:54:00  -306.187369c -4.27  -3.28
iter:  14 22:54:07  -306.187359c -4.19  -3.32
Writing to output.gpw (mode='')

iter:  15 22:54:14  -306.187384c -4.09  -3.45
iter:  16 22:54:21  -306.187377c -4.36  -3.57
iter:  17 22:54:28  -306.187380c -4.94  -3.86
iter:  18 22:54:38  -306.187382c -5.06  -3.90
iter:  19 22:54:48  -306.187386c -4.98  -3.92
Writing to output.gpw (mode='')

iter:  20 22:54:55  -306.187388c -4.99  -4.12c
iter:  21 22:55:03  -306.187388c -5.54  -4.20c
iter:  22 22:55:10  -306.187388c -5.40  -4.19c
iter:  23 22:55:17  -306.187388c -5.73  -4.19c
iter:  24 22:55:24  -306.187386c -5.92  -4.21c
Writing to output.gpw (mode='')

iter:  25 22:55:31  -306.187387c -5.98  -4.38c
iter:  26 22:55:38  -306.187387c -5.85  -4.42c
iter:  27 22:55:45  -306.187387c -6.20  -4.55c
iter:  28 22:55:52  -306.187388c -6.20  -4.63c
iter:  29 22:55:59  -306.187388c -6.53  -4.79c
Writing to output.gpw (mode='')

iter:  30 22:56:06  -306.187387c -6.49  -4.81c
iter:  31 22:56:14  -306.187388c -6.58  -4.97c
iter:  32 22:56:21  -306.187388c -6.29  -5.10c
iter:  33 22:56:28  -306.187388c -6.56  -5.01c
iter:  34 22:56:35  -306.187388c -6.93  -4.93c
Writing to output.gpw (mode='')

iter:  35 22:56:42  -306.187388c -7.07  -5.00c
iter:  36 22:56:49  -306.187388c -6.84  -4.95c
iter:  37 22:56:56  -306.187388c -7.07  -4.94c
iter:  38 22:57:03  -306.187388c -7.13  -4.92c
iter:  39 22:57:10  -306.187388c -7.48c -4.98c

Converged after 39 iterations.

Dipole moment: (-15.103061, -4.074204, 0.321817) |e|*Ang

Energy contributions relative to reference atoms: (reference = -14434.854043)

Kinetic:       +167.804147
Potential:     -157.724104
External:        +0.000000
XC:            -316.941228
Entropy (-ST):   -0.140007
Local:           +0.743800
--------------------------
Free energy:   -306.257391
Extrapolated:  -306.187388

Dipole-layer corrected work functions: 3.382987, 2.764345 eV

Showing only first 2 kpts
 Kpt  Band  Eigenvalues  Occupancy
  0    31     -3.31805    1.98503
  0    32     -3.18856    1.81739
  0    33     -2.91624    0.08230
  0    34     -2.81756    0.01186

  1    31     -3.12317    1.45819
  1    32     -3.07599    1.02327
  1    33     -3.05395    0.80534
  1    34     -2.94605    0.14455


Fermi level: -3.07367

No gap
Writing to output.gpw (mode='')


Forces in eV/Ang:
  0 Li    0.01157   -0.00000   -0.27327
  1 Li    0.00052   -0.00086   -0.25830
  2 Li   -0.01181    0.00114   -0.27414
  3 Li    0.00217    0.01088   -0.27229
  4 Li    0.00039    0.00277   -0.28211
  5 Li   -0.00181    0.00902   -0.27278
  6 Li    0.00352   -0.01029   -0.27314
  7 Li   -0.00093   -0.00327   -0.28079
  8 Li   -0.00194   -0.00980   -0.27315
  9 Li   -0.00012    0.02015    0.31972
 10 Li    0.02123   -0.00801    0.25509
 11 Li   -0.02048   -0.00441    0.25470
 12 Li   -0.00006   -0.01967    0.31606
 13 Li    0.02251    0.00715    0.25552
 14 Li   -0.02201    0.00610    0.25312
 15 Li   -0.00123   -0.00291    0.23428
 16 Li   -0.03108    0.00042    0.26338
 17 Li    0.03084   -0.00145    0.27102
 18 Li    0.07798    0.00151   -0.09888
 19 Li   -0.00213    0.00008    0.05752
 20 Li   -0.07702    0.00105   -0.08983
 21 Li   -0.02102   -0.02337    0.05328
 22 Li   -0.00203    0.01389    0.02551
 23 Li    0.02182   -0.02560    0.05839
 24 Li   -0.02374    0.02108    0.05325
 25 Li   -0.00083   -0.01261    0.02756
 26 Li    0.02348    0.02328    0.05329
 27 Li    0.00090    0.04945   -0.12810
 28 Li    0.05978   -0.02896   -0.05181
 29 Li   -0.05744   -0.02937   -0.06156
 30 Li   -0.00495   -0.00412   -0.14241
 31 Li    0.05610    0.02901   -0.05068
 32 Li   -0.05512    0.03248   -0.05944
 33 Li   -0.00373   -0.00203   -0.02532
 34 Li   -0.01023    0.00105   -0.01531
 35 Li    0.01507   -0.00272   -0.00746
 36 O     0.10074    0.23901    4.25976
 37 C    -0.27046    0.13703    0.85054
 38 C    -0.01190   -0.04439    0.10516
 39 H    -0.24700    0.30308    0.22602
 40 H     0.06537   -0.11060    0.50900
 41 H     0.00529    0.00094   -0.03718
 42 H     0.00309    0.02140    0.00797
 43 H    -0.06771   -0.04499    0.02184
 44 H    -0.47656   -0.44617    1.49346
 45 N     0.06411   -0.90852   -2.81314
 46 N     0.85244    0.84576   -4.15870

System changes: positions 

Initializing position-dependent things.

Density initialized from wave functions
       .-----------------------.  
      /|                       |  
     / |                       |  
    /  |                       |  
   /   |                       |  
  /    |                       |  
 *     |                       |  
 |     |                       |  
 |     |                       |  
 |     |                       |  
 |     |                       |  
 |     |                H      |  
 |     |           H     H     |  
 |O    |       Li H C  LC      |  
 |     |                       |  
 |N    |     Li    H Li      Li|  
 |     |                       |  
 |N    |  LLi     LLi     LLi  |  
 |     |                       |  
 Li    |Li      Li      Li     |  
 |   Li|     Li      Li        |  
 |    Li  Li  Li  Li  Li  Li   |  
 | Li  |   Li      Li          |  
 |     |Li      Li      Li     |  
 Li    | Li      Li            |  
 |    Li      Li      Li       |  
 |     |                       |  
 |     |                       |  
 |     |                       |  
 |     |                       |  
 |     |                       |  
 |     |                       |  
 |     .-----------------------.  
 |    /                       /   
 |   /                       /    
 |  /                       /     
 | /                       /      
 |/                       /       
 *-----------------------*        

Positions:
   0 Li     1.617037    1.617037   10.000000    ( 0.0000,  0.0000,  0.0000)
   1 Li     4.851111    1.617037   10.000000    ( 0.0000,  0.0000,  0.0000)
   2 Li     8.085185    1.617037   10.000000    ( 0.0000,  0.0000,  0.0000)
   3 Li     1.617037    4.851111   10.000000    ( 0.0000,  0.0000,  0.0000)
   4 Li     4.851111    4.851111   10.000000    ( 0.0000,  0.0000,  0.0000)
   5 Li     8.085185    4.851111   10.000000    ( 0.0000,  0.0000,  0.0000)
   6 Li     1.617037    8.085185   10.000000    ( 0.0000,  0.0000,  0.0000)
   7 Li     4.851111    8.085185   10.000000    ( 0.0000,  0.0000,  0.0000)
   8 Li     8.085185    8.085185   10.000000    ( 0.0000,  0.0000,  0.0000)
   9 Li     0.000000    0.000000   11.617037    ( 0.0000,  0.0000,  0.0000)
  10 Li     3.234074    0.000000   11.617037    ( 0.0000,  0.0000,  0.0000)
  11 Li     6.468148    0.000000   11.617037    ( 0.0000,  0.0000,  0.0000)
  12 Li     0.000000    3.234074   11.617037    ( 0.0000,  0.0000,  0.0000)
  13 Li     3.234074    3.234074   11.617037    ( 0.0000,  0.0000,  0.0000)
  14 Li     6.468148    3.234074   11.617037    ( 0.0000,  0.0000,  0.0000)
  15 Li     0.000000    6.468148   11.617037    ( 0.0000,  0.0000,  0.0000)
  16 Li     3.234074    6.468148   11.617037    ( 0.0000,  0.0000,  0.0000)
  17 Li     6.468148    6.468148   11.617037    ( 0.0000,  0.0000,  0.0000)
  18 Li     1.620456    1.617099   13.465340    ( 0.0000,  0.0000,  0.0000)
  19 Li     4.851014    1.617035   13.472303    ( 0.0000,  0.0000,  0.0000)
  20 Li     8.081813    1.617078   13.465779    ( 0.0000,  0.0000,  0.0000)
  21 Li     1.616106    4.850054   13.472132    ( 0.0000,  0.0000,  0.0000)
  22 Li     4.851023    4.851738   13.470845    ( 0.0000,  0.0000,  0.0000)
  23 Li     8.086159    4.849956   13.472365    ( 0.0000,  0.0000,  0.0000)
  24 Li     1.615995    8.086149   13.472133    ( 0.0000,  0.0000,  0.0000)
  25 Li     4.851079    8.084603   13.470951    ( 0.0000,  0.0000,  0.0000)
  26 Li     8.086220    8.086252   13.472140    ( 0.0000,  0.0000,  0.0000)
  27 Li     0.000081    0.002468   15.440890    ( 0.0000,  0.0000,  0.0000)
  28 Li     3.236771   -0.001316   15.443618    ( 0.0000,  0.0000,  0.0000)
  29 Li     6.465560   -0.001329   15.443155    ( 0.0000,  0.0000,  0.0000)
  30 Li    -0.000206    3.233499   15.439885    ( 0.0000,  0.0000,  0.0000)
  31 Li     3.236601    3.235391   15.443693    ( 0.0000,  0.0000,  0.0000)
  32 Li     6.465690    3.235540   15.443281    ( 0.0000,  0.0000,  0.0000)
  33 Li    -0.000169    6.468036   15.444864    ( 0.0000,  0.0000,  0.0000)
  34 Li     3.233592    6.468192   15.445277    ( 0.0000,  0.0000,  0.0000)
  35 Li     6.468841    6.468018   15.445627    ( 0.0000,  0.0000,  0.0000)
  36 O      0.001871    1.650042   19.822250    ( 0.0000,  0.0000,  0.0000)
  37 C     -1.191499    2.434515   19.690350    ( 0.0000,  0.0000,  0.0000)
  38 C     -2.468308    1.613263   19.639782    ( 0.0000,  0.0000,  0.0000)
  39 H     -1.183222    3.131088   20.520613    ( 0.0000,  0.0000,  0.0000)
  40 H     -1.104453    3.039195   18.769953    ( 0.0000,  0.0000,  0.0000)
  41 H     -3.343313    2.267862   19.618481    ( 0.0000,  0.0000,  0.0000)
  42 H     -2.501615    0.965874   18.758971    ( 0.0000,  0.0000,  0.0000)
  43 H     -2.539063    0.984145   20.529046    ( 0.0000,  0.0000,  0.0000)
  44 H     -0.061296    0.994160   20.507925    ( 0.0000,  0.0000,  0.0000)
  45 N      0.004533    1.576470   16.779250    ( 0.0000,  0.0000,  0.0000)
  46 N      0.036043    1.655655   17.883159    ( 0.0000,  0.0000,  0.0000)

Unit cell:
           periodic     x           y           z      points  spacing
  1. axis:    yes    9.702222    0.000000    0.000000    60     0.1617
  2. axis:    yes    0.000000    9.702222    0.000000    60     0.1617
  3. axis:    no     0.000000    0.000000   26.351111   164     0.1607

  Lengths:   9.702222   9.702222  26.351111
  Angles:   90.000000  90.000000  90.000000

Effective grid spacing dv^(1/3) = 0.1614

     iter     time        total  log10-change:
                         energy  eigst   dens
iter:   1 22:57:19  -306.681151  -0.77
iter:   2 22:57:26  -306.642044  -1.26  -1.73
iter:   3 22:57:33  -306.630017  -2.03  -1.93
iter:   4 22:57:40  -306.625885c -1.32  -2.31
Writing to output.gpw (mode='')

iter:   5 22:57:47  -306.622908c -2.33  -2.29
iter:   6 22:57:55  -306.622478c -2.36  -2.51
iter:   7 22:58:02  -306.623432c -2.31  -2.73
iter:   8 22:58:09  -306.622451c -2.75  -2.71
iter:   9 22:58:19  -306.622373c -3.08  -2.87
Writing to output.gpw (mode='')

iter:  10 22:58:26  -306.622356c -3.37  -3.10
iter:  11 22:58:33  -306.622337c -3.65  -3.16
iter:  12 22:58:40  -306.622323c -3.58  -3.22
iter:  13 22:58:48  -306.622314c -4.23  -3.37
iter:  14 22:58:55  -306.622316c -4.12  -3.46
Writing to output.gpw (mode='')

iter:  15 22:59:02  -306.622330c -4.35  -3.65
iter:  16 22:59:09  -306.622335c -4.74  -3.64
iter:  17 22:59:16  -306.622342c -4.60  -3.86
iter:  18 22:59:23  -306.622341c -5.22  -3.98
iter:  19 22:59:31  -306.622341c -4.99  -4.02c
Writing to output.gpw (mode='')

iter:  20 22:59:43  -306.622342c -5.31  -4.07c
iter:  21 22:59:51  -306.622340c -5.47  -4.17c
iter:  22 22:59:58  -306.622340c -5.39  -4.18c
iter:  23 23:00:05  -306.622340c -5.86  -4.20c
iter:  24 23:00:12  -306.622343c -5.96  -4.27c
Writing to output.gpw (mode='')

iter:  25 23:00:20  -306.622342c -6.00  -4.48c
iter:  26 23:00:27  -306.622342c -5.90  -4.66c
iter:  27 23:00:34  -306.622343c -6.12  -4.74c
iter:  28 23:00:41  -306.622343c -6.57  -4.94c
iter:  29 23:00:48  -306.622342c -6.48  -4.95c
Writing to output.gpw (mode='')

iter:  30 23:00:55  -306.622343c -6.60  -5.07c
iter:  31 23:01:03  -306.622343c -6.61  -5.08c
iter:  32 23:01:10  -306.622343c -6.68  -5.13c
iter:  33 23:01:17  -306.622342c -6.90  -5.23c
iter:  34 23:01:24  -306.622343c -7.01  -5.24c
Writing to output.gpw (mode='')

iter:  35 23:01:31  -306.622343c -7.07  -5.32c
iter:  36 23:01:39  -306.622343c -7.38  -5.38c
iter:  37 23:01:46  -306.622343c -7.50c -5.54c

Converged after 37 iterations.

Dipole moment: (-16.173902, -4.046043, 0.302846) |e|*Ang

Energy contributions relative to reference atoms: (reference = -14434.854043)

Kinetic:       +164.951743
Potential:     -155.656331
External:        +0.000000
XC:            -316.594612
Entropy (-ST):   -0.139827
Local:           +0.746771
--------------------------
Free energy:   -306.692256
Extrapolated:  -306.622343

Dipole-layer corrected work functions: 3.383721, 2.801546 eV

Showing only first 2 kpts
 Kpt  Band  Eigenvalues  Occupancy
  0    31     -3.33699    1.98503
  0    32     -3.20567    1.81115
  0    33     -2.93497    0.08193
  0    34     -2.83714    0.01200

  1    31     -3.14237    1.46001
  1    32     -3.09438    1.01746
  1    33     -3.07364    0.81230
  1    34     -2.96225    0.13728


Fermi level: -3.09263

No gap
Writing to output.gpw (mode='')


Forces in eV/Ang:
  0 Li    0.01146    0.00007   -0.27326
  1 Li    0.00026   -0.00111   -0.25770
  2 Li   -0.01153    0.00116   -0.27427
  3 Li    0.00231    0.01090   -0.27263
  4 Li    0.00047    0.00289   -0.28246
  5 Li   -0.00168    0.00930   -0.27311
  6 Li    0.00365   -0.01030   -0.27351
  7 Li   -0.00081   -0.00399   -0.28098
  8 Li   -0.00190   -0.00997   -0.27369
  9 Li   -0.00024    0.01966    0.32046
 10 Li    0.02156   -0.00826    0.25542
 11 Li   -0.02030   -0.00467    0.25525
 12 Li   -0.00018   -0.01982    0.31699
 13 Li    0.02317    0.00763    0.25543
 14 Li   -0.02227    0.00670    0.25312
 15 Li   -0.00133   -0.00349    0.23426
 16 Li   -0.03145    0.00042    0.26339
 17 Li    0.03079   -0.00161    0.27156
 18 Li    0.07798    0.00163   -0.09690
 19 Li   -0.00184    0.00043    0.05559
 20 Li   -0.07723    0.00131   -0.08987
 21 Li   -0.02050   -0.02241    0.05104
 22 Li   -0.00214    0.01382    0.02526
 23 Li    0.02091   -0.02461    0.05583
 24 Li   -0.02335    0.02000    0.05085
 25 Li   -0.00103   -0.01212    0.02635
 26 Li    0.02284    0.02175    0.05065
 27 Li   -0.00187    0.02277   -0.16716
 28 Li    0.05814   -0.02801   -0.05104
 29 Li   -0.05627   -0.02872   -0.05917
 30 Li   -0.00582    0.02055   -0.15902
 31 Li    0.05527    0.02813   -0.05104
 32 Li   -0.05568    0.03191   -0.05892
 33 Li   -0.00361   -0.00099   -0.02566
 34 Li   -0.00933    0.00096   -0.01521
 35 Li    0.01434   -0.00249   -0.00753
 36 O     0.11161    0.05017    3.28786
 37 C    -0.19586    0.14587    0.73448
 38 C     0.00359   -0.04448    0.11719
 39 H    -0.31863    0.32624    0.25014
 40 H     0.10206   -0.14061    0.49965
 41 H     0.00719   -0.00263   -0.02873
 42 H     0.02629    0.03145    0.01964
 43 H    -0.09361   -0.06275    0.03585
 44 H    -0.48198   -0.23551    1.07672
 45 N     0.00111   -0.85108   -2.10657
 46 N     0.80529    0.74484   -3.27653

System changes: positions 

Initializing position-dependent things.

Density initialized from wave functions
       .-----------------------.  
      /|                       |  
     / |                       |  
    /  |                       |  
   /   |                       |  
  /    |                       |  
 *     |                       |  
 |     |                       |  
 |     |                       |  
 |     |                       |  
 |     |                       |  
 |     |                H      |  
 |     |           H     H     |  
 |O    |       Li H C  LC      |  
 |     |                       |  
 |N    |     Li    H Li      Li|  
 |     |                       |  
 |N    |  LLi     LLi     LLi  |  
 |     |                       |  
 Li    |Li      Li      Li     |  
 |   Li|     Li      Li        |  
 |    Li  Li  Li  Li  Li  Li   |  
 | Li  |   Li      Li          |  
 |     |Li      Li      Li     |  
 Li    | Li      Li            |  
 |    Li      Li      Li       |  
 |     |                       |  
 |     |                       |  
 |     |                       |  
 |     |                       |  
 |     |                       |  
 |     |                       |  
 |     .-----------------------.  
 |    /                       /   
 |   /                       /    
 |  /                       /     
 | /                       /      
 |/                       /       
 *-----------------------*        

Positions:
   0 Li     1.617037    1.617037   10.000000    ( 0.0000,  0.0000,  0.0000)
   1 Li     4.851111    1.617037   10.000000    ( 0.0000,  0.0000,  0.0000)
   2 Li     8.085185    1.617037   10.000000    ( 0.0000,  0.0000,  0.0000)
   3 Li     1.617037    4.851111   10.000000    ( 0.0000,  0.0000,  0.0000)
   4 Li     4.851111    4.851111   10.000000    ( 0.0000,  0.0000,  0.0000)
   5 Li     8.085185    4.851111   10.000000    ( 0.0000,  0.0000,  0.0000)
   6 Li     1.617037    8.085185   10.000000    ( 0.0000,  0.0000,  0.0000)
   7 Li     4.851111    8.085185   10.000000    ( 0.0000,  0.0000,  0.0000)
   8 Li     8.085185    8.085185   10.000000    ( 0.0000,  0.0000,  0.0000)
   9 Li     0.000000    0.000000   11.617037    ( 0.0000,  0.0000,  0.0000)
  10 Li     3.234074    0.000000   11.617037    ( 0.0000,  0.0000,  0.0000)
[...]
iter:  17 04:09:10  -308.811865c -6.58  -4.72c
iter:  18 04:09:17  -308.811867c -7.05  -4.70c
iter:  19 04:09:24  -308.811868c -6.93  -4.99c
Writing to output.gpw (mode='')

iter:  20 04:09:31  -308.811868c -7.49c -5.00c

Converged after 20 iterations.

Dipole moment: (6.477916, -2.715359, 0.137374) |e|*Ang

Energy contributions relative to reference atoms: (reference = -14434.854043)

Kinetic:       +149.140073
Potential:     -144.087021
External:        +0.000000
XC:            -314.564926
Entropy (-ST):   -0.140565
Local:           +0.770288
--------------------------
Free energy:   -308.882150
Extrapolated:  -308.811868

Dipole-layer corrected work functions: 3.399872, 3.135792 eV

Showing only first 2 kpts
 Kpt  Band  Eigenvalues  Occupancy
  0    31     -3.51244    1.98510
  0    32     -3.44316    1.94175
  0    33     -3.14243    0.15061
  0    34     -3.03885    0.02031

  1    31     -3.33844    1.60824
  1    32     -3.28039    1.12492
  1    33     -3.20852    0.46786
  1    34     -3.15034    0.17416


Fermi level: -3.26783

No gap

Forces in eV/Ang:
  0 Li    0.00778   -0.00185   -0.26462
  1 Li    0.02275    0.00024   -0.27207
  2 Li   -0.02588   -0.00031   -0.27117
  3 Li   -0.00453    0.02550   -0.27649
  4 Li    0.00514    0.00196   -0.28188
  5 Li    0.00047    0.01106   -0.28133
  6 Li   -0.00630   -0.02403   -0.26629
  7 Li    0.00742    0.00120   -0.28807
  8 Li   -0.00366   -0.00724   -0.28009
  9 Li   -0.01221   -0.02017    0.27864
 10 Li    0.01174   -0.02761    0.28135
 11 Li   -0.01808    0.00887    0.27257
 12 Li   -0.00839    0.00052    0.29912
 13 Li   -0.00000    0.01501    0.29159
 14 Li   -0.01448   -0.00933    0.26462
 15 Li   -0.00167    0.00738    0.24453
 16 Li   -0.04147    0.01000    0.27402
 17 Li    0.03869   -0.01294    0.29578
 18 Li    0.00814   -0.00118   -0.00434
 19 Li   -0.00287    0.00510    0.00242
 20 Li   -0.00202   -0.00080    0.00537
 21 Li    0.00422    0.00111   -0.00074
 22 Li    0.00016   -0.00557    0.00395
 23 Li    0.00001    0.00503   -0.00146
 24 Li   -0.00293    0.00410   -0.00459
 25 Li    0.00082    0.00256    0.00126
 26 Li    0.00845    0.00247   -0.00784
 27 Li   -0.02628   -0.02599   -0.01520
 28 Li    0.00138   -0.00312    0.00349
 29 Li   -0.00234    0.00332   -0.00017
 30 Li   -0.00057    0.00163    0.01109
 31 Li   -0.00076    0.00269    0.01167
 32 Li   -0.00008   -0.00034    0.00558
 33 Li    0.00289    0.00597   -0.00282
 34 Li   -0.00242    0.00227    0.00983
 35 Li   -0.00321   -0.00531    0.00783
 36 O     0.01682    0.02905   -0.03792
 37 C    -0.00995   -0.02452    0.02013
 38 C     0.01288    0.02231    0.00647
 39 H     0.00655   -0.01138   -0.00539
 40 H    -0.00339   -0.01503   -0.00210
 41 H    -0.00127   -0.01943   -0.03141
 42 H    -0.01015    0.02060   -0.00853
 43 H     0.00895    0.02991   -0.01152
 44 H     0.00559   -0.02111    0.01631
 45 N    -0.03118   -0.02674    0.00240
 46 N     0.02359    0.00348    0.00407

System changes: positions 

Initializing position-dependent things.

Density initialized from wave functions
       .-----------------------.  
      /|                       |  
     / |                       |  
    /  |                       |  
   /   |                       |  
  /    |                       |  
 *     |                       |  
 |     |                       |  
 |     |                       |  
 |     |                       |  
 |     |                       |  
 |     |               H       |  
 |     |               C HO    |  
 |     |       Li HHC   H      Li 
 |     |                       |  
 |   Li|     Li     HLi        |  
 |   N |                       |  
 | N   |  LLi     LLi     LLi  |  
 |     |                       |  
 |     |Li      LLi     Li     |  
 |   Li|     Li      Li        |  
 |    Li  Li  Li  Li  Li  Li   |  
 | Li  |   Li      Li          |  
 |     |Li      Li      Li     |  
 Li    | Li      Li            |  
 |    Li      Li      Li       |  
 |     |                       |  
 |     |                       |  
 |     |                       |  
 |     |                       |  
 |     |                       |  
 |     |                       |  
 |     .-----------------------.  
 |    /                       /   
 |   /                       /    
 |  /                       /     
 | /                       /      
 |/                       /       
 *-----------------------*        

Positions:
   0 Li     1.617037    1.617037   10.000000    ( 0.0000,  0.0000,  0.0000)
   1 Li     4.851111    1.617037   10.000000    ( 0.0000,  0.0000,  0.0000)
   2 Li     8.085185    1.617037   10.000000    ( 0.0000,  0.0000,  0.0000)
   3 Li     1.617037    4.851111   10.000000    ( 0.0000,  0.0000,  0.0000)
   4 Li     4.851111    4.851111   10.000000    ( 0.0000,  0.0000,  0.0000)
   5 Li     8.085185    4.851111   10.000000    ( 0.0000,  0.0000,  0.0000)
   6 Li     1.617037    8.085185   10.000000    ( 0.0000,  0.0000,  0.0000)
   7 Li     4.851111    8.085185   10.000000    ( 0.0000,  0.0000,  0.0000)
   8 Li     8.085185    8.085185   10.000000    ( 0.0000,  0.0000,  0.0000)
   9 Li     0.000000    0.000000   11.617037    ( 0.0000,  0.0000,  0.0000)
  10 Li     3.234074    0.000000   11.617037    ( 0.0000,  0.0000,  0.0000)
  11 Li     6.468148    0.000000   11.617037    ( 0.0000,  0.0000,  0.0000)
  12 Li     0.000000    3.234074   11.617037    ( 0.0000,  0.0000,  0.0000)
  13 Li     3.234074    3.234074   11.617037    ( 0.0000,  0.0000,  0.0000)
  14 Li     6.468148    3.234074   11.617037    ( 0.0000,  0.0000,  0.0000)
  15 Li     0.000000    6.468148   11.617037    ( 0.0000,  0.0000,  0.0000)
  16 Li     3.234074    6.468148   11.617037    ( 0.0000,  0.0000,  0.0000)
  17 Li     6.468148    6.468148   11.617037    ( 0.0000,  0.0000,  0.0000)
  18 Li     1.601799    1.600880   13.406128    ( 0.0000,  0.0000,  0.0000)
  19 Li     4.815027    1.625422   13.483649    ( 0.0000,  0.0000,  0.0000)
  20 Li     8.093220    1.602956   13.477120    ( 0.0000,  0.0000,  0.0000)
  21 Li     1.594044    4.837125   13.484249    ( 0.0000,  0.0000,  0.0000)
  22 Li     4.846721    4.863565   13.472616    ( 0.0000,  0.0000,  0.0000)
  23 Li     8.111948    4.818947   13.505865    ( 0.0000,  0.0000,  0.0000)
  24 Li     1.577849    8.099642   13.510092    ( 0.0000,  0.0000,  0.0000)
  25 Li     4.848115    8.073774   13.460969    ( 0.0000,  0.0000,  0.0000)
  26 Li     8.111065    8.095068   13.520843    ( 0.0000,  0.0000,  0.0000)
  27 Li    -0.065310   -0.014401   15.589974    ( 0.0000,  0.0000,  0.0000)
  28 Li     3.264903   -0.056772   15.400675    ( 0.0000,  0.0000,  0.0000)
  29 Li     6.415507    0.008714   15.401119    ( 0.0000,  0.0000,  0.0000)
  30 Li    -0.024804    3.179882   15.511697    ( 0.0000,  0.0000,  0.0000)
  31 Li     3.271086    3.316685   15.462189    ( 0.0000,  0.0000,  0.0000)
  32 Li     6.432876    3.224757   15.385136    ( 0.0000,  0.0000,  0.0000)
  33 Li     0.010513    6.422767   15.470958    ( 0.0000,  0.0000,  0.0000)
  34 Li     3.223901    6.482681   15.408134    ( 0.0000,  0.0000,  0.0000)
  35 Li     6.471559    6.471468   15.430108    ( 0.0000,  0.0000,  0.0000)
  36 O     -0.138815    1.677835   20.393267    ( 0.0000,  0.0000,  0.0000)
  37 C     -1.308966    2.463798   20.111298    ( 0.0000,  0.0000,  0.0000)
  38 C     -2.512682    1.622464   19.701832    ( 0.0000,  0.0000,  0.0000)
  39 H     -1.562197    3.092122   20.974967    ( 0.0000,  0.0000,  0.0000)
  40 H     -1.012632    3.131414   19.299103    ( 0.0000,  0.0000,  0.0000)
  41 H     -3.365007    2.267976   19.468259    ( 0.0000,  0.0000,  0.0000)
  42 H     -2.283532    1.018681   18.820279    ( 0.0000,  0.0000,  0.0000)
  43 H     -2.815384    0.949530   20.510449    ( 0.0000,  0.0000,  0.0000)
  44 H     -0.338692    1.107437   21.145237    ( 0.0000,  0.0000,  0.0000)
  45 N      0.569571    1.416710   16.792042    ( 0.0000,  0.0000,  0.0000)
  46 N      1.038917    2.326456   17.296364    ( 0.0000,  0.0000,  0.0000)

Unit cell:
           periodic     x           y           z      points  spacing
  1. axis:    yes    9.702222    0.000000    0.000000    60     0.1617
  2. axis:    yes    0.000000    9.702222    0.000000    60     0.1617
  3. axis:    no     0.000000    0.000000   26.351111   164     0.1607

  Lengths:   9.702222   9.702222  26.351111
  Angles:   90.000000  90.000000  90.000000

Effective grid spacing dv^(1/3) = 0.1614

     iter     time        total  log10-change:
                         energy  eigst   dens
iter:   1 04:09:44  -308.819572  -2.22
iter:   2 04:09:52  -308.815973  -2.54  -2.15
iter:   3 04:09:59  -308.812629c -3.67  -2.29
iter:   4 04:10:07  -308.812554c -4.01  -2.91
Writing to output.gpw (mode='')

iter:   5 04:10:14  -308.812476c -3.27  -2.98
iter:   6 04:10:21  -308.812404c -4.26  -3.16
iter:   7 04:10:28  -308.812395c -3.98  -3.46
iter:   8 04:10:35  -308.812423c -4.00  -3.47
iter:   9 04:10:42  -308.812394c -5.00  -3.44
Writing to output.gpw (mode='')

iter:  10 04:10:49  -308.812371c -4.72  -3.62
iter:  11 04:10:57  -308.812389c -5.25  -3.84
iter:  12 04:11:04  -308.812387c -5.81  -3.78
iter:  13 04:11:11  -308.812381c -5.00  -3.88
iter:  14 04:11:18  -308.812382c -6.01  -4.00
Writing to output.gpw (mode='')

iter:  15 04:11:25  -308.812382c -6.27  -4.15c
iter:  16 04:11:32  -308.812382c -5.67  -4.21c
iter:  17 04:11:39  -308.812379c -6.11  -4.36c
iter:  18 04:11:47  -308.812380c -6.65  -4.56c
iter:  19 04:11:54  -308.812380c -6.63  -4.72c
Writing to output.gpw (mode='')

iter:  20 04:12:01  -308.812380c -7.04  -4.84c
iter:  21 04:12:08  -308.812380c -7.18  -4.89c
iter:  22 04:12:15  -308.812381c -7.11  -4.95c
iter:  23 04:12:22  -308.812381c -7.37  -5.03c
iter:  24 04:12:29  -308.812381c -7.59c -5.13c

Converged after 24 iterations.

Dipole moment: (6.270911, -2.658540, 0.136796) |e|*Ang

Energy contributions relative to reference atoms: (reference = -14434.854043)

Kinetic:       +149.020407
Potential:     -143.991642
External:        +0.000000
XC:            -314.541040
Entropy (-ST):   -0.140519
Local:           +0.770153
--------------------------
Free energy:   -308.882640
Extrapolated:  -308.812381

Dipole-layer corrected work functions: 3.399878, 3.136910 eV

Showing only first 2 kpts
 Kpt  Band  Eigenvalues  Occupancy
  0    31     -3.51329    1.98519
  0    32     -3.44360    1.94161
  0    33     -3.14314    0.15100
  0    34     -3.03905    0.02016

  1    31     -3.33929    1.61003
  1    32     -3.28088    1.12418
  1    33     -3.20924    0.46902
  1    34     -3.15052    0.17294


Fermi level: -3.26839

No gap
Writing to output.gpw (mode='')


Forces in eV/Ang:
  0 Li    0.00789   -0.00179   -0.26454
  1 Li    0.02272    0.00026   -0.27195
  2 Li   -0.02589   -0.00044   -0.27119
  3 Li   -0.00444    0.02546   -0.27636
  4 Li    0.00523    0.00211   -0.28160
  5 Li    0.00030    0.01103   -0.28121
  6 Li   -0.00641   -0.02396   -0.26620
  7 Li    0.00732    0.00111   -0.28807
  8 Li   -0.00352   -0.00710   -0.27987
  9 Li   -0.01152   -0.01895    0.27760
 10 Li    0.01186   -0.02816    0.28040
 11 Li   -0.01895    0.00836    0.27205
 12 Li   -0.00859   -0.00007    0.29903
 13 Li    0.00071    0.01539    0.28999
 14 Li   -0.01504   -0.00989    0.26371
 15 Li   -0.00119    0.00695    0.24353
 16 Li   -0.04150    0.01009    0.27334
 17 Li    0.03881   -0.01165    0.29491
 18 Li    0.00530   -0.00168   -0.00289
 19 Li   -0.00129    0.00523    0.00317
 20 Li    0.00033    0.00227    0.00711
 21 Li    0.00302    0.00161    0.00152
 22 Li   -0.00158   -0.00545    0.00559
 23 Li    0.00182    0.00340    0.00276
 24 Li    0.00029    0.00347   -0.00355
 25 Li    0.00173    0.00154    0.00243
 26 Li    0.00340   -0.00066   -0.00708
 27 Li   -0.02394   -0.01646   -0.00804
 28 Li    0.00144   -0.00206    0.00397
 29 Li   -0.00324    0.00292    0.00080
 30 Li   -0.00221    0.00567    0.00684
 31 Li   -0.00144    0.00188    0.01185
 32 Li    0.00101   -0.00199    0.00384
 33 Li    0.00253    0.00304   -0.00190
 34 Li   -0.00286    0.00253    0.00705
 35 Li   -0.00179   -0.00252    0.00488
 36 O    -0.01783    0.00948   -0.03382
 37 C    -0.00547   -0.01569    0.01610
 38 C     0.01462    0.02449    0.00308
 39 H     0.00727   -0.00507    0.00776
 40 H     0.00914   -0.01312   -0.00286
 41 H     0.00218   -0.01621   -0.01862
 42 H     0.00137    0.00382    0.00180
 43 H     0.00392    0.02228   -0.02437
 44 H    -0.00341   -0.00241   -0.00106
 45 N     0.00660    0.00507    0.00305
 46 N     0.00772   -0.03475   -0.01665

Timing:                                      incl.     excl.
-------------------------------------------------------------------
Density initialized from wave functions:     3.459     3.458   0.0% |
 Symmetrize density:                         0.002     0.002   0.0% |
Forces:                                     31.888    31.888   0.1% |
Hamiltonian:                               478.918     0.011   0.0% |
 Atomic:                                     0.018     0.018   0.0% |
  XC Correction:                             0.000     0.000   0.0% |
 Calculate atomic Hamiltonians:              0.032     0.032   0.0% |
 Communicate:                                7.549     7.549   0.0% |
 Hartree integrate/restrict:                 1.685     1.685   0.0% |
 Initialize Hamiltonian:                     0.000     0.000   0.0% |
 Poisson:                                   22.274     8.103   0.0% |
  Communicate from 1D:                       2.213     2.213   0.0% |
  Communicate from 2D:                       2.268     2.268   0.0% |
  Communicate to 1D:                         1.225     1.225   0.0% |
  Communicate to 2D:                         2.660     2.660   0.0% |
  FFT 1D:                                    2.961     2.961   0.0% |
  FFT 2D:                                    2.844     2.844   0.0% |
 XC 3D grid:                               446.837    68.553   0.3% |
  VdW-DF integral:                         378.284     3.228   0.0% |
   Convolution:                             34.493    34.493   0.2% |
   FFT:                                     14.927    14.927   0.1% |
   gather:                                 129.268   129.268   0.6% |
   hmm1:                                    12.134    12.134   0.1% |
   hmm2:                                    16.215    16.215   0.1% |
   iFFT:                                    15.495    15.495   0.1% |
   potential:                              148.893     4.133   0.0% |
    collect:                                22.710    22.710   0.1% |
    p1:                                     66.806    66.806   0.3% |
    p2:                                     24.988    24.988   0.1% |
    sum:                                    30.256    30.256   0.1% |
   splines:                                  3.631     3.631   0.0% |
 vbar:                                       0.511     0.511   0.0% |
LCAO initialization:                         1.085     0.182   0.0% |
 LCAO eigensolver:                           0.242     0.000   0.0% |
  Calculate projections:                     0.000     0.000   0.0% |
  DenseAtomicCorrection:                     0.000     0.000   0.0% |
  Distribute overlap matrix:                 0.175     0.175   0.0% |
  Orbital Layouts:                           0.066     0.066   0.0% |
  Potential matrix:                          0.001     0.001   0.0% |
  Sum over cells:                            0.001     0.001   0.0% |
 LCAO to grid:                               0.552     0.552   0.0% |
 Set positions (LCAO WFS):                   0.109     0.057   0.0% |
  Basic WFS set positions:                   0.001     0.001   0.0% |
  Basis functions set positions:             0.000     0.000   0.0% |
  P tci:                                     0.000     0.000   0.0% |
  ST tci:                                    0.021     0.021   0.0% |
  mktci:                                     0.029     0.029   0.0% |
Redistribute:                                0.055     0.055   0.0% |
SCF-cycle:                               20888.140   299.518   1.4% ||
 Davidson:                                5260.681  1563.112   7.3% |--|
  Apply hamiltonian:                       331.062   331.062   1.5% ||
  Subspace diag:                          1001.096     0.333   0.0% |
   calc_h_matrix:                          486.105   147.469   0.7% |
    Apply hamiltonian:                     338.636   338.636   1.6% ||
   diagonalize:                             61.684    61.684   0.3% |
   rotate_psi:                             452.974   452.974   2.1% ||
  calc. matrices:                         1624.663   835.468   3.9% |-|
   Apply hamiltonian:                      789.195   789.195   3.7% ||
  diagonalize:                              14.819    14.819   0.1% |
  rotate_psi:                              725.931   725.931   3.4% ||
 Density:                                   96.388     0.068   0.0% |
  Atomic density matrices:                   9.727     9.727   0.0% |
  Mix:                                      42.320    42.320   0.2% |
  Multipole moments:                         3.521     3.521   0.0% |
  Pseudo density:                           40.752    40.698   0.2% |
   Symmetrize density:                       0.054     0.054   0.0% |
 Hamiltonian:                            15216.456     0.357   0.0% |
  Atomic:                                    0.672     0.664   0.0% |
   XC Correction:                            0.008     0.008   0.0% |
  Calculate atomic Hamiltonians:             1.026     1.026   0.0% |
  Communicate:                             209.483   209.483   1.0% |
  Hartree integrate/restrict:               54.644    54.644   0.3% |
  Poisson:                                 725.194   264.821   1.2% |
   Communicate from 1D:                     71.596    71.596   0.3% |
   Communicate from 2D:                     74.514    74.514   0.3% |
   Communicate to 1D:                       39.922    39.922   0.2% |
   Communicate to 2D:                       85.990    85.990   0.4% |
   FFT 1D:                                  96.056    96.056   0.4% |
   FFT 2D:                                  92.297    92.297   0.4% |
  XC 3D grid:                            14212.461  2171.815  10.1% |---|
   VdW-DF integral:                      12040.646   102.291   0.5% |
    Convolution:                          1105.623  1105.623   5.1% |-|
    FFT:                                   478.224   478.224   2.2% ||
    gather:                               4190.375  4190.375  19.5% |-------|
    hmm1:                                  388.500   388.500   1.8% ||
    hmm2:                                  518.602   518.602   2.4% ||
    iFFT:                                  495.907   495.907   2.3% ||
    potential:                            4761.098   132.328   0.6% |
     collect:                              732.713   732.713   3.4% ||
     p1:                                  2138.148  2138.148   9.9% |---|
     p2:                                   798.454   798.454   3.7% ||
     sum:                                  959.455   959.455   4.5% |-|
    splines:                                 0.026     0.026   0.0% |
  vbar:                                     12.620    12.620   0.1% |
 Orthonormalize:                            15.096     0.012   0.0% |
  calc_s_matrix:                             2.146     2.146   0.0% |
  inverse-cholesky:                          4.540     4.540   0.0% |
  projections:                               0.002     0.002   0.0% |
  rotate_psi_s:                              8.396     8.396   0.0% |
Set symmetry:                                0.026     0.026   0.0% |
Other:                                      87.340    87.340   0.4% |
-------------------------------------------------------------------
Total:                                             21490.910 100.0%

Memory usage: 1.12 GiB
Date: Thu Mar  9 04:12:31 2023
