
  ___ ___ ___ _ _ _  
 |   |   |_  | | | | 
 | | | | | . | | | | 
 |__ |  _|___|_____|  22.8.0
 |___|_|             

User:   vazumah@c09.hercules
Date:   Wed Apr  5 09:45:01 2023
Arch:   x86_64
Pid:    5660
CWD:    /home/vazumah/Python_projects/LiNRR/Li_adsorb_studies/proton_donors/N2_with_proton_donor/Li_BCC_100/adsorbates/CH3CH2OH_x/bridge/0.0_1.617/N2_z
Python: 3.10.8
gpaw:   /home/vazumah/.conda/envs/GPAW/lib/python3.10/site-packages/gpaw
_gpaw:  /home/vazumah/.conda/envs/GPAW/lib/python3.10/site-packages/
        _gpaw.cpython-310-x86_64-linux-gnu.so
ase:    /home/vazumah/.conda/envs/GPAW/lib/python3.10/site-packages/ase (version 3.22.1)
numpy:  /home/vazumah/.conda/envs/GPAW/lib/python3.10/site-packages/numpy (version 1.24.1)
scipy:  /home/vazumah/.conda/envs/GPAW/lib/python3.10/site-packages/scipy (version 1.10.0)
libxc:  5.2.3
units:  Angstrom and eV
cores: 24
OpenMP: True
OMP_NUM_THREADS: 1

Input parameters:
  convergence: {bands: -10}
  h: 0.16
  kpts: {size: [4, 4, 1]}
  occupations: {name: fermi-dirac,
                width: 0.05}
  poissonsolver: {dipolelayer: xy}
  xc: BEEF-vdW

System changes: positions, numbers, cell, pbc, initial_charges, initial_magmoms 

Initialize ...

species:
  Li:
    name: Lithium
    id: 830b4218f175192f93f959cfc0aad614
    Z: 3.0
    valence: 1
    core: 2
    charge: 0.0
    file: /home/vazumah/.conda/envs/GPAW/share/gpaw/Li.PBE.gz
    compensation charges: {type: gauss,
                           rc: 0.33,
                           lmax: 2}
    cutoffs: {filter: 1.91,
              core: 2.55}
    valence states:
      #              energy  rcut
      - 2s(1.00)    -2.874   1.058
      - 2p(0.00)    -1.090   1.058
      -  s          24.337   1.058
  
    # Using partial waves for Li as LCAO basis

  O:
    name: Oxygen
    id: 32ecd46bf208036f09c70b0ec9a88b78
    Z: 8.0
    valence: 6
    core: 2
    charge: 0.0
    file: /home/vazumah/.conda/envs/GPAW/share/gpaw/O.PBE.gz
    compensation charges: {type: gauss,
                           rc: 0.21,
                           lmax: 2}
    cutoffs: {filter: 1.17,
              core: 0.83}
    valence states:
      #              energy  rcut
      - 2s(2.00)   -23.961   0.688
      - 2p(4.00)    -9.029   0.598
      -  s           3.251   0.688
      -  p          18.182   0.598
      -  d           0.000   0.619
  
    # Using partial waves for O as LCAO basis

  C:
    name: Carbon
    id: 4aa54d4b901d75f77cc0ea3eec22967b
    Z: 6.0
    valence: 4
    core: 2
    charge: 0.0
    file: /home/vazumah/.conda/envs/GPAW/share/gpaw/C.PBE.gz
    compensation charges: {type: gauss,
                           rc: 0.20,
                           lmax: 2}
    cutoffs: {filter: 1.14,
              core: 1.14}
    valence states:
      #              energy  rcut
      - 2s(2.00)   -13.751   0.635
      - 2p(2.00)    -5.284   0.635
      -  s          13.461   0.635
      -  p          21.927   0.635
      -  d           0.000   0.635
  
    # Using partial waves for C as LCAO basis

  H:
    name: Hydrogen
    id: d65de229564ff8ea4db303e23b6d1ecf
    Z: 1.0
    valence: 1
    core: 0
    charge: 0.0
    file: /home/vazumah/.conda/envs/GPAW/share/gpaw/H.PBE.gz
    compensation charges: {type: gauss,
                           rc: 0.15,
                           lmax: 2}
    cutoffs: {filter: 0.85,
              core: 0.53}
    valence states:
      #              energy  rcut
      - 1s(1.00)    -6.494   0.476
      -  s          20.717   0.476
      -  p           0.000   0.476
  
    # Using partial waves for H as LCAO basis

  N:
    name: Nitrogen
    id: f7500608b86eaa90eef8b1d9a670dc53
    Z: 7.0
    valence: 5
    core: 2
    charge: 0.0
    file: /home/vazumah/.conda/envs/GPAW/share/gpaw/N.PBE.gz
    compensation charges: {type: gauss,
                           rc: 0.18,
                           lmax: 2}
    cutoffs: {filter: 1.11,
              core: 0.96}
    valence states:
      #              energy  rcut
      - 2s(2.00)   -18.583   0.603
      - 2p(3.00)    -7.089   0.529
      -  s           8.629   0.603
      -  p          20.123   0.529
      -  d           0.000   0.577
  
    # Using partial waves for N as LCAO basis

Reference energy: -14434.854043  # eV

Spin-paired calculation

Convergence criteria:
 Maximum [total energy] change in last 3 cyles: 0.0005 eV / electron
 Maximum integral of absolute [dens]ity change: 0.0001 electrons / valence electron
 Maximum integral of absolute [eigenst]ate change: 4e-08 eV^2 / valence electron
 Maximum number of scf [iter]ations: 333
 (Square brackets indicate name in SCF output, whereas a 'c' in
 the SCF output indicates the quantity has converged.)

Symmetries present (total): 1

  ( 1  0  0)
  ( 0  1  0)
  ( 0  0  1)

16 k-points: 4 x 4 x 1 Monkhorst-Pack grid
8 k-points in the irreducible part of the Brillouin zone
       k-points in crystal coordinates                weights
   0:     0.12500000   -0.37500000    0.00000000          2/16
   1:     0.12500000   -0.12500000    0.00000000          2/16
   2:     0.12500000    0.12500000    0.00000000          2/16
   3:     0.12500000    0.37500000    0.00000000          2/16
   4:     0.37500000   -0.37500000    0.00000000          2/16
   5:     0.37500000   -0.12500000    0.00000000          2/16
   6:     0.37500000    0.12500000    0.00000000          2/16
   7:     0.37500000    0.37500000    0.00000000          2/16

Wave functions: Uniform real-space grid
  Kinetic energy operator: 6*3+1=19 point O(h^6) finite-difference Laplacian
  ScaLapack parameters: grid=1x1, blocksize=None
  Wavefunction extrapolation:
    Improved wavefunction reuse through dual PAW basis 

Occupation numbers: Fermi-Dirac:
  width: 0.0500  # eV
 

Eigensolver
   Davidson(niter=2) 

Densities:
  Coarse grid: 60*60*164 grid
  Fine grid: 120*120*328 grid
  Total Charge: 0.000000 

Density mixing:
  Method: separate
  Backend: pulay
  Linear mixing parameter: 0.05
  old densities: 5
  Damping of long wavelength oscillations: 50 

Hamiltonian:
  XC and Coulomb potentials evaluated on a 120*120*328 grid
  Using the BEEF-vdW Exchange-Correlation functional
  Interpolation: tri-quintic (5. degree polynomial)
  Poisson solver: FastPoissonSolver using
    Stencil: 6*3+1=19 point O(h^6) finite-difference Laplacian
    FFT axes: [0, 1]
    FST axes: [2]

Dipole correction along z-axis 

XC parameters: BEEF-vdW with 2 nearest neighbor stencil

Memory estimate:
  Process memory now: 240.77 MiB
  Calculator: 430.76 MiB
    Density: 120.39 MiB
      Arrays: 38.89 MiB
      Localized functions: 66.67 MiB
      Mixer: 14.83 MiB
    Hamiltonian: 30.70 MiB
      Arrays: 25.43 MiB
      XC: 0.00 MiB
      Poisson: 0.00 MiB
      vbar: 5.27 MiB
    Wavefunctions: 279.67 MiB
      Arrays psit_nG: 130.52 MiB
      Eigensolver: 145.65 MiB
      Projections: 0.06 MiB
      Projectors: 3.44 MiB

Total number of cores used: 24
Parallelization over k-points: 8
Domain decomposition: 1 x 1 x 3

Number of atoms: 47
Number of atomic orbitals: 170
Number of bands in calculation: 44
Number of valence electrons: 66
Bands to converge: 34

... initialized

Initializing position-dependent things.

Density initialized from atomic densities
Creating initial wave functions:
  44 bands from LCAO basis set

       .-----------------------.  
      /|                       |  
     / |                       |  
    /  |                       |  
   /   |                       |  
  /    |                       |  
 *     |                       |  
 |     |                       |  
 |     |                       |  
 |     |                       |  
 |     |                       |  
 |     |               H       |  
 |     |               C HO    |  
 |     |       Li HHC   H      Li 
 |     |                       |  
 |   Li|     Li     HLi        |  
 |   N |                       |  
 | N   |  LLi     LLi     LLi  |  
 |     |                       |  
 |     |Li      LLi     Li     |  
 |   Li|     Li      Li        |  
 |    Li  Li  Li  Li  Li  Li   |  
 | Li  |   Li      Li          |  
 |     |Li      Li      Li     |  
 Li    | Li      Li            |  
 |    Li      Li      Li       |  
 |     |                       |  
 |     |                       |  
 |     |                       |  
 |     |                       |  
 |     |                       |  
 |     |                       |  
 |     .-----------------------.  
 |    /                       /   
 |   /                       /    
 |  /                       /     
 | /                       /      
 |/                       /       
 *-----------------------*        

Positions:
   0 Li     1.617037    1.617037   10.000000    ( 0.0000,  0.0000,  0.0000)
   1 Li     4.851111    1.617037   10.000000    ( 0.0000,  0.0000,  0.0000)
   2 Li     8.085185    1.617037   10.000000    ( 0.0000,  0.0000,  0.0000)
   3 Li     1.617037    4.851111   10.000000    ( 0.0000,  0.0000,  0.0000)
   4 Li     4.851111    4.851111   10.000000    ( 0.0000,  0.0000,  0.0000)
   5 Li     8.085185    4.851111   10.000000    ( 0.0000,  0.0000,  0.0000)
   6 Li     1.617037    8.085185   10.000000    ( 0.0000,  0.0000,  0.0000)
   7 Li     4.851111    8.085185   10.000000    ( 0.0000,  0.0000,  0.0000)
   8 Li     8.085185    8.085185   10.000000    ( 0.0000,  0.0000,  0.0000)
   9 Li     0.000000    0.000000   11.617037    ( 0.0000,  0.0000,  0.0000)
  10 Li     3.234074    0.000000   11.617037    ( 0.0000,  0.0000,  0.0000)
  11 Li     6.468148    0.000000   11.617037    ( 0.0000,  0.0000,  0.0000)
  12 Li     0.000000    3.234074   11.617037    ( 0.0000,  0.0000,  0.0000)
  13 Li     3.234074    3.234074   11.617037    ( 0.0000,  0.0000,  0.0000)
  14 Li     6.468148    3.234074   11.617037    ( 0.0000,  0.0000,  0.0000)
  15 Li     0.000000    6.468148   11.617037    ( 0.0000,  0.0000,  0.0000)
  16 Li     3.234074    6.468148   11.617037    ( 0.0000,  0.0000,  0.0000)
  17 Li     6.468148    6.468148   11.617037    ( 0.0000,  0.0000,  0.0000)
  18 Li     1.601799    1.600880   13.406128    ( 0.0000,  0.0000,  0.0000)
  19 Li     4.815027    1.625422   13.483649    ( 0.0000,  0.0000,  0.0000)
  20 Li     8.093220    1.602956   13.477120    ( 0.0000,  0.0000,  0.0000)
  21 Li     1.594044    4.837125   13.484249    ( 0.0000,  0.0000,  0.0000)
  22 Li     4.846721    4.863565   13.472616    ( 0.0000,  0.0000,  0.0000)
  23 Li     8.111948    4.818947   13.505865    ( 0.0000,  0.0000,  0.0000)
  24 Li     1.577849    8.099642   13.510092    ( 0.0000,  0.0000,  0.0000)
  25 Li     4.848115    8.073774   13.460969    ( 0.0000,  0.0000,  0.0000)
  26 Li     8.111065    8.095068   13.520843    ( 0.0000,  0.0000,  0.0000)
  27 Li    -0.065310   -0.014401   15.589974    ( 0.0000,  0.0000,  0.0000)
  28 Li     3.264903   -0.056772   15.400675    ( 0.0000,  0.0000,  0.0000)
  29 Li     6.415507    0.008714   15.401119    ( 0.0000,  0.0000,  0.0000)
  30 Li    -0.024804    3.179882   15.511697    ( 0.0000,  0.0000,  0.0000)
  31 Li     3.271086    3.316685   15.462189    ( 0.0000,  0.0000,  0.0000)
  32 Li     6.432876    3.224757   15.385136    ( 0.0000,  0.0000,  0.0000)
  33 Li     0.010513    6.422767   15.470958    ( 0.0000,  0.0000,  0.0000)
  34 Li     3.223901    6.482681   15.408134    ( 0.0000,  0.0000,  0.0000)
  35 Li     6.471559    6.471468   15.430108    ( 0.0000,  0.0000,  0.0000)
  36 O     -0.138815    1.677835   20.393267    ( 0.0000,  0.0000,  0.0000)
  37 C     -1.308966    2.463798   20.111298    ( 0.0000,  0.0000,  0.0000)
  38 C     -2.512682    1.622464   19.701832    ( 0.0000,  0.0000,  0.0000)
  39 H     -1.562197    3.092122   20.974967    ( 0.0000,  0.0000,  0.0000)
  40 H     -1.012632    3.131414   19.299103    ( 0.0000,  0.0000,  0.0000)
  41 H     -3.365007    2.267976   19.468259    ( 0.0000,  0.0000,  0.0000)
  42 H     -2.283532    1.018681   18.820279    ( 0.0000,  0.0000,  0.0000)
  43 H     -2.815384    0.949530   20.510449    ( 0.0000,  0.0000,  0.0000)
  44 H     -0.338692    1.107437   21.145237    ( 0.0000,  0.0000,  0.0000)
  45 N      0.569571    1.416710   16.792042    ( 0.0000,  0.0000,  0.0000)
  46 N      1.038917    2.326456   17.296364    ( 0.0000,  0.0000,  0.0000)

Unit cell:
           periodic     x           y           z      points  spacing
  1. axis:    yes    9.702222    0.000000    0.000000    60     0.1617
  2. axis:    yes    0.000000    9.702222    0.000000    60     0.1617
  3. axis:    no     0.000000    0.000000   26.351111   164     0.1607

  Lengths:   9.702222   9.702222  26.351111
  Angles:   90.000000  90.000000  90.000000

Effective grid spacing dv^(1/3) = 0.1614

     iter     time        total  log10-change:
                         energy  eigst   dens
iter:   1 09:46:15  -558.550398  +1.26
iter:   2 09:47:00   -80.743426  +2.59  -0.02
iter:   3 09:47:45     5.876339  +3.23  -0.15
iter:   4 09:48:30  -139.201645  +3.10  -0.22
iter:   5 09:49:15  -205.990169  +2.81  -0.29
iter:   6 09:50:01  -282.305473  +2.66  -0.58
iter:   7 09:50:46  -322.427960  +2.37  -0.60
iter:   8 09:51:32  -344.911933  +2.12  -0.57
iter:   9 09:52:17  -376.178081  +2.06  -0.56
iter:  10 09:53:02  -354.296353  +1.64  -0.51
iter:  11 09:53:47  -322.947343  +1.50  -0.56
iter:  12 09:54:32  -341.675035  +1.16  -0.74
iter:  13 09:55:17  -323.033497  +1.66  -0.64
iter:  14 09:56:03  -315.988200  +0.70  -0.58
iter:  15 09:56:48  -315.299853  +0.56  -0.71
iter:  16 09:57:33  -314.041555  +0.55  -0.73
iter:  17 09:58:19  -313.681926  -0.07  -0.73
iter:  18 09:59:04  -310.837665  +0.57  -0.80
iter:  19 09:59:50  -310.103521  +0.87  -0.96
iter:  20 10:00:36  -309.810865  +0.58  -0.98
iter:  21 10:01:21  -309.406675  -0.10  -0.99
iter:  22 10:02:07  -308.971342  -0.19  -1.08
iter:  23 10:02:53  -308.980178  +0.04  -1.28
iter:  24 10:03:38  -308.972054c -0.19  -1.40
iter:  25 10:04:24  -308.997089c -0.62  -1.44
iter:  26 10:05:09  -309.053535  -0.06  -1.44
iter:  27 10:05:55  -308.900756  -0.99  -1.34
iter:  28 10:06:40  -308.876849  -0.63  -1.52
iter:  29 10:07:25  -308.846454  -1.23  -1.66
iter:  30 10:08:11  -308.831940  -0.59  -1.68
iter:  31 10:08:56  -308.825050c -1.14  -1.75
iter:  32 10:09:42  -308.807633c -1.05  -1.80
iter:  33 10:10:28  -308.816732c -1.30  -2.08
iter:  34 10:11:13  -308.805337c -1.48  -1.94
iter:  35 10:11:59  -308.808050c -1.24  -2.23
iter:  36 10:12:44  -308.807077c -1.78  -2.33
iter:  37 10:13:29  -308.807131c -1.93  -2.32
iter:  38 10:14:15  -308.807313c -1.91  -2.44
iter:  39 10:15:01  -308.809921c -1.86  -2.47
iter:  40 10:15:46  -308.808542c -2.00  -2.43
iter:  41 10:16:32  -308.809085c -2.25  -2.72
iter:  42 10:17:17  -308.809549c -2.31  -2.73
iter:  43 10:18:02  -308.809827c -2.22  -2.76
iter:  44 10:18:48  -308.809970c -2.28  -2.86
iter:  45 10:19:33  -308.810243c -2.50  -2.89
iter:  46 10:20:19  -308.810645c -2.45  -2.89
iter:  47 10:21:04  -308.810832c -2.60  -2.76
iter:  48 10:21:50  -308.811018c -2.54  -2.74
iter:  49 10:22:35  -308.811239c -2.55  -2.74
iter:  50 10:23:20  -308.811408c -2.59  -2.74
iter:  51 10:24:06  -308.811603c -2.66  -2.85
iter:  52 10:24:51  -308.811732c -2.67  -2.88
iter:  53 10:25:36  -308.811775c -2.84  -2.93
iter:  54 10:26:22  -308.811858c -2.64  -3.09
iter:  55 10:27:07  -308.811930c -2.90  -3.13
iter:  56 10:27:52  -308.811994c -2.70  -3.23
iter:  57 10:28:37  -308.812060c -2.67  -3.25
iter:  58 10:29:23  -308.812124c -2.89  -3.26
iter:  59 10:30:08  -308.812146c -3.09  -3.29
