
  ___ ___ ___ _ _ _  
 |   |   |_  | | | | 
 | | | | | . | | | | 
 |__ |  _|___|_____|  22.8.0
 |___|_|             

User:   vazumah@f007
Date:   Wed Mar  8 12:31:21 2023
Arch:   x86_64
Pid:    49540
CWD:    /home/vazumah/Research_Projects/LiMEAS/LiNRR_proton_donors/on_pure_surface/Li_BCC100/adsorbates/ethanediol_x/bridge/0.0_1.617
Python: 3.10.6
gpaw:   /home/vazumah/anaconda3/envs/NAME/lib/python3.10/site-packages/gpaw
_gpaw:  /home/vazumah/anaconda3/envs/NAME/lib/python3.10/site-packages/
        _gpaw.cpython-310-x86_64-linux-gnu.so
ase:    /home/vazumah/anaconda3/envs/NAME/lib/python3.10/site-packages/ase (version 3.22.1)
numpy:  /home/vazumah/anaconda3/envs/NAME/lib/python3.10/site-packages/numpy (version 1.23.3)
scipy:  /home/vazumah/anaconda3/envs/NAME/lib/python3.10/site-packages/scipy (version 1.9.1)
libxc:  5.2.3
units:  Angstrom and eV
cores: 32
OpenMP: True
OMP_NUM_THREADS: 1

Input parameters:
  h: 0.16
  kpts: {size: [4, 4, 1]}
  occupations: {name: fermi-dirac,
                width: 0.05}
  poissonsolver: {dipolelayer: xy}
  xc: BEEF-vdW

System changes: positions, numbers, cell, pbc, initial_charges, initial_magmoms 

Initialize ...

species:
  Li:
    name: Lithium
    id: 830b4218f175192f93f959cfc0aad614
    Z: 3.0
    valence: 1
    core: 2
    charge: 0.0
    file: /home/vazumah/anaconda3/envs/NAME/share/gpaw/Li.PBE.gz
    compensation charges: {type: gauss,
                           rc: 0.33,
                           lmax: 2}
    cutoffs: {filter: 1.91,
              core: 2.55}
    valence states:
      #              energy  rcut
      - 2s(1.00)    -2.874   1.058
      - 2p(0.00)    -1.090   1.058
      -  s          24.337   1.058
  
    # Using partial waves for Li as LCAO basis

  O:
    name: Oxygen
    id: 32ecd46bf208036f09c70b0ec9a88b78
    Z: 8.0
    valence: 6
    core: 2
    charge: 0.0
    file: /home/vazumah/anaconda3/envs/NAME/share/gpaw/O.PBE.gz
    compensation charges: {type: gauss,
                           rc: 0.21,
                           lmax: 2}
    cutoffs: {filter: 1.17,
              core: 0.83}
    valence states:
      #              energy  rcut
      - 2s(2.00)   -23.961   0.688
      - 2p(4.00)    -9.029   0.598
      -  s           3.251   0.688
      -  p          18.182   0.598
      -  d           0.000   0.619
  
    # Using partial waves for O as LCAO basis

  C:
    name: Carbon
    id: 4aa54d4b901d75f77cc0ea3eec22967b
    Z: 6.0
    valence: 4
    core: 2
    charge: 0.0
    file: /home/vazumah/anaconda3/envs/NAME/share/gpaw/C.PBE.gz
    compensation charges: {type: gauss,
                           rc: 0.20,
                           lmax: 2}
    cutoffs: {filter: 1.14,
              core: 1.14}
    valence states:
      #              energy  rcut
      - 2s(2.00)   -13.751   0.635
      - 2p(2.00)    -5.284   0.635
      -  s          13.461   0.635
      -  p          21.927   0.635
      -  d           0.000   0.635
  
    # Using partial waves for C as LCAO basis

  H:
    name: Hydrogen
    id: d65de229564ff8ea4db303e23b6d1ecf
    Z: 1.0
    valence: 1
    core: 0
    charge: 0.0
    file: /home/vazumah/anaconda3/envs/NAME/share/gpaw/H.PBE.gz
    compensation charges: {type: gauss,
                           rc: 0.15,
                           lmax: 2}
    cutoffs: {filter: 0.85,
              core: 0.53}
    valence states:
      #              energy  rcut
      - 1s(1.00)    -6.494   0.476
      -  s          20.717   0.476
      -  p           0.000   0.476
  
    # Using partial waves for H as LCAO basis

Reference energy: -13512.263335  # eV

Spin-paired calculation

Convergence criteria:
 Maximum [total energy] change in last 3 cyles: 0.0005 eV / electron
 Maximum integral of absolute [dens]ity change: 0.0001 electrons / valence electron
 Maximum integral of absolute [eigenst]ate change: 4e-08 eV^2 / valence electron
 Maximum number of scf [iter]ations: 333
 (Square brackets indicate name in SCF output, whereas a 'c' in
 the SCF output indicates the quantity has converged.)

Symmetries present (total): 1

  ( 1  0  0)
  ( 0  1  0)
  ( 0  0  1)

16 k-points: 4 x 4 x 1 Monkhorst-Pack grid
8 k-points in the irreducible part of the Brillouin zone
       k-points in crystal coordinates                weights
   0:     0.12500000   -0.37500000    0.00000000          2/16
   1:     0.12500000   -0.12500000    0.00000000          2/16
   2:     0.12500000    0.12500000    0.00000000          2/16
   3:     0.12500000    0.37500000    0.00000000          2/16
   4:     0.37500000   -0.37500000    0.00000000          2/16
   5:     0.37500000   -0.12500000    0.00000000          2/16
   6:     0.37500000    0.12500000    0.00000000          2/16
   7:     0.37500000    0.37500000    0.00000000          2/16

Wave functions: Uniform real-space grid
  Kinetic energy operator: 6*3+1=19 point O(h^6) finite-difference Laplacian
  ScaLapack parameters: grid=1x1, blocksize=None
  Wavefunction extrapolation:
    Improved wavefunction reuse through dual PAW basis 

Occupation numbers: Fermi-Dirac:
  width: 0.0500  # eV
 

Eigensolver
   Davidson(niter=2) 

Densities:
  Coarse grid: 60*60*156 grid
  Fine grid: 120*120*312 grid
  Total Charge: 0.000000 

Density mixing:
  Method: separate
  Backend: pulay
  Linear mixing parameter: 0.05
  old densities: 5
  Damping of long wavelength oscillations: 50 

Hamiltonian:
  XC and Coulomb potentials evaluated on a 120*120*312 grid
  Using the BEEF-vdW Exchange-Correlation functional
  Interpolation: tri-quintic (5. degree polynomial)
  Poisson solver: FastPoissonSolver using
    Stencil: 6*3+1=19 point O(h^6) finite-difference Laplacian
    FFT axes: [0, 1]
    FST axes: [2]

Dipole correction along z-axis 

XC parameters: BEEF-vdW with 2 nearest neighbor stencil

Memory estimate:
  Process memory now: 212.02 MiB
  Calculator: 298.81 MiB
    Density: 88.21 MiB
      Arrays: 27.47 MiB
      Localized functions: 50.30 MiB
      Mixer: 10.44 MiB
    Hamiltonian: 21.93 MiB
      Arrays: 17.96 MiB
      XC: 0.00 MiB
      Poisson: 0.00 MiB
      vbar: 3.97 MiB
    Wavefunctions: 188.67 MiB
      Arrays psit_nG: 87.67 MiB
      Eigensolver: 98.38 MiB
      Projections: 0.04 MiB
      Projectors: 2.58 MiB

Total number of cores used: 32
Parallelization over k-points: 8
Domain decomposition: 1 x 1 x 4

Number of atoms: 46
Number of atomic orbitals: 166
Number of bands in calculation: 42
Number of valence electrons: 62
Bands to converge: occupied

... initialized

Initializing position-dependent things.

Density initialized from atomic densities
Creating initial wave functions:
  42 bands from LCAO basis set

       .-----------------------.  
      /|                       |  
     / |                       |  
    /  |                       |  
   /   |                       |  
  /    |                       |  
 *     |                       |  
 |     |                       |  
 |     |                       |  
 |     |                       |  
 |     |                       |  
 |     |              H        |  
 |H    |             C     H   |  
 |O    |           O     C     |  
 |   Li|     Li     HLi  H     |  
 |     |  Li      Li      Li   |  
 | Li  |   Li      Li          |  
 |     |Li      Li      Li     |  
 Li    | Li      Li            |  
 |   LLi     LLi     LLi       |  
 |     |  Li      Li      Li   |  
 | Li  |   Li      Li          |  
 |     |Li      Li      Li     |  
 Li    | Li      Li            |  
 |    Li      Li      Li       |  
 |     |                       |  
 |     |                       |  
 |     |                       |  
 |     |                       |  
 |     |                       |  
 |     |                       |  
 |     .-----------------------.  
 |    /                       /   
 |   /                       /    
 |  /                       /     
 | /                       /      
 |/                       /       
 *-----------------------*        

Positions:
   0 Li     1.617037    1.617037   10.000000    ( 0.0000,  0.0000,  0.0000)
   1 Li     4.851111    1.617037   10.000000    ( 0.0000,  0.0000,  0.0000)
   2 Li     8.085185    1.617037   10.000000    ( 0.0000,  0.0000,  0.0000)
   3 Li     1.617037    4.851111   10.000000    ( 0.0000,  0.0000,  0.0000)
   4 Li     4.851111    4.851111   10.000000    ( 0.0000,  0.0000,  0.0000)
   5 Li     8.085185    4.851111   10.000000    ( 0.0000,  0.0000,  0.0000)
   6 Li     1.617037    8.085185   10.000000    ( 0.0000,  0.0000,  0.0000)
   7 Li     4.851111    8.085185   10.000000    ( 0.0000,  0.0000,  0.0000)
   8 Li     8.085185    8.085185   10.000000    ( 0.0000,  0.0000,  0.0000)
   9 Li     0.000000    0.000000   11.617037    ( 0.0000,  0.0000,  0.0000)
  10 Li     3.234074    0.000000   11.617037    ( 0.0000,  0.0000,  0.0000)
  11 Li     6.468148    0.000000   11.617037    ( 0.0000,  0.0000,  0.0000)
  12 Li     0.000000    3.234074   11.617037    ( 0.0000,  0.0000,  0.0000)
  13 Li     3.234074    3.234074   11.617037    ( 0.0000,  0.0000,  0.0000)
  14 Li     6.468148    3.234074   11.617037    ( 0.0000,  0.0000,  0.0000)
  15 Li     0.000000    6.468148   11.617037    ( 0.0000,  0.0000,  0.0000)
  16 Li     3.234074    6.468148   11.617037    ( 0.0000,  0.0000,  0.0000)
  17 Li     6.468148    6.468148   11.617037    ( 0.0000,  0.0000,  0.0000)
  18 Li     1.617038    1.617038   13.469728    ( 0.0000,  0.0000,  0.0000)
  19 Li     4.851111    1.617038   13.469729    ( 0.0000,  0.0000,  0.0000)
  20 Li     8.085184    1.617038   13.469728    ( 0.0000,  0.0000,  0.0000)
  21 Li     1.617038    4.851111   13.469729    ( 0.0000,  0.0000,  0.0000)
  22 Li     4.851111    4.851111   13.469730    ( 0.0000,  0.0000,  0.0000)
  23 Li     8.085184    4.851111   13.469729    ( 0.0000,  0.0000,  0.0000)
  24 Li     1.617038    8.085184   13.469728    ( 0.0000,  0.0000,  0.0000)
  25 Li     4.851111    8.085184   13.469729    ( 0.0000,  0.0000,  0.0000)
  26 Li     8.085184    8.085184   13.469728    ( 0.0000,  0.0000,  0.0000)
  27 Li    -0.000000   -0.000000   15.445939    ( 0.0000,  0.0000,  0.0000)
  28 Li     3.234074    0.000000   15.445939    ( 0.0000,  0.0000,  0.0000)
  29 Li     6.468148    0.000000   15.445939    ( 0.0000,  0.0000,  0.0000)
  30 Li     0.000000    3.234074   15.445939    ( 0.0000,  0.0000,  0.0000)
  31 Li     3.234076    3.234076   15.445938    ( 0.0000,  0.0000,  0.0000)
  32 Li     6.468146    3.234076   15.445938    ( 0.0000,  0.0000,  0.0000)
  33 Li     0.000000    6.468148   15.445939    ( 0.0000,  0.0000,  0.0000)
  34 Li     3.234076    6.468146   15.445938    ( 0.0000,  0.0000,  0.0000)
  35 Li     6.468146    6.468146   15.445938    ( 0.0000,  0.0000,  0.0000)
  36 O      0.000000    1.617037   18.445939    ( 0.0000,  0.0000,  0.0000)
  37 O     -2.898198    1.661030   18.213250    ( 0.0000,  0.0000,  0.0000)
  38 C     -0.728561    2.788249   18.033562    ( 0.0000,  0.0000,  0.0000)
  39 C     -2.137746    2.801939   18.602713    ( 0.0000,  0.0000,  0.0000)
  40 H     -0.200435    3.702639   18.326395    ( 0.0000,  0.0000,  0.0000)
  41 H     -0.761310    2.740951   16.943996    ( 0.0000,  0.0000,  0.0000)
  42 H     -2.674465    3.676205   18.226232    ( 0.0000,  0.0000,  0.0000)
  43 H     -2.088017    2.877440   19.701774    ( 0.0000,  0.0000,  0.0000)
  44 H      0.169424    1.691552   19.393261    ( 0.0000,  0.0000,  0.0000)
  45 H     -2.318732    0.893910   18.309689    ( 0.0000,  0.0000,  0.0000)

Unit cell:
           periodic     x           y           z      points  spacing
  1. axis:    yes    9.702222    0.000000    0.000000    60     0.1617
  2. axis:    yes    0.000000    9.702222    0.000000    60     0.1617
  3. axis:    no     0.000000    0.000000   24.851111   156     0.1593

  Lengths:   9.702222   9.702222  24.851111
  Angles:   90.000000  90.000000  90.000000

Effective grid spacing dv^(1/3) = 0.1609

     iter     time        total  log10-change:
                         energy  eigst   dens
iter:   1 12:32:44  -486.803822
iter:   2 12:33:40  -127.942689  +2.46  -0.06
iter:   3 12:34:37   -85.016842  +3.25  -0.19
iter:   4 12:35:42  -151.100778  +2.90  -0.22
Writing to output.gpw (mode='')

iter:   5 12:36:37  -228.010263  +2.81  -0.33
iter:   6 12:37:49  -265.944763  +2.75  -0.43
iter:   7 12:38:50  -323.722781  +2.59  -0.60
iter:   8 12:39:51  -337.773742  +2.33  -0.49
iter:   9 12:40:50  -315.338119  +1.99  -0.47
Writing to output.gpw (mode='')

iter:  10 12:41:48  -318.581871  +1.57  -0.52
iter:  11 12:42:47  -404.412096  +2.40  -0.48
iter:  12 12:43:47  -347.559668  +1.47  -0.34
iter:  13 12:44:48  -294.723590  +1.50  -0.38
iter:  14 12:45:48  -295.842407  +0.93  -0.74
Writing to output.gpw (mode='')

iter:  15 12:46:50  -293.528915  +0.60  -0.75
iter:  16 12:47:53  -291.965429  +0.77  -0.82
iter:  17 12:48:51  -290.983946  +0.33  -0.92
iter:  18 12:51:52  -291.982426  +0.59  -1.02
iter:  19 12:57:21  -290.882967  +0.62  -0.98
Writing to output.gpw (mode='')

iter:  20 13:02:39  -290.687163  -0.32  -1.21
iter:  21 13:06:50  -290.789552  +0.10  -1.28
iter:  22 13:11:42  -290.551530  -0.44  -1.29
iter:  23 13:16:46  -290.529577  -0.53  -1.49
iter:  24 13:23:45  -290.499969  -0.71  -1.67
Writing to output.gpw (mode='')

iter:  25 13:31:12  -290.505817c -1.01  -1.83
iter:  26 13:36:52  -290.503071c -1.33  -1.90
iter:  27 13:42:44  -290.511218c -1.18  -1.99
iter:  28 13:49:32  -290.510038c -1.69  -2.14
iter:  29 13:56:04  -290.513638c -1.61  -2.23
Writing to output.gpw (mode='')

iter:  30 14:02:37  -290.515649c -1.81  -2.29
iter:  31 14:09:19  -290.518547c -1.76  -2.37
iter:  32 14:16:28  -290.519234c -1.83  -2.42
iter:  33 14:23:18  -290.520495c -2.14  -2.64
iter:  34 14:26:44  -290.521626c -2.20  -2.68
Writing to output.gpw (mode='')

iter:  35 14:31:40  -290.522791c -2.14  -2.76
iter:  36 14:37:19  -290.523574c -2.35  -2.84
iter:  37 14:43:13  -290.524179c -2.55  -3.05
iter:  38 14:46:23  -290.524716c -2.55  -3.30
iter:  39 14:51:34  -290.525226c -2.51  -3.35
Writing to output.gpw (mode='')

iter:  40 14:55:21  -290.525654c -2.65  -3.36
iter:  41 15:00:34  -290.526031c -2.72  -3.40
iter:  42 15:09:21  -290.526374c -2.80  -3.46
iter:  43 15:15:44  -290.526629c -2.96  -3.54
iter:  44 15:24:38  -290.526825c -3.07  -3.59
Writing to output.gpw (mode='')

iter:  45 15:33:07  -290.527066c -2.84  -3.58
iter:  46 15:40:11  -290.527233c -3.22  -3.49
iter:  47 15:48:24  -290.527356c -3.30  -3.68
iter:  48 15:55:37  -290.527459c -3.43  -3.66
iter:  49 16:01:17  -290.527566c -3.15  -3.62
Writing to output.gpw (mode='')

iter:  50 16:06:08  -290.527657c -3.35  -3.64
iter:  51 16:10:43  -290.527723c -3.53  -3.65
iter:  52 16:16:32  -290.527780c -3.60  -3.62
iter:  53 16:22:32  -290.527840c -3.63  -3.56
iter:  54 16:26:48  -290.527885c -3.75  -3.60
Writing to output.gpw (mode='')

iter:  55 16:31:08  -290.527926c -3.64  -3.57
iter:  56 16:33:48  -290.527955c -3.91  -3.59
iter:  57 16:36:31  -290.527987c -3.86  -3.54
iter:  58 16:39:30  -290.528005c -4.06  -3.55
iter:  59 16:42:16  -290.528041c -4.09  -3.53
Writing to output.gpw (mode='')

iter:  60 16:47:53  -290.528056c -4.14  -3.57
iter:  61 16:51:30  -290.528071c -4.16  -3.52
iter:  62 16:55:03  -290.528082c -4.27  -3.54
iter:  63 16:59:19  -290.528088c -4.18  -3.57
iter:  64 17:04:15  -290.528106c -4.42  -3.57
Writing to output.gpw (mode='')

iter:  65 17:08:18  -290.528103c -4.47  -3.58
iter:  66 17:11:38  -290.528107c -4.36  -3.59
iter:  67 17:14:37  -290.528109c -4.56  -3.65
iter:  68 17:20:28  -290.528116c -4.63  -3.70
iter:  69 17:24:31  -290.528117c -4.41  -3.79
Writing to output.gpw (mode='')

iter:  70 17:27:54  -290.528122c -4.79  -3.94
iter:  71 17:31:19  -290.528125c -4.93  -4.08c
iter:  72 17:36:16  -290.528131c -4.84  -4.15c
iter:  73 17:39:46  -290.528131c -4.95  -4.23c
iter:  74 17:44:11  -290.528133c -4.95  -4.50c
Writing to output.gpw (mode='')

iter:  75 17:48:07  -290.528135c -5.00  -4.57c
iter:  76 17:53:34  -290.528137c -5.07  -4.58c
iter:  77 17:56:09  -290.528139c -5.17  -4.64c
iter:  78 17:58:49  -290.528140c -5.30  -4.76c
iter:  79 18:02:00  -290.528140c -5.20  -4.85c
Writing to output.gpw (mode='')

iter:  80 18:05:06  -290.528141c -5.20  -4.90c
iter:  81 18:09:03  -290.528142c -5.44  -4.96c
iter:  82 18:12:57  -290.528142c -5.48  -5.00c
iter:  83 18:17:02  -290.528142c -5.53  -5.13c
iter:  84 18:21:05  -290.528143c -5.38  -5.17c
Writing to output.gpw (mode='')

iter:  85 18:23:35  -290.528143c -5.63  -5.16c
iter:  86 18:26:12  -290.528143c -5.65  -5.15c
iter:  87 18:28:47  -290.528144c -5.78  -5.08c
iter:  88 18:33:00  -290.528144c -5.93  -5.15c
iter:  89 18:39:01  -290.528144c -5.85  -5.11c
Writing to output.gpw (mode='')

iter:  90 18:47:28  -290.528144c -5.99  -5.13c
iter:  91 18:54:27  -290.528144c -5.89  -5.06c
iter:  92 19:00:16  -290.528144c -6.01  -5.09c
iter:  93 19:04:45  -290.528144c -6.11  -5.14c
iter:  94 19:06:26  -290.528144c -6.16  -5.17c
Writing to output.gpw (mode='')

iter:  95 19:09:12  -290.528144c -6.19  -5.23c
iter:  96 19:12:24  -290.528144c -5.98  -5.32c
iter:  97 19:14:57  -290.528144c -6.34  -5.40c
iter:  98 19:17:53  -290.528144c -6.31  -5.52c
iter:  99 19:20:38  -290.528144c -6.41  -5.59c
Writing to output.gpw (mode='')

iter: 100 19:23:55  -290.528144c -6.39  -5.61c
iter: 101 19:27:17  -290.528144c -6.43  -5.72c
iter: 102 19:31:28  -290.528144c -6.49  -5.74c
iter: 103 19:35:00  -290.528144c -6.51  -5.82c
iter: 104 19:37:34  -290.528144c -6.63  -5.87c
Writing to output.gpw (mode='')

iter: 105 19:39:44  -290.528144c -6.69  -6.09c
iter: 106 19:42:43  -290.528144c -6.70  -6.11c
iter: 107 19:45:23  -290.528144c -6.66  -6.21c
iter: 108 19:48:55  -290.528144c -6.64  -6.26c
iter: 109 19:52:25  -290.528144c -6.84  -6.21c
Writing to output.gpw (mode='')

iter: 110 19:56:33  -290.528144c -6.88  -5.90c
iter: 111 20:00:14  -290.528144c -6.94  -6.43c
iter: 112 20:03:47  -290.528144c -6.95  -6.46c
iter: 113 20:07:09  -290.528144c -7.00  -6.46c
iter: 114 20:12:35  -290.528144c -6.99  -6.37c
Writing to output.gpw (mode='')

iter: 115 20:18:20  -290.528144c -7.03  -6.25c
iter: 116 20:23:00  -290.528144c -7.06  -6.28c
iter: 117 20:27:34  -290.528144c -7.07  -6.28c
iter: 118 20:33:23  -290.528144c -7.15  -6.25c
iter: 119 20:37:17  -290.528144c -7.12  -6.32c
Writing to output.gpw (mode='')

iter: 120 20:42:49  -290.528144c -7.27  -6.57c
iter: 121 20:47:42  -290.528144c -7.28  -6.49c
iter: 122 20:54:06  -290.528144c -7.33  -6.36c
iter: 123 20:58:09  -290.528144c -7.36  -6.20c
iter: 124 21:02:03  -290.528144c -7.41c -6.11c

Converged after 124 iterations.

Dipole moment: (-2.642000, -3.416782, 0.437872) |e|*Ang

Energy contributions relative to reference atoms: (reference = -13512.263335)

Kinetic:       +140.485533
Potential:     -131.491240
External:        +0.000000
XC:            -300.055000
Entropy (-ST):   -0.150705
Local:           +0.607915
--------------------------
Free energy:   -290.603497
Extrapolated:  -290.528144

Dipole-layer corrected work functions: 3.389899, 2.548158 eV

Showing only first 2 kpts
 Kpt  Band  Eigenvalues  Occupancy
  0    29     -3.22247    1.98750
  0    30     -3.13820    1.93436
  0    31     -2.79959    0.06529
  0    32     -2.71742    0.01296

  1    29     -2.99012    1.20788
  1    30     -2.95946    0.90459
  1    31     -2.93490    0.67142
  1    32     -2.91623    0.51617


Fermi level: -2.96903

No gap
Writing to output.gpw (mode='')


Forces in eV/Ang:
  0 Li    0.00738   -0.00003   -0.26979
  1 Li   -0.00782    0.00051   -0.27362
  2 Li    0.00023   -0.00367   -0.26880
  3 Li    0.00190   -0.00163   -0.27006
  4 Li   -0.00071   -0.00101   -0.27257
  5 Li   -0.00134    0.00721   -0.26732
  6 Li   -0.00098    0.00149   -0.27513
  7 Li    0.00203    0.00118   -0.27821
  8 Li   -0.00054   -0.00413   -0.27124
  9 Li    0.00693   -0.00652    0.25740
 10 Li   -0.00209    0.00459    0.25513
 11 Li   -0.00504   -0.00193    0.26001
 12 Li    0.00258    0.00033    0.27037
 13 Li    0.00152    0.00370    0.24613
 14 Li   -0.00307   -0.00366    0.26734
 15 Li   -0.00722    0.00709    0.25683
 16 Li    0.00314   -0.00843    0.26697
 17 Li    0.00401    0.00584    0.25320
 18 Li   -0.00323    0.00684    0.03987
 19 Li   -0.00630    0.00063    0.01359
 20 Li    0.00914   -0.00300   -0.00614
 21 Li   -0.00981   -0.00685    0.05413
 22 Li    0.01015   -0.00678    0.04702
 23 Li   -0.00084   -0.01218    0.06103
 24 Li    0.00468   -0.00023    0.02831
 25 Li   -0.00185    0.00576    0.03780
 26 Li   -0.00324    0.01609    0.05357
 27 Li    0.03822   -0.04968   -0.00903
 28 Li   -0.00707   -0.00427   -0.02741
 29 Li   -0.02667    0.00563   -0.02017
 30 Li    0.30880    0.21180   -0.57277
 31 Li    0.00099    0.01640   -0.03966
 32 Li   -0.08710   -0.01898   -0.08736
 33 Li   -0.01102    0.01332   -0.03648
 34 Li   -0.00147   -0.01177   -0.01492
 35 Li    0.01271    0.00146   -0.02261
 36 O    -0.11443   -0.00678   -0.22798
 37 O    -0.11433   -0.01435   -0.15750
 38 C     0.26147    0.03794    0.75492
 39 C    -0.01557    0.07850    0.00738
 40 H     0.03141    0.05808   -0.04093
 41 H    -0.38277   -0.26534    0.22872
 42 H    -0.02919    0.08739    0.04614
 43 H     0.01108    0.03609   -0.08716
 44 H     0.05906    0.00036    0.01679
 45 H     0.06148   -0.17641    0.05262

System changes: positions 

Initializing position-dependent things.

Density initialized from wave functions
       .-----------------------.  
      /|                       |  
     / |                       |  
    /  |                       |  
   /   |                       |  
  /    |                       |  
 *     |                       |  
 |     |                       |  
 |     |                       |  
 |     |                       |  
 |     |                       |  
 |     |              H        |  
 |H    Li      Li    C     H   |  
 |     |           O     CO    |  
 |     |     Li     HLi  H   Li|  
 |     |  Li      Li      Li   |  
 | Li  |   Li      Li          |  
 |     |Li      Li      Li     |  
 |     |         Li            |  
 |   LLi     LLi     LLi       |  
 |     |  Li      Li      Li   |  
 | Li  |   Li      Li          |  
 |     |Li      Li      Li     |  
 Li    | Li      Li            |  
 |    Li      Li      Li       |  
 |     |                       |  
 |     |                       |  
 |     |                       |  
 |     |                       |  
 |     |                       |  
 |     |                       |  
 |     .-----------------------.  
 |    /                       /   
 |   /                       /    
 |  /                       /     
 | /                       /      
 |/                       /       
 *-----------------------*        

Positions:
   0 Li     1.617037    1.617037   10.000000    ( 0.0000,  0.0000,  0.0000)
   1 Li     4.851111    1.617037   10.000000    ( 0.0000,  0.0000,  0.0000)
   2 Li     8.085185    1.617037   10.000000    ( 0.0000,  0.0000,  0.0000)
   3 Li     1.617037    4.851111   10.000000    ( 0.0000,  0.0000,  0.0000)
   4 Li     4.851111    4.851111   10.000000    ( 0.0000,  0.0000,  0.0000)
   5 Li     8.085185    4.851111   10.000000    ( 0.0000,  0.0000,  0.0000)
   6 Li     1.617037    8.085185   10.000000    ( 0.0000,  0.0000,  0.0000)
   7 Li     4.851111    8.085185   10.000000    ( 0.0000,  0.0000,  0.0000)
   8 Li     8.085185    8.085185   10.000000    ( 0.0000,  0.0000,  0.0000)
   9 Li     0.000000    0.000000   11.617037    ( 0.0000,  0.0000,  0.0000)
  10 Li     3.234074    0.000000   11.617037    ( 0.0000,  0.0000,  0.0000)
  11 Li     6.468148    0.000000   11.617037    ( 0.0000,  0.0000,  0.0000)
  12 Li     0.000000    3.234074   11.617037    ( 0.0000,  0.0000,  0.0000)
  13 Li     3.234074    3.234074   11.617037    ( 0.0000,  0.0000,  0.0000)
  14 Li     6.468148    3.234074   11.617037    ( 0.0000,  0.0000,  0.0000)
  15 Li     0.000000    6.468148   11.617037    ( 0.0000,  0.0000,  0.0000)
  16 Li     3.234074    6.468148   11.617037    ( 0.0000,  0.0000,  0.0000)
  17 Li     6.468148    6.468148   11.617037    ( 0.0000,  0.0000,  0.0000)
  18 Li     1.616992    1.617136   13.470297    ( 0.0000,  0.0000,  0.0000)
  19 Li     4.851021    1.617047   13.469924    ( 0.0000,  0.0000,  0.0000)
  20 Li     8.085314    1.616995   13.469640    ( 0.0000,  0.0000,  0.0000)
  21 Li     1.616898    4.851013   13.470503    ( 0.0000,  0.0000,  0.0000)
  22 Li     4.851256    4.851014   13.470402    ( 0.0000,  0.0000,  0.0000)
  23 Li     8.085172    4.850937   13.470601    ( 0.0000,  0.0000,  0.0000)
  24 Li     1.617105    8.085181   13.470132    ( 0.0000,  0.0000,  0.0000)
  25 Li     4.851085    8.085266   13.470270    ( 0.0000,  0.0000,  0.0000)
  26 Li     8.085138    8.085414   13.470493    ( 0.0000,  0.0000,  0.0000)
  27 Li     0.000546   -0.000710   15.445810    ( 0.0000,  0.0000,  0.0000)
  28 Li     3.233973   -0.000061   15.445547    ( 0.0000,  0.0000,  0.0000)
  29 Li     6.467767    0.000080   15.445651    ( 0.0000,  0.0000,  0.0000)
  30 Li     0.004411    3.237100   15.437756    ( 0.0000,  0.0000,  0.0000)
  31 Li     3.234091    3.234311   15.445372    ( 0.0000,  0.0000,  0.0000)
  32 Li     6.466901    3.233805   15.444690    ( 0.0000,  0.0000,  0.0000)
  33 Li    -0.000157    6.468339   15.445418    ( 0.0000,  0.0000,  0.0000)
  34 Li     3.234055    6.467977   15.445725    ( 0.0000,  0.0000,  0.0000)
  35 Li     6.468327    6.468166   15.445615    ( 0.0000,  0.0000,  0.0000)
  36 O     -0.001635    1.616940   18.442683    ( 0.0000,  0.0000,  0.0000)
  37 O     -2.899831    1.660825   18.211000    ( 0.0000,  0.0000,  0.0000)
  38 C     -0.724826    2.788791   18.044347    ( 0.0000,  0.0000,  0.0000)
  39 C     -2.137969    2.803060   18.602819    ( 0.0000,  0.0000,  0.0000)
  40 H     -0.199986    3.703469   18.325811    ( 0.0000,  0.0000,  0.0000)
  41 H     -0.766778    2.737160   16.947263    ( 0.0000,  0.0000,  0.0000)
  42 H     -2.674882    3.677453   18.226891    ( 0.0000,  0.0000,  0.0000)
  43 H     -2.087858    2.877956   19.700529    ( 0.0000,  0.0000,  0.0000)
  44 H      0.170268    1.691557   19.393500    ( 0.0000,  0.0000,  0.0000)
  45 H     -2.317854    0.891390   18.310441    ( 0.0000,  0.0000,  0.0000)

Unit cell:
           periodic     x           y           z      points  spacing
  1. axis:    yes    9.702222    0.000000    0.000000    60     0.1617
  2. axis:    yes    0.000000    9.702222    0.000000    60     0.1617
  3. axis:    no     0.000000    0.000000   24.851111   156     0.1593

  Lengths:   9.702222   9.702222  24.851111
  Angles:   90.000000  90.000000  90.000000

Effective grid spacing dv^(1/3) = 0.1609

     iter     time        total  log10-change:
                         energy  eigst   dens
iter:   1 21:06:06  -290.549207  -1.97
iter:   2 21:10:19  -290.548273  -2.59  -2.39
iter:   3 21:14:52  -290.547719c -3.26  -2.48
iter:   4 21:19:09  -290.546464c -2.61  -2.64
Writing to output.gpw (mode='')

iter:   5 21:25:14  -290.546327c -3.37  -2.81
iter:   6 21:28:56  -290.546121c -3.14  -2.93
iter:   7 21:33:29  -290.546240c -3.10  -3.09
iter:   8 21:38:45  -290.546111c -3.95  -3.10
iter:   9 21:43:53  -290.546102c -4.26  -3.31
Writing to output.gpw (mode='')

iter:  10 21:48:02  -290.546107c -4.39  -3.40
iter:  11 21:52:51  -290.546096c -4.55  -3.62
iter:  12 21:56:19  -290.546099c -5.42  -3.73
iter:  13 22:01:39  -290.546096c -5.66  -3.79
iter:  14 22:07:07  -290.546102c -5.12  -3.84
Writing to output.gpw (mode='')

iter:  15 22:12:50  -290.546096c -5.17  -3.86
iter:  16 22:17:20  -290.546096c -6.15  -3.98
iter:  17 22:21:54  -290.546095c -5.82  -4.04c
iter:  18 22:26:15  -290.546092c -5.61  -4.12c
iter:  19 22:30:47  -290.546092c -6.16  -4.38c
Writing to output.gpw (mode='')

iter:  20 22:35:48  -290.546094c -6.59  -4.40c
iter:  21 22:40:54  -290.546095c -6.26  -4.57c
iter:  22 22:46:29  -290.546094c -6.79  -4.68c
iter:  23 22:51:42  -290.546094c -7.23  -4.71c
iter:  24 22:57:36  -290.546094c -7.22  -4.78c
Writing to output.gpw (mode='')

iter:  25 23:03:30  -290.546094c -7.52c -4.92c

Converged after 25 iterations.

Dipole moment: (-2.544939, -3.413568, 0.438463) |e|*Ang

Energy contributions relative to reference atoms: (reference = -13512.263335)

Kinetic:       +140.245003
Potential:     -131.340734
External:        +0.000000
XC:            -299.982381
Entropy (-ST):   -0.150715
Local:           +0.607375
--------------------------
Free energy:   -290.621452
Extrapolated:  -290.546094

Dipole-layer corrected work functions: 3.389578, 2.546702 eV

Showing only first 2 kpts
 Kpt  Band  Eigenvalues  Occupancy
  0    29     -3.22175    1.98754
  0    30     -3.13729    1.93434
  0    31     -2.79873    0.06534
  0    32     -2.71659    0.01298

  1    29     -2.98931    1.20863
  1    30     -2.95836    0.90251
  1    31     -2.93451    0.67588
  1    32     -2.91545    0.51698


Fermi level: -2.96814

No gap

Forces in eV/Ang:
  0 Li    0.00738    0.00009   -0.26999
  1 Li   -0.00782    0.00060   -0.27361
  2 Li    0.00027   -0.00370   -0.26912
  3 Li    0.00190   -0.00169   -0.27039
  4 Li   -0.00081   -0.00119   -0.27250
  5 Li   -0.00127    0.00722   -0.26762
  6 Li   -0.00116    0.00141   -0.27503
  7 Li    0.00206    0.00116   -0.27815
  8 Li   -0.00050   -0.00407   -0.27122
  9 Li    0.00708   -0.00673    0.25796
 10 Li   -0.00218    0.00444    0.25542
 11 Li   -0.00510   -0.00207    0.26056
 12 Li    0.00280    0.00060    0.27143
 13 Li    0.00116    0.00387    0.24675
 14 Li   -0.00312   -0.00353    0.26809
 15 Li   -0.00739    0.00684    0.25771
 16 Li    0.00339   -0.00835    0.26757
 17 Li    0.00401    0.00585    0.25381
 18 Li   -0.00167    0.00512    0.03645
 19 Li   -0.00664    0.00035    0.01240
 20 Li    0.00880   -0.00347   -0.00720
 21 Li   -0.00750   -0.00447    0.04982
 22 Li    0.00995   -0.00630    0.04553
 23 Li   -0.00206   -0.01065    0.05689
 24 Li    0.00479   -0.00018    0.02742
 25 Li   -0.00180    0.00563    0.03671
 26 Li   -0.00327    0.01575    0.05221
 27 Li    0.03720   -0.04687   -0.00792
 28 Li   -0.00675   -0.00425   -0.02703
 29 Li   -0.02620    0.00596   -0.01816
 30 Li    0.28754    0.19826   -0.53050
 31 Li    0.00195    0.01629   -0.03899
 32 Li   -0.08226   -0.01988   -0.08292
 33 Li   -0.01024    0.01426   -0.03570
 34 Li   -0.00184   -0.01190   -0.01431
 35 Li    0.01201    0.00210   -0.02215
 36 O    -0.02379   -0.02279    0.10144
 37 O     0.04908   -0.09043   -0.12304
 38 C     0.02777   -0.03135    0.17701
 39 C    -0.02195    0.04214    0.06237
 40 H     0.10892    0.14476    0.03537
 41 H    -0.33345   -0.20005    0.39255
 42 H    -0.01035    0.08447    0.03605
 43 H    -0.03424    0.02839   -0.03128
 44 H     0.05485   -0.06710   -0.15172
 45 H    -0.04285   -0.04032    0.03083

System changes: positions 

Initializing position-dependent things.

Density initialized from wave functions
       .-----------------------.  
      /|                       |  
     / |                       |  
    /  |                       |  
   /   |                       |  
  /    |                       |  
 *     |                       |  
 |     |                       |  
 |     |                       |  
 |     |                       |  
 |     |                       |  
 |     |              H        |  
 |H    Li      Li    C     H   |  
 |     |           O     CO    |  
 |     |     Li     HLi  H   Li|  
 |     |  Li      Li      Li   |  
 | Li  |   Li      Li          |  
 |     |Li      Li      Li     |  
 |     |         Li            |  
 |   LLi     LLi     LLi       |  
 |     |  Li      Li      Li   |  
 | Li  |   Li      Li          |  
 |     |Li      Li      Li     |  
 Li    | Li      Li            |  
 |    Li      Li      Li       |  
 |     |                       |  
 |     |                       |  
 |     |                       |  
 |     |                       |  
 |     |                       |  
 |     |                       |  
 |     .-----------------------.  
 |    /                       /   
 |   /                       /    
 |  /                       /     
 | /                       /      
 |/                       /       
 *-----------------------*        

Positions:
   0 Li     1.617037    1.617037   10.000000    ( 0.0000,  0.0000,  0.0000)
   1 Li     4.851111    1.617037   10.000000    ( 0.0000,  0.0000,  0.0000)
   2 Li     8.085185    1.617037   10.000000    ( 0.0000,  0.0000,  0.0000)
   3 Li     1.617037    4.851111   10.000000    ( 0.0000,  0.0000,  0.0000)
   4 Li     4.851111    4.851111   10.000000    ( 0.0000,  0.0000,  0.0000)
   5 Li     8.085185    4.851111   10.000000    ( 0.0000,  0.0000,  0.0000)
   6 Li     1.617037    8.085185   10.000000    ( 0.0000,  0.0000,  0.0000)
   7 Li     4.851111    8.085185   10.000000    ( 0.0000,  0.0000,  0.0000)
   8 Li     8.085185    8.085185   10.000000    ( 0.0000,  0.0000,  0.0000)
   9 Li     0.000000    0.000000   11.617037    ( 0.0000,  0.0000,  0.0000)
  10 Li     3.234074    0.000000   11.617037    ( 0.0000,  0.0000,  0.0000)
  11 Li     6.468148    0.000000   11.617037    ( 0.0000,  0.0000,  0.0000)
  12 Li     0.000000    3.234074   11.617037    ( 0.0000,  0.0000,  0.0000)
  13 Li     3.234074    3.234074   11.617037    ( 0.0000,  0.0000,  0.0000)
  14 Li     6.468148    3.234074   11.617037    ( 0.0000,  0.0000,  0.0000)
  15 Li     0.000000    6.468148   11.617037    ( 0.0000,  0.0000,  0.0000)
  16 Li     3.234074    6.468148   11.617037    ( 0.0000,  0.0000,  0.0000)
  17 Li     6.468148    6.468148   11.617037    ( 0.0000,  0.0000,  0.0000)
  18 Li     1.616876    1.617435   13.472259    ( 0.0000,  0.0000,  0.0000)
  19 Li     4.850681    1.617071   13.470592    ( 0.0000,  0.0000,  0.0000)
  20 Li     8.085779    1.616823   13.469285    ( 0.0000,  0.0000,  0.0000)
  21 Li     1.616465    4.850736   13.473178    ( 0.0000,  0.0000,  0.0000)
  22 Li     4.851778    4.850677   13.472801    ( 0.0000,  0.0000,  0.0000)
  23 Li     8.085087    4.850354   13.473641    ( 0.0000,  0.0000,  0.0000)
  24 Li     1.617352    8.085170   13.471577    ( 0.0000,  0.0000,  0.0000)
  25 Li     4.850990    8.085562   13.472202    ( 0.0000,  0.0000,  0.0000)
  26 Li     8.084968    8.086240   13.473238    ( 0.0000,  0.0000,  0.0000)
  27 Li     0.002502   -0.003203   15.445377    ( 0.0000,  0.0000,  0.0000)
  28 Li     3.233615   -0.000283   15.444132    ( 0.0000,  0.0000,  0.0000)
  29 Li     6.466394    0.000384   15.444667    ( 0.0000,  0.0000,  0.0000)
  30 Li     0.019783    3.247678   15.409339    ( 0.0000,  0.0000,  0.0000)
  31 Li     3.234174    3.235161   15.443328    ( 0.0000,  0.0000,  0.0000)
  32 Li     6.462527    3.232787   15.440289    ( 0.0000,  0.0000,  0.0000)
  33 Li    -0.000705    6.469064   15.443544    ( 0.0000,  0.0000,  0.0000)
  34 Li     3.233966    6.467360   15.444968    ( 0.0000,  0.0000,  0.0000)
  35 Li     6.468966    6.468264   15.444453    ( 0.0000,  0.0000,  0.0000)
  36 O     -0.004564    1.616052   18.441821    ( 0.0000,  0.0000,  0.0000)
  37 O     -2.900323    1.657535   18.203949    ( 0.0000,  0.0000,  0.0000)
  38 C     -0.719020    2.788451   18.064346    ( 0.0000,  0.0000,  0.0000)
  39 C     -2.138993    2.805933   18.605041    ( 0.0000,  0.0000,  0.0000)
  40 H     -0.195759    3.709392   18.326229    ( 0.0000,  0.0000,  0.0000)
  41 H     -0.785064    2.725523   16.964652    ( 0.0000,  0.0000,  0.0000)
  42 H     -2.675772    3.681907   18.228957    ( 0.0000,  0.0000,  0.0000)
  43 H     -2.088796    2.879578   19.697857    ( 0.0000,  0.0000,  0.0000)
  44 H      0.173203    1.689321   19.388742    ( 0.0000,  0.0000,  0.0000)
  45 H     -2.318139    0.886751   18.312453    ( 0.0000,  0.0000,  0.0000)

Unit cell:
           periodic     x           y           z      points  spacing
  1. axis:    yes    9.702222    0.000000    0.000000    60     0.1617
  2. axis:    yes    0.000000    9.702222    0.000000    60     0.1617
  3. axis:    no     0.000000    0.000000   24.851111   156     0.1593

  Lengths:   9.702222   9.702222  24.851111
  Angles:   90.000000  90.000000  90.000000

Effective grid spacing dv^(1/3) = 0.1609

     iter     time        total  log10-change:
                         energy  eigst   dens
iter:   1 23:09:17  -290.587761  -1.32
iter:   2 23:16:24  -290.586957  -2.09  -2.23
iter:   3 23:22:16  -290.583550c -2.61  -2.32
iter:   4 23:26:49  -290.580949c -1.99  -2.40
Writing to output.gpw (mode='')

iter:   5 23:33:43  -290.580266c -3.12  -2.46
iter:   6 23:37:39  -290.579598c -2.73  -2.74
iter:   7 23:41:36  -290.580077c -2.47  -2.82
iter:   8 23:47:33  -290.579713c -3.53  -2.72
iter:   9 23:50:55  -290.579444c -2.99  -2.82
Writing to output.gpw (mode='')

iter:  10 23:55:09  -290.579389c -4.09  -3.00
iter:  11 23:59:03  -290.579425c -3.72  -3.13
iter:  12 00:02:54  -290.579391c -4.27  -3.25
iter:  13 00:07:17  -290.579413c -3.89  -3.36
iter:  14 00:11:32  -290.579407c -4.13  -3.35
Writing to output.gpw (mode='')

iter:  15 00:15:33  -290.579406c -4.98  -3.56
iter:  16 00:20:03  -290.579395c -5.17  -3.63
iter:  17 00:22:48  -290.579390c -4.77  -3.77
iter:  18 00:25:22  -290.579393c -5.34  -3.88
iter:  19 00:28:11  -290.579392c -5.81  -4.03c
Writing to output.gpw (mode='')

iter:  20 00:30:43  -290.579386c -5.35  -4.12c
iter:  21 00:34:36  -290.579387c -6.39  -4.21c
iter:  22 00:39:17  -290.579390c -5.77  -4.34c
iter:  23 00:43:38  -290.579388c -6.53  -4.41c
iter:  24 00:49:11  -290.579387c -6.38  -4.64c
Writing to output.gpw (mode='')

iter:  25 00:52:33  -290.579388c -6.73  -4.65c
iter:  26 00:56:11  -290.579388c -7.17  -4.78c
iter:  27 01:00:21  -290.579388c -7.10  -4.91c
iter:  28 01:04:59  -290.579388c -7.49c -5.01c

Converged after 28 iterations.

Dipole moment: (-2.493092, -3.387069, 0.437795) |e|*Ang

Energy contributions relative to reference atoms: (reference = -13512.263335)

Kinetic:       +140.418100
Potential:     -131.507881
External:        +0.000000
XC:            -300.020870
Entropy (-ST):   -0.150671
Local:           +0.606598
--------------------------
Free energy:   -290.654724
Extrapolated:  -290.579388

Dipole-layer corrected work functions: 3.388998, 2.547406 eV

Showing only first 2 kpts
 Kpt  Band  Eigenvalues  Occupancy
  0    29     -3.22232    1.98767
  0    30     -3.13743    1.93443
  0    31     -2.79837    0.06480
  0    32     -2.71701    0.01307

  1    29     -2.98902    1.20521
  1    30     -2.95787    0.89704
  1    31     -2.93573    0.68623
  1    32     -2.91583    0.51943


Fermi level: -2.96820

No gap
Writing to output.gpw (mode='')


Forces in eV/Ang:
  0 Li    0.00742    0.00038   -0.27064
  1 Li   -0.00790    0.00081   -0.27376
  2 Li    0.00036   -0.00373   -0.27006
  3 Li    0.00190   -0.00176   -0.27141
  4 Li   -0.00103   -0.00158   -0.27242
  5 Li   -0.00107    0.00725   -0.26861
  6 Li   -0.00156    0.00117   -0.27483
  7 Li    0.00199    0.00103   -0.27814
  8 Li   -0.00037   -0.00403   -0.27133
  9 Li    0.00771   -0.00715    0.25995
 10 Li   -0.00248    0.00365    0.25634
 11 Li   -0.00536   -0.00245    0.26237
 12 Li    0.00353    0.00152    0.27506
 13 Li   -0.00015    0.00454    0.24915
 14 Li   -0.00318   -0.00303    0.27055
 15 Li   -0.00790    0.00580    0.26088
 16 Li    0.00415   -0.00803    0.26934
 17 Li    0.00395    0.00581    0.25602
 18 Li    0.00342   -0.00084    0.02525
 19 Li   -0.00759   -0.00076    0.00867
 20 Li    0.00772   -0.00480   -0.00990
 21 Li    0.00084    0.00411    0.03445
 22 Li    0.00891   -0.00447    0.04014
 23 Li   -0.00611   -0.00603    0.04430
 24 Li    0.00506   -0.00021    0.02430
 25 Li   -0.00162    0.00509    0.03310
 26 Li   -0.00333    0.01486    0.04765
 27 Li    0.03471   -0.03910   -0.00521
 28 Li   -0.00584   -0.00366   -0.02556
 29 Li   -0.02494    0.00687   -0.01289
 30 Li    0.22032    0.15439   -0.40530
 31 Li    0.00488    0.01542   -0.03659
 32 Li   -0.07044   -0.02112   -0.07250
 33 Li   -0.00830    0.01637   -0.03297
 34 Li   -0.00290   -0.01223   -0.01253
 35 Li    0.01023    0.00332   -0.02039
 36 O     0.04748   -0.08710    0.20893
 37 O     0.21007    0.00718   -0.04841
 38 C    -0.29707    0.02874   -0.43882
 39 C    -0.03448   -0.06288    0.07428
 40 H     0.13885    0.11212    0.09537
 41 H    -0.18384   -0.06594    0.34951
 42 H     0.03280    0.03445    0.02430
 43 H    -0.13238    0.00361    0.13763
 44 H     0.12193   -0.13521    0.00405
 45 H    -0.09298    0.05377    0.01714

System changes: positions 

Initializing position-dependent things.

Density initialized from wave functions
       .-----------------------.  
      /|                       |  
     / |                       |  
    /  |                       |  
   /   |                       |  
  /    |                       |  
 *     |                       |  
 |     |                       |  
 |     |                       |  
 |     |                       |  
 |     |                       |  
 |     |              H        |  
 |H    Li      Li    C     H   |  
 |     |           O     CO    |  
 |     |     Li     HLi  H   Li|  
 |     |  Li      Li      Li   |  
 | Li  |   Li      Li          |  
 |     |Li      Li      Li     |  
 |     |         Li            |  
 |   LLi     LLi     LLi       |  
 |     |  Li      Li      Li   |  
 | Li  |   Li      Li          |  
 |     |Li      Li      Li     |  
 Li    | Li      Li            |  
 |    Li      Li      Li       |  
 |     |                       |  
 |     |                       |  
 |     |                       |  
 |     |                       |  
 |     |                       |  
 |     |                       |  
 |     .-----------------------.  
 |    /                       /   
 |   /                       /    
 |  /                       /     
 | /                       /      
 |/                       /       
 *-----------------------*        

Positions:
   0 Li     1.617037    1.617037   10.000000    ( 0.0000,  0.0000,  0.0000)
   1 Li     4.851111    1.617037   10.000000    ( 0.0000,  0.0000,  0.0000)
   2 Li     8.085185    1.617037   10.000000    ( 0.0000,  0.0000,  0.0000)
   3 Li     1.617037    4.851111   10.000000    ( 0.0000,  0.0000,  0.0000)
   4 Li     4.851111    4.851111   10.000000    ( 0.0000,  0.0000,  0.0000)
   5 Li     8.085185    4.851111   10.000000    ( 0.0000,  0.0000,  0.0000)
   6 Li     1.617037    8.085185   10.000000    ( 0.0000,  0.0000,  0.0000)
   7 Li     4.851111    8.085185   10.000000    ( 0.0000,  0.0000,  0.0000)
   8 Li     8.085185    8.085185   10.000000    ( 0.0000,  0.0000,  0.0000)
   9 Li     0.000000    0.000000   11.617037    ( 0.0000,  0.0000,  0.0000)
  10 Li     3.234074    0.000000   11.617037    ( 0.0000,  0.0000,  0.0000)
  11 Li     6.468148    0.000000   11.617037    ( 0.0000,  0.0000,  0.0000)
  12 Li     0.000000    3.234074   11.617037    ( 0.0000,  0.0000,  0.0000)
  13 Li     3.234074    3.234074   11.617037    ( 0.0000,  0.0000,  0.0000)
  14 Li     6.468148    3.234074   11.617037    ( 0.0000,  0.0000,  0.0000)
  15 Li     0.000000    6.468148   11.617037    ( 0.0000,  0.0000,  0.0000)
  16 Li     3.234074    6.468148   11.617037    ( 0.0000,  0.0000,  0.0000)
  17 Li     6.468148    6.468148   11.617037    ( 0.0000,  0.0000,  0.0000)
  18 Li     1.616846    1.617677   13.474506    ( 0.0000,  0.0000,  0.0000)
  19 Li     4.850226    1.617075   13.471359    ( 0.0000,  0.0000,  0.0000)
  20 Li     8.086348    1.616573   13.468769    ( 0.0000,  0.0000,  0.0000)
  21 Li     1.616106    4.850583   13.476238    ( 0.0000,  0.0000,  0.0000)
  22 Li     4.852420    4.850289   13.475741    ( 0.0000,  0.0000,  0.0000)
  23 Li     8.084884    4.849716   13.477235    ( 0.0000,  0.0000,  0.0000)
  24 Li     1.617674    8.085156   13.473351    ( 0.0000,  0.0000,  0.0000)
  25 Li     4.850873    8.085927   13.474587    ( 0.0000,  0.0000,  0.0000)
  26 Li     8.084749    8.087276   13.476639    ( 0.0000,  0.0000,  0.0000)
  27 Li     0.004946   -0.006211   15.444886    ( 0.0000,  0.0000,  0.0000)
  28 Li     3.233179   -0.000552   15.442359    ( 0.0000,  0.0000,  0.0000)
  29 Li     6.464668    0.000794   15.443532    ( 0.0000,  0.0000,  0.0000)
  30 Li     0.037867    3.260176   15.375921    ( 0.0000,  0.0000,  0.0000)
  31 Li     3.234349    3.236228   15.440773    ( 0.0000,  0.0000,  0.0000)
  32 Li     6.457207    3.231458   15.434902    ( 0.0000,  0.0000,  0.0000)
  33 Li    -0.001361    6.470039   15.441213    ( 0.0000,  0.0000,  0.0000)
  34 Li     3.233828    6.466563   15.444042    ( 0.0000,  0.0000,  0.0000)
  35 Li     6.469741    6.468416   15.443009    ( 0.0000,  0.0000,  0.0000)
  36 O     -0.006897    1.613405   18.442154    ( 0.0000,  0.0000,  0.0000)
  37 O     -2.897614    1.655985   18.196635    ( 0.0000,  0.0000,  0.0000)
  38 C     -0.718683    2.789732   18.076965    ( 0.0000,  0.0000,  0.0000)
  39 C     -2.140585    2.807174   18.607974    ( 0.0000,  0.0000,  0.0000)
  40 H     -0.189906    3.715852   18.327954    ( 0.0000,  0.0000,  0.0000)
  41 H     -0.804964    2.713687   16.985235    ( 0.0000,  0.0000,  0.0000)
  42 H     -2.675925    3.686389   18.231347    ( 0.0000,  0.0000,  0.0000)
  43 H     -2.092226    2.881075   19.698363    ( 0.0000,  0.0000,  0.0000)
  44 H      0.178607    1.685044   19.387069    ( 0.0000,  0.0000,  0.0000)
  45 H     -2.319351    0.882628   18.314770    ( 0.0000,  0.0000,  0.0000)

Unit cell:
           periodic     x           y           z      points  spacing
  1. axis:    yes    9.702222    0.000000    0.000000    60     0.1617
  2. axis:    yes    0.000000    9.702222    0.000000    60     0.1617
  3. axis:    no     0.000000    0.000000   24.851111   156     0.1593

  Lengths:   9.702222   9.702222  24.851111
  Angles:   90.000000  90.000000  90.000000

Effective grid spacing dv^(1/3) = 0.1609

     iter     time        total  log10-change:
                         energy  eigst   dens
iter:   1 01:08:21  -290.609034  -1.38
iter:   2 01:11:35  -290.608205  -2.14  -2.23
iter:   3 01:14:35  -290.605485c -2.71  -2.32
iter:   4 01:18:12  -290.603545c -2.26  -2.41
Writing to output.gpw (mode='')

iter:   5 01:21:47  -290.603537c -3.17  -2.58
iter:   6 01:25:57  -290.602780c -2.80  -2.68
iter:   7 01:28:22  -290.602851c -2.64  -2.81
iter:   8 01:32:08  -290.602604c -3.33  -2.86
iter:   9 01:36:07  -290.602666c -3.52  -3.12
Writing to output.gpw (mode='')

iter:  10 01:41:34  -290.602596c -4.28  -3.14
iter:  11 01:44:52  -290.602608c -4.08  -3.27
iter:  12 01:47:49  -290.602603c -4.37  -3.51
iter:  13 01:51:40  -290.602602c -4.81  -3.55
iter:  14 01:54:30  -290.602595c -4.74  -3.65
Writing to output.gpw (mode='')

iter:  15 01:57:15  -290.602588c -5.29  -3.67
iter:  16 02:00:07  -290.602587c -4.98  -3.85
iter:  17 02:03:10  -290.602587c -5.89  -3.98
iter:  18 02:06:32  -290.602591c -5.47  -4.05c
iter:  19 02:09:51  -290.602590c -5.63  -4.11c
Writing to output.gpw (mode='')

iter:  20 02:13:07  -290.602589c -6.18  -4.39c
iter:  21 02:17:00  -290.602588c -5.95  -4.44c
iter:  22 02:20:30  -290.602588c -6.32  -4.55c
iter:  23 02:25:12  -290.602588c -6.43  -4.70c
iter:  24 02:30:07  -290.602589c -6.70  -4.75c
Writing to output.gpw (mode='')

iter:  25 02:35:49  -290.602589c -6.66  -4.83c
iter:  26 02:39:13  -290.602589c -6.83  -5.01c
iter:  27 02:42:46  -290.602589c -7.05  -5.18c
iter:  28 02:46:14  -290.602589c -7.12  -5.20c
iter:  29 02:49:37  -290.602589c -7.23  -5.26c
Writing to output.gpw (mode='')

iter:  30 02:56:02  -290.602589c -7.27  -5.32c
iter:  31 03:00:32  -290.602589c -7.52c -5.39c

Converged after 31 iterations.

Dipole moment: (-2.586075, -3.349773, 0.434585) |e|*Ang

Energy contributions relative to reference atoms: (reference = -13512.263335)

Kinetic:       +140.530283
Potential:     -131.616303
External:        +0.000000
XC:            -300.047184
Entropy (-ST):   -0.150557
Local:           +0.605894
--------------------------
Free energy:   -290.677868
Extrapolated:  -290.602589

Dipole-layer corrected work functions: 3.388579, 2.553157 eV

Showing only first 2 kpts
 Kpt  Band  Eigenvalues  Occupancy
  0    29     -3.22559    1.98781
  0    30     -3.14030    1.93469
  0    31     -2.80003    0.06355
  0    32     -2.72025    0.01322

  1    29     -2.99109    1.19949
  1    30     -2.96003    0.89208
  1    31     -2.93928    0.69426
  1    32     -2.91861    0.52033


Fermi level: -2.97087

No gap
Writing to output.gpw (mode='')


Forces in eV/Ang:
  0 Li    0.00746    0.00076   -0.27143
  1 Li   -0.00795    0.00103   -0.27397
  2 Li    0.00043   -0.00373   -0.27118
  3 Li    0.00180   -0.00190   -0.27252
  4 Li   -0.00114   -0.00214   -0.27237
  5 Li   -0.00083    0.00726   -0.26980
  6 Li   -0.00212    0.00096   -0.27464
  7 Li    0.00204    0.00099   -0.27824
  8 Li   -0.00027   -0.00398   -0.27147
  9 Li    0.00844   -0.00777    0.26215
 10 Li   -0.00269    0.00272    0.25748
 11 Li   -0.00571   -0.00299    0.26418
 12 Li    0.00439    0.00265    0.27907
 13 Li   -0.00161    0.00534    0.25206
 14 Li   -0.00334   -0.00242    0.27319
 15 Li   -0.00856    0.00463    0.26464
 16 Li    0.00502   -0.00770    0.27147
 17 Li    0.00392    0.00593    0.25877
 18 Li    0.00936   -0.00802    0.01200
 19 Li   -0.00855   -0.00216    0.00430
 20 Li    0.00647   -0.00627   -0.01245
 21 Li    0.01140    0.01498    0.01547
 22 Li    0.00742   -0.00215    0.03328
 23 Li   -0.01088   -0.00070    0.03006
 24 Li    0.00538   -0.00039    0.02035
 25 Li   -0.00146    0.00433    0.02878
 26 Li   -0.00336    0.01389    0.04181
 27 Li    0.03209   -0.03036   -0.00081
 28 Li   -0.00469   -0.00287   -0.02332
 29 Li   -0.02371    0.00707   -0.00835
 30 Li    0.15586    0.11229   -0.29123
 31 Li    0.00797    0.01408   -0.03312
 32 Li   -0.05906   -0.02128   -0.06248
 33 Li   -0.00619    0.01807   -0.02946
 34 Li   -0.00403   -0.01237   -0.01040
 35 Li    0.00823    0.00439   -0.01786
 36 O     0.05966   -0.06942    0.29690
 37 O     0.23698    0.06474   -0.00079
 38 C    -0.33221    0.07799   -0.53460
 39 C    -0.04490   -0.05787    0.11382
 40 H     0.06635   -0.02973    0.07728
 41 H    -0.04754    0.03719    0.05852
 42 H     0.06169   -0.03357    0.02702
 43 H    -0.19706   -0.02426    0.22483
 44 H     0.14353   -0.16640    0.04588
 45 H    -0.09721    0.10798    0.01404

System changes: positions 

Initializing position-dependent things.

Density initialized from wave functions
       .-----------------------.  
      /|                       |  
     / |                       |  
    /  |                       |  
   /   |                       |  
  /    |                       |  
 *     |                       |  
 |     |                       |  
 |     |                       |  
 |     |                       |  
 |     |                       |  
 |     |              H        |  
 |H    Li      Li    C     H   |  
 |     |           O     CO    |  
 |     |     Li     HLi  H   Li|  
 |     |  Li      Li      Li   |  
 | Li  |   Li      Li          |  
 |     |Li      Li      Li     |  
 |     |         Li            |  
 |   LLi     LLi     LLi       |  
 |     |  Li      Li      Li   |  
 | Li  |   Li      Li          |  
 |     |Li      Li      Li     |  
 Li    | Li      Li            |  
 |    Li      Li      Li       |  
 |     |                       |  
 |     |                       |  
 |     |                       |  
 |     |                       |  
 |     |                       |  
 |     |                       |  
 |     .-----------------------.  
 |    /                       /   
 |   /                       /    
 |  /                       /     
 | /                       /      
 |/                       /       
 *-----------------------*        

Positions:
   0 Li     1.617037    1.617037   10.000000    ( 0.0000,  0.0000,  0.0000)
   1 Li     4.851111    1.617037   10.000000    ( 0.0000,  0.0000,  0.0000)
   2 Li     8.085185    1.617037   10.000000    ( 0.0000,  0.0000,  0.0000)
   3 Li     1.617037    4.851111   10.000000    ( 0.0000,  0.0000,  0.0000)
   4 Li     4.851111    4.851111   10.000000    ( 0.0000,  0.0000,  0.0000)
   5 Li     8.085185    4.851111   10.000000    ( 0.0000,  0.0000,  0.0000)
   6 Li     1.617037    8.085185   10.000000    ( 0.0000,  0.0000,  0.0000)
   7 Li     4.851111    8.085185   10.000000    ( 0.0000,  0.0000,  0.0000)
   8 Li     8.085185    8.085185   10.000000    ( 0.0000,  0.0000,  0.0000)
   9 Li     0.000000    0.000000   11.617037    ( 0.0000,  0.0000,  0.0000)
  10 Li     3.234074    0.000000   11.617037    ( 0.0000,  0.0000,  0.0000)
  11 Li     6.468148    0.000000   11.617037    ( 0.0000,  0.0000,  0.0000)
  12 Li     0.000000    3.234074   11.617037    ( 0.0000,  0.0000,  0.0000)
  13 Li     3.234074    3.234074   11.617037    ( 0.0000,  0.0000,  0.0000)
  14 Li     6.468148    3.234074   11.617037    ( 0.0000,  0.0000,  0.0000)
  15 Li     0.000000    6.468148   11.617037    ( 0.0000,  0.0000,  0.0000)
  16 Li     3.234074    6.468148   11.617037    ( 0.0000,  0.0000,  0.0000)
  17 Li     6.468148    6.468148   11.617037    ( 0.0000,  0.0000,  0.0000)
  18 Li     1.617006    1.617717   13.476585    ( 0.0000,  0.0000,  0.0000)
  19 Li     4.849685    1.617035   13.472073    ( 0.0000,  0.0000,  0.0000)
  20 Li     8.086942    1.616246   13.468107    ( 0.0000,  0.0000,  0.0000)
  21 Li     1.616040    4.850756   13.479045    ( 0.0000,  0.0000,  0.0000)
  22 Li     4.853091    4.849930   13.478804    ( 0.0000,  0.0000,  0.0000)
  23 Li     8.084504    4.849177   13.480779    ( 0.0000,  0.0000,  0.0000)
  24 Li     1.618044    8.085136   13.475204    ( 0.0000,  0.0000,  0.0000)
  25 Li     4.850749    8.086311   13.477110    ( 0.0000,  0.0000,  0.0000)
  26 Li     8.084504    8.088400   13.480248    ( 0.0000,  0.0000,  0.0000)
  27 Li     0.007585   -0.009280   15.444471    ( 0.0000,  0.0000,  0.0000)
  28 Li     3.232730   -0.000828   15.440448    ( 0.0000,  0.0000,  0.0000)
  29 Li     6.462784    0.001264   15.442425    ( 0.0000,  0.0000,  0.0000)
  30 Li     0.055847    3.272687   15.342581    ( 0.0000,  0.0000,  0.0000)
  31 Li     3.234647    3.237376   15.438030    ( 0.0000,  0.0000,  0.0000)
  32 Li     6.451660    3.229960   15.429234    ( 0.0000,  0.0000,  0.0000)
  33 Li    -0.002023    6.471187   15.438723    ( 0.0000,  0.0000,  0.0000)
  34 Li     3.233636    6.465668   15.443078    ( 0.0000,  0.0000,  0.0000)
  35 Li     6.470541    6.468623   15.441476    ( 0.0000,  0.0000,  0.0000)
  36 O     -0.008478    1.610327   18.446038    ( 0.0000,  0.0000,  0.0000)
  37 O     -2.892353    1.656411   18.190330    ( 0.0000,  0.0000,  0.0000)
  38 C     -0.722224    2.792802   18.082720    ( 0.0000,  0.0000,  0.0000)
  39 C     -2.142733    2.807747   18.612398    ( 0.0000,  0.0000,  0.0000)
  40 H     -0.184821    3.719378   18.330034    ( 0.0000,  0.0000,  0.0000)
  41 H     -0.822456    2.704257   17.000829    ( 0.0000,  0.0000,  0.0000)
  42 H     -2.674991    3.689277   18.233969    ( 0.0000,  0.0000,  0.0000)
  43 H     -2.098544    2.881834   19.702588    ( 0.0000,  0.0000,  0.0000)
  44 H      0.185732    1.678838   19.387340    ( 0.0000,  0.0000,  0.0000)
  45 H     -2.321366    0.880342   18.317133    ( 0.0000,  0.0000,  0.0000)

Unit cell:
           periodic     x           y           z      points  spacing
  1. axis:    yes    9.702222    0.000000    0.000000    60     0.1617
  2. axis:    yes    0.000000    9.702222    0.000000    60     0.1617
  3. axis:    no     0.000000    0.000000   24.851111   156     0.1593

  Lengths:   9.702222   9.702222  24.851111
  Angles:   90.000000  90.000000  90.000000

Effective grid spacing dv^(1/3) = 0.1609

     iter     time        total  log10-change:
                         energy  eigst   dens
iter:   1 03:04:35  -290.626716  -1.42
iter:   2 03:07:54  -290.624812  -2.14  -2.16
iter:   3 03:12:08  -290.623653c -2.69  -2.34
iter:   4 03:15:41  -290.620375c -2.43  -2.36
Writing to output.gpw (mode='')

iter:   5 03:19:02  -290.620482c -3.44  -2.62
iter:   6 03:22:03  -290.619790c -2.86  -2.69
iter:   7 03:25:14  -290.619835c -2.58  -2.82
iter:   8 03:29:41  -290.619625c -3.47  -2.89
iter:   9 03:33:17  -290.619681c -3.45  -3.16
Writing to output.gpw (mode='')

iter:  10 03:37:46  -290.619635c -3.86  -3.14
iter:  11 03:41:11  -290.619613c -4.20  -3.46
iter:  12 03:44:02  -290.619619c -4.84  -3.58
iter:  13 03:48:25  -290.619615c -5.07  -3.64
iter:  14 03:51:42  -290.619614c -4.87  -3.74
Writing to output.gpw (mode='')

iter:  15 03:56:38  -290.619610c -5.15  -3.92
iter:  16 04:02:10  -290.619607c -5.21  -3.94
iter:  17 04:05:59  -290.619606c -5.74  -4.06c
iter:  18 04:08:48  -290.619609c -5.78  -4.15c
iter:  19 04:13:57  -290.619608c -5.71  -4.27c
Writing to output.gpw (mode='')

iter:  20 04:20:03  -290.619606c -5.93  -4.32c
iter:  21 04:24:02  -290.619606c -6.47  -4.44c
iter:  22 04:29:56  -290.619607c -6.32  -4.50c
iter:  23 04:34:21  -290.619607c -6.39  -4.58c
iter:  24 04:38:51  -290.619607c -6.49  -4.70c
Writing to output.gpw (mode='')

iter:  25 04:43:02  -290.619607c -6.95  -4.84c
iter:  26 04:46:45  -290.619607c -6.95  -4.90c
iter:  27 04:50:33  -290.619607c -6.95  -4.97c
iter:  28 04:55:37  -290.619608c -7.07  -5.08c
iter:  29 05:00:10  -290.619608c -7.30  -5.29c
Writing to output.gpw (mode='')

iter:  30 05:03:51  -290.619608c -7.25  -5.33c
iter:  31 05:06:13  -290.619608c -7.59c -5.42c

Converged after 31 iterations.

Dipole moment: (-2.764488, -3.308000, 0.430718) |e|*Ang

Energy contributions relative to reference atoms: (reference = -13512.263335)

Kinetic:       +140.720738
Potential:     -131.765679
External:        +0.000000
XC:            -300.105158
Entropy (-ST):   -0.150393
Local:           +0.605687
--------------------------
Free energy:   -290.694804
Extrapolated:  -290.619608

Dipole-layer corrected work functions: 3.388368, 2.560380 eV

Showing only first 2 kpts
 Kpt  Band  Eigenvalues  Occupancy
  0    29     -3.22970    1.98796
  0    30     -3.14408    1.93504
  0    31     -2.80230    0.06204
  0    32     -2.72443    0.01340

  1    29     -2.99400    1.19376
  1    30     -2.96328    0.88953
  1    31     -2.94326    0.69850
  1    32     -2.92200    0.51943


Fermi level: -2.97437

No gap
Writing to output.gpw (mode='')


Forces in eV/Ang:
  0 Li    0.00755    0.00112   -0.27222
  1 Li   -0.00806    0.00124   -0.27415
  2 Li    0.00047   -0.00372   -0.27225
  3 Li    0.00169   -0.00200   -0.27361
  4 Li   -0.00125   -0.00272   -0.27231
  5 Li   -0.00057    0.00728   -0.27101
  6 Li   -0.00267    0.00073   -0.27443
  7 Li    0.00206    0.00098   -0.27835
  8 Li   -0.00016   -0.00399   -0.27157
  9 Li    0.00921   -0.00852    0.26427
 10 Li   -0.00275    0.00163    0.25849
 11 Li   -0.00618   -0.00367    0.26582
 12 Li    0.00530    0.00386    0.28308
 13 Li   -0.00300    0.00618    0.25496
 14 Li   -0.00359   -0.00181    0.27572
 15 Li   -0.00926    0.00355    0.26839
 16 Li    0.00605   -0.00724    0.27342
 17 Li    0.00381    0.00624    0.26157
 18 Li    0.01520   -0.01529   -0.00119
 19 Li   -0.00936   -0.00364    0.00003
 20 Li    0.00530   -0.00760   -0.01439
 21 Li    0.02258    0.02653   -0.00427
 22 Li    0.00582    0.00033    0.02604
 23 Li   -0.01562    0.00450    0.01635
 24 Li    0.00573   -0.00060    0.01611
 25 Li   -0.00138    0.00347    0.02421
 26 Li   -0.00338    0.01303    0.03566
 27 Li    0.02950   -0.02173    0.00413
 28 Li   -0.00343   -0.00198   -0.02079
 29 Li   -0.02256    0.00673   -0.00513
 30 Li    0.10649    0.07922   -0.20634
 31 Li    0.01080    0.01245   -0.02939
 32 Li   -0.04890   -0.02071   -0.05379
 33 Li   -0.00422    0.01917   -0.02590
 34 Li   -0.00509   -0.01234   -0.00824
 35 Li    0.00631    0.00509   -0.01503
 36 O    -0.01248    0.00244    0.17503
 37 O     0.13652    0.11321    0.01417
 38 C    -0.19838   -0.00467   -0.31647
 39 C    -0.02038   -0.02044    0.14718
 40 H    -0.01348   -0.13281    0.03069
 41 H     0.03270    0.09567   -0.22299
 42 H     0.05156   -0.07056    0.03315
 43 H    -0.22024   -0.04316    0.23555
 44 H     0.15297   -0.14082    0.14253
 45 H    -0.04474    0.10077    0.02608

System changes: positions 

Initializing position-dependent things.

Density initialized from wave functions
       .-----------------------.  
      /|                       |  
     / |                       |  
    /  |                       |  
   /   |                       |  
  /    |                       |  
 *     |                       |  
 |     |                       |  
 |     |                       |  
 |     |                       |  
 |     |                       |  
 |     |              H        |  
 | H   Li      Li    C     H   |  
 |     |           O     CO    |  
 |     |     Li     HLi  H   Li|  
 |     |  Li      Li      Li   |  
 | Li  |   Li      Li          |  
 |     |Li      Li      Li     |  
 |     |         Li            |  
 |   LLi     LLi     LLi       |  
 |     |  Li      Li      Li   |  
 | Li  |   Li      Li          |  
 |     |Li      Li      Li     |  
 Li    | Li      Li            |  
 |    Li      Li      Li       |  
 |     |                       |  
 |     |                       |  
 |     |                       |  
 |     |                       |  
 |     |                       |  
 |     |                       |  
 |     .-----------------------.  
 |    /                       /   
 |   /                       /    
 |  /                       /     
 | /                       /      
 |/                       /       
 *-----------------------*        

Positions:
   0 Li     1.617037    1.617037   10.000000    ( 0.0000,  0.0000,  0.0000)
   1 Li     4.851111    1.617037   10.000000    ( 0.0000,  0.0000,  0.0000)
   2 Li     8.085185    1.617037   10.000000    ( 0.0000,  0.0000,  0.0000)
   3 Li     1.617037    4.851111   10.000000    ( 0.0000,  0.0000,  0.0000)
   4 Li     4.851111    4.851111   10.000000    ( 0.0000,  0.0000,  0.0000)
   5 Li     8.085185    4.851111   10.000000    ( 0.0000,  0.0000,  0.0000)
   6 Li     1.617037    8.085185   10.000000    ( 0.0000,  0.0000,  0.0000)
   7 Li     4.851111    8.085185   10.000000    ( 0.0000,  0.0000,  0.0000)
   8 Li     8.085185    8.085185   10.000000    ( 0.0000,  0.0000,  0.0000)
   9 Li     0.000000    0.000000   11.617037    ( 0.0000,  0.0000,  0.0000)
  10 Li     3.234074    0.000000   11.617037    ( 0.0000,  0.0000,  0.0000)
  11 Li     6.468148    0.000000   11.617037    ( 0.0000,  0.0000,  0.0000)
  12 Li     0.000000    3.234074   11.617037    ( 0.0000,  0.0000,  0.0000)
  13 Li     3.234074    3.234074   11.617037    ( 0.0000,  0.0000,  0.0000)
  14 Li     6.468148    3.234074   11.617037    ( 0.0000,  0.0000,  0.0000)
  15 Li     0.000000    6.468148   11.617037    ( 0.0000,  0.0000,  0.0000)
  16 Li     3.234074    6.468148   11.617037    ( 0.0000,  0.0000,  0.0000)
  17 Li     6.468148    6.468148   11.617037    ( 0.0000,  0.0000,  0.0000)
  18 Li     1.617436    1.617458   13.478389    ( 0.0000,  0.0000,  0.0000)
  19 Li     4.849031    1.616929   13.472702    ( 0.0000,  0.0000,  0.0000)
  20 Li     8.087566    1.615813   13.467253    ( 0.0000,  0.0000,  0.0000)
  21 Li     1.616421    4.851423   13.481423    ( 0.0000,  0.0000,  0.0000)
  22 Li     4.853790    4.849622   13.481990    ( 0.0000,  0.0000,  0.0000)
  23 Li     8.083871    4.848789   13.484210    ( 0.0000,  0.0000,  0.0000)
  24 Li     1.618479    8.085107   13.477138    ( 0.0000,  0.0000,  0.0000)
  25 Li     4.850612    8.086714   13.479788    ( 0.0000,  0.0000,  0.0000)
  26 Li     8.084224    8.089637   13.484100    ( 0.0000,  0.0000,  0.0000)
  27 Li     0.010470   -0.012395   15.444190    ( 0.0000,  0.0000,  0.0000)
  28 Li     3.232269   -0.001107   15.438374    ( 0.0000,  0.0000,  0.0000)
  29 Li     6.460695    0.001802   15.441344    ( 0.0000,  0.0000,  0.0000)
  30 Li     0.073791    3.285262   15.309116    ( 0.0000,  0.0000,  0.0000)
  31 Li     3.235114    3.238622   15.435059    ( 0.0000,  0.0000,  0.0000)
  32 Li     6.445837    3.228254   15.423211    ( 0.0000,  0.0000,  0.0000)
  33 Li    -0.002686    6.472559   15.436041    ( 0.0000,  0.0000,  0.0000)
  34 Li     3.233371    6.464646   15.442073    ( 0.0000,  0.0000,  0.0000)
  35 Li     6.471365    6.468900   15.439844    ( 0.0000,  0.0000,  0.0000)
  36 O     -0.010794    1.608115   18.451135    ( 0.0000,  0.0000,  0.0000)
  37 O     -2.886262    1.658981   18.184800    ( 0.0000,  0.0000,  0.0000)
  38 C     -0.727415    2.794806   18.085109    ( 0.0000,  0.0000,  0.0000)
  39 C     -2.144812    2.808262   18.619034    ( 0.0000,  0.0000,  0.0000)
  40 H     -0.180950    3.719799   18.332049    ( 0.0000,  0.0000,  0.0000)
  41 H     -0.837570    2.697436   17.009597    ( 0.0000,  0.0000,  0.0000)
  42 H     -2.673438    3.690590   18.236965    ( 0.0000,  0.0000,  0.0000)
  43 H     -2.107983    2.881723   19.710208    ( 0.0000,  0.0000,  0.0000)
  44 H      0.194801    1.671149   19.390711    ( 0.0000,  0.0000,  0.0000)
  45 H     -2.323450    0.879665   18.319842    ( 0.0000,  0.0000,  0.0000)

Unit cell:
           periodic     x           y           z      points  spacing
  1. axis:    yes    9.702222    0.000000    0.000000    60     0.1617
  2. axis:    yes    0.000000    9.702222    0.000000    60     0.1617
  3. axis:    no     0.000000    0.000000   24.851111   156     0.1593

  Lengths:   9.702222   9.702222  24.851111
  Angles:   90.000000  90.000000  90.000000

Effective grid spacing dv^(1/3) = 0.1609

     iter     time        total  log10-change:
                         energy  eigst   dens
iter:   1 05:09:46  -290.640581  -1.40
iter:   2 05:15:05  -290.639133  -2.14  -2.18
iter:   3 05:19:20  -290.637765c -2.68  -2.33
iter:   4 05:24:01  -290.634357c -2.38  -2.35
Writing to output.gpw (mode='')

iter:   5 05:27:38  -290.634445c -3.39  -2.61
iter:   6 05:32:11  -290.633768c -2.90  -2.69
iter:   7 05:36:31  -290.633833c -2.53  -2.81
iter:   8 05:41:00  -290.633581c -3.47  -2.84
iter:   9 05:45:41  -290.633730c -3.20  -3.13
Writing to output.gpw (mode='')

iter:  10 05:50:09  -290.633575c -3.80  -3.03
iter:  11 05:53:22  -290.633565c -3.89  -3.42
iter:  12 05:57:10  -290.633566c -4.95  -3.56
iter:  13 06:01:10  -290.633568c -4.90  -3.64
iter:  14 06:06:33  -290.633554c -4.63  -3.72
Writing to output.gpw (mode='')

iter:  15 06:10:27  -290.633556c -5.18  -3.88
iter:  16 06:14:27  -290.633557c -5.46  -3.96
iter:  17 06:18:36  -290.633557c -5.50  -4.08c
iter:  18 06:21:11  -290.633556c -5.74  -4.20c
iter:  19 06:23:54  -290.633555c -5.93  -4.25c
Writing to output.gpw (mode='')

iter:  20 06:26:41  -290.633555c -6.12  -4.45c
iter:  21 06:32:40  -290.633555c -6.21  -4.49c
iter:  22 06:35:54  -290.633555c -6.31  -4.59c
iter:  23 06:38:25  -290.633556c -6.58  -4.61c
iter:  24 06:40:41  -290.633556c -6.52  -4.78c
Writing to output.gpw (mode='')

iter:  25 06:43:10  -290.633556c -6.73  -4.98c
iter:  26 06:45:27  -290.633556c -6.93  -5.09c
iter:  27 06:48:55  -290.633556c -7.13  -5.09c
iter:  28 06:52:21  -290.633556c -7.14  -5.13c
iter:  29 06:56:09  -290.633556c -7.11  -5.28c
Writing to output.gpw (mode='')

iter:  30 07:00:11  -290.633556c -7.33  -5.43c
iter:  31 07:04:47  -290.633556c -7.41c -5.44c

Converged after 31 iterations.

Dipole moment: (-2.869396, -3.267032, 0.427830) |e|*Ang

Energy contributions relative to reference atoms: (reference = -13512.263335)

Kinetic:       +140.792684
Potential:     -131.820198
External:        +0.000000
XC:            -300.136620
Entropy (-ST):   -0.150197
Local:           +0.605676
--------------------------
Free energy:   -290.708655
Extrapolated:  -290.633556

Dipole-layer corrected work functions: 3.388234, 2.565798 eV

Showing only first 2 kpts
 Kpt  Band  Eigenvalues  Occupancy
  0    29     -3.23300    1.98811
  0    30     -3.14701    1.93540
  0    31     -2.80362    0.06048
  0    32     -2.72786    0.01361

  1    29     -2.99609    1.18843
  1    30     -2.96599    0.89021
  1    31     -2.94595    0.69893
  1    32     -2.92435    0.51715


Fermi level: -2.97702

No gap
Writing to output.gpw (mode='')


Forces in eV/Ang:
  0 Li    0.00770    0.00146   -0.27304
  1 Li   -0.00821    0.00143   -0.27435
  2 Li    0.00049   -0.00373   -0.27334
  3 Li    0.00160   -0.00207   -0.27473
  4 Li   -0.00134   -0.00330   -0.27226
  5 Li   -0.00034    0.00733   -0.27224
  6 Li   -0.00321    0.00051   -0.27424
  7 Li    0.00207    0.00099   -0.27857
  8 Li   -0.00007   -0.00403   -0.27169
  9 Li    0.01002   -0.00942    0.26632
 10 Li   -0.00266    0.00032    0.25933
 11 Li   -0.00673   -0.00447    0.26741
 12 Li    0.00627    0.00515    0.28720
 13 Li   -0.00432    0.00705    0.25788
 14 Li   -0.00393   -0.00121    0.27827
 15 Li   -0.01006    0.00258    0.27224
 16 Li    0.00734   -0.00653    0.27515
 17 Li    0.00361    0.00676    0.26438
 18 Li    0.02095   -0.02258   -0.01420
 19 Li   -0.01004   -0.00520   -0.00430
 20 Li    0.00422   -0.00879   -0.01597
 21 Li    0.03429    0.03867   -0.02474
 22 Li    0.00412    0.00293    0.01843
 23 Li   -0.02027    0.00966    0.00276
 24 Li    0.00607   -0.00079    0.01166
 25 Li   -0.00135    0.00252    0.01938
 26 Li   -0.00338    0.01221    0.02916
 27 Li    0.02678   -0.01317    0.00901
 28 Li   -0.00208   -0.00101   -0.01798
 29 Li   -0.02138    0.00595   -0.00245
 30 Li    0.06586    0.05117   -0.13850
 31 Li    0.01340    0.01053   -0.02552
 32 Li   -0.03869   -0.01996   -0.04467
 33 Li   -0.00226    0.01985   -0.02217
 34 Li   -0.00603   -0.01209   -0.00596
 35 Li    0.00433    0.00562   -0.01188
 36 O    -0.05483    0.03508    0.11469
 37 O     0.01931    0.10419    0.01072
 38 C    -0.02376   -0.05975   -0.03012
 39 C     0.00809    0.02020    0.14287
 40 H    -0.08452   -0.20155   -0.02468
 41 H     0.09513    0.13450   -0.38331
 42 H     0.02666   -0.07507    0.04597
 43 H    -0.21272   -0.05516    0.21074
 44 H     0.12050   -0.08747    0.11636
 45 H     0.00412    0.08943    0.04070

System changes: positions 

Initializing position-dependent things.

Density initialized from wave functions
       .-----------------------.  
      /|                       |  
     / |                       |  
    /  |                       |  
   /   |                       |  
  /    |                       |  
 *     |                       |  
 |     |                       |  
 |     |                       |  
 |     |                       |  
 |     |                       |  
 |     |              H        |  
 | H   Li      Li    C     H   |  
 |     |           O     CO    |  
 |     |     Li     HLi  H   Li|  
 |     |  Li      Li      Li   |  
 | Li  |   Li      Li          |  
 |     |Li      Li      Li     |  
 |     |         Li            |  
 |   LLi     LLi     LLi       |  
 |     |  Li      Li      Li   |  
 | Li  |   Li      Li          |  
 |     |Li      Li      Li     |  
 Li    | Li      Li            |  
 |    Li      Li      Li       |  
 |     |                       |  
 |     |                       |  
 |     |                       |  
 |     |                       |  
 |     |                       |  
 |     |                       |  
 |     .-----------------------.  
 |    /                       /   
 |   /                       /    
 |  /                       /     
 | /                       /      
 |/                       /       
 *-----------------------*        

Positions:
   0 Li     1.617037    1.617037   10.000000    ( 0.0000,  0.0000,  0.0000)
   1 Li     4.851111    1.617037   10.000000    ( 0.0000,  0.0000,  0.0000)
   2 Li     8.085185    1.617037   10.000000    ( 0.0000,  0.0000,  0.0000)
   3 Li     1.617037    4.851111   10.000000    ( 0.0000,  0.0000,  0.0000)
   4 Li     4.851111    4.851111   10.000000    ( 0.0000,  0.0000,  0.0000)
   5 Li     8.085185    4.851111   10.000000    ( 0.0000,  0.0000,  0.0000)
   6 Li     1.617037    8.085185   10.000000    ( 0.0000,  0.0000,  0.0000)
   7 Li     4.851111    8.085185   10.000000    ( 0.0000,  0.0000,  0.0000)
   8 Li     8.085185    8.085185   10.000000    ( 0.0000,  0.0000,  0.0000)
   9 Li     0.000000    0.000000   11.617037    ( 0.0000,  0.0000,  0.0000)
  10 Li     3.234074    0.000000   11.617037    ( 0.0000,  0.0000,  0.0000)
  11 Li     6.468148    0.000000   11.617037    ( 0.0000,  0.0000,  0.0000)
  12 Li     0.000000    3.234074   11.617037    ( 0.0000,  0.0000,  0.0000)
  13 Li     3.234074    3.234074   11.617037    ( 0.0000,  0.0000,  0.0000)
  14 Li     6.468148    3.234074   11.617037    ( 0.0000,  0.0000,  0.0000)
  15 Li     0.000000    6.468148   11.617037    ( 0.0000,  0.0000,  0.0000)
  16 Li     3.234074    6.468148   11.617037    ( 0.0000,  0.0000,  0.0000)
  17 Li     6.468148    6.468148   11.617037    ( 0.0000,  0.0000,  0.0000)
  18 Li     1.618229    1.616793   13.479782    ( 0.0000,  0.0000,  0.0000)
  19 Li     4.848241    1.616733   13.473199    ( 0.0000,  0.0000,  0.0000)
  20 Li     8.088220    1.615249   13.466167    ( 0.0000,  0.0000,  0.0000)
  21 Li     1.617423    4.852772   13.483141    ( 0.0000,  0.0000,  0.0000)
  22 Li     4.854512    4.849395   13.485271    ( 0.0000,  0.0000,  0.0000)
  23 Li     8.082905    4.848615   13.487422    ( 0.0000,  0.0000,  0.0000)
  24 Li     1.618995    8.085064   13.479139    ( 0.0000,  0.0000,  0.0000)
  25 Li     4.850461    8.087132   13.482620    ( 0.0000,  0.0000,  0.0000)
  26 Li     8.083903    8.091008   13.488197    ( 0.0000,  0.0000,  0.0000)
  27 Li     0.013632   -0.015512   15.444102    ( 0.0000,  0.0000,  0.0000)
  28 Li     3.231807   -0.001382   15.436125    ( 0.0000,  0.0000,  0.0000)
  29 Li     6.458367    0.002407   15.440299    ( 0.0000,  0.0000,  0.0000)
  30 Li     0.091611    3.297838   15.275586    ( 0.0000,  0.0000,  0.0000)
  31 Li     3.235796    3.239967   15.431841    ( 0.0000,  0.0000,  0.0000)
  32 Li     6.439745    3.226306   15.416823    ( 0.0000,  0.0000,  0.0000)
  33 Li    -0.003340    6.474195   15.433152    ( 0.0000,  0.0000,  0.0000)
  34 Li     3.233013    6.463478   15.441035    ( 0.0000,  0.0000,  0.0000)
  35 Li     6.472205    6.469260   15.438118    ( 0.0000,  0.0000,  0.0000)
  36 O     -0.013786    1.606534   18.458397    ( 0.0000,  0.0000,  0.0000)
  37 O     -2.880305    1.662951   18.179816    ( 0.0000,  0.0000,  0.0000)
  38 C     -0.732585    2.795489   18.086704    ( 0.0000,  0.0000,  0.0000)
  39 C     -2.146526    2.809087   18.627670    ( 0.0000,  0.0000,  0.0000)
  40 H     -0.178826    3.716731   18.333465    ( 0.0000,  0.0000,  0.0000)
  41 H     -0.849808    2.693604   17.011357    ( 0.0000,  0.0000,  0.0000)
  42 H     -2.671599    3.690596   18.240617    ( 0.0000,  0.0000,  0.0000)
  43 H     -2.120539    2.880622   19.721021    ( 0.0000,  0.0000,  0.0000)
  44 H      0.205210    1.662548   19.395321    ( 0.0000,  0.0000,  0.0000)
  45 H     -2.325364    0.880776   18.323111    ( 0.0000,  0.0000,  0.0000)

Unit cell:
           periodic     x           y           z      points  spacing
  1. axis:    yes    9.702222    0.000000    0.000000    60     0.1617
  2. axis:    yes    0.000000    9.702222    0.000000    60     0.1617
  3. axis:    no     0.000000    0.000000   24.851111   156     0.1593

  Lengths:   9.702222   9.702222  24.851111
  Angles:   90.000000  90.000000  90.000000

Effective grid spacing dv^(1/3) = 0.1609

     iter     time        total  log10-change:
                         energy  eigst   dens
iter:   1 07:10:54  -290.652720  -1.37
iter:   2 07:14:45  -290.651610  -2.11  -2.19
iter:   3 07:20:20  -290.649820c -2.67  -2.32
iter:   4 07:24:56  -290.646754c -2.34  -2.35
Writing to output.gpw (mode='')

iter:   5 07:29:53  -290.646734c -3.32  -2.59
iter:   6 07:36:03  -290.646119c -2.81  -2.69
iter:   7 07:42:42  -290.646215c -2.61  -2.80
iter:   8 07:48:07  -290.645987c -3.36  -2.84
iter:   9 07:57:03  -290.646171c -3.05  -3.07
Writing to output.gpw (mode='')

iter:  10 08:04:36  -290.645955c -3.77  -3.01
iter:  11 08:13:10  -290.645961c -4.04  -3.42
iter:  12 08:19:14  -290.645961c -4.81  -3.54
iter:  13 08:23:26  -290.645962c -5.09  -3.61
iter:  14 08:30:32  -290.645951c -4.50  -3.67
Writing to output.gpw (mode='')

iter:  15 08:35:17  -290.645952c -5.03  -3.77
iter:  16 08:39:04  -290.645952c -5.27  -3.82
iter:  17 08:42:33  -290.645952c -5.45  -4.04c
iter:  18 08:47:09  -290.645954c -5.41  -4.11c
iter:  19 08:51:06  -290.645953c -5.63  -4.22c
Writing to output.gpw (mode='')

iter:  20 08:54:53  -290.645951c -6.02  -4.34c
iter:  21 08:58:06  -290.645951c -6.19  -4.54c
iter:  22 09:03:15  -290.645951c -6.49  -4.64c
iter:  23 09:06:52  -290.645951c -6.57  -4.67c
iter:  24 09:10:34  -290.645951c -6.59  -4.77c
Writing to output.gpw (mode='')

iter:  25 09:14:16  -290.645952c -6.70  -4.82c
iter:  26 09:18:04  -290.645952c -6.85  -4.86c
iter:  27 09:21:52  -290.645952c -7.00  -4.96c
iter:  28 09:25:52  -290.645952c -7.17  -5.23c
iter:  29 09:29:17  -290.645952c -7.21  -5.27c
Writing to output.gpw (mode='')

iter:  30 09:34:06  -290.645952c -7.26  -5.28c
iter:  31 09:38:52  -290.645952c -7.40  -5.35c
iter:  32 09:43:21  -290.645952c -7.59c -5.48c

Converged after 32 iterations.

Dipole moment: (-2.879805, -3.227226, 0.425902) |e|*Ang

Energy contributions relative to reference atoms: (reference = -13512.263335)

Kinetic:       +140.800472
Potential:     -131.821312
External:        +0.000000
XC:            -300.155776
Entropy (-ST):   -0.149976
Local:           +0.605652
--------------------------
Free energy:   -290.720940
Extrapolated:  -290.645952

Dipole-layer corrected work functions: 3.388123, 2.569393 eV

Showing only first 2 kpts
 Kpt  Band  Eigenvalues  Occupancy
  0    29     -3.23545    1.98828
  0    30     -3.14902    1.93573
  0    31     -2.80409    0.05900
  0    32     -2.73050    0.01386

  1    29     -2.99736    1.18389
  1    30     -2.96812    0.89405
  1    31     -2.94738    0.69615
  1    32     -2.92563    0.51367


Fermi level: -2.97876

No gap
Writing to output.gpw (mode='')


Forces in eV/Ang:
  0 Li    0.00788    0.00176   -0.27384
  1 Li   -0.00843    0.00159   -0.27454
  2 Li    0.00053   -0.00374   -0.27442
  3 Li    0.00155   -0.00209   -0.27585
  4 Li   -0.00145   -0.00387   -0.27216
  5 Li   -0.00014    0.00741   -0.27351
  6 Li   -0.00375    0.00028   -0.27402
  7 Li    0.00207    0.00098   -0.27884
  8 Li    0.00001   -0.00411   -0.27181
  9 Li    0.01087   -0.01053    0.26824
 10 Li   -0.00239   -0.00130    0.25987
 11 Li   -0.00738   -0.00540    0.26897
 12 Li    0.00737    0.00655    0.29136
 13 Li   -0.00556    0.00795    0.26072
 14 Li   -0.00439   -0.00063    0.28084
 15 Li   -0.01100    0.00177    0.27611
 16 Li    0.00899   -0.00547    0.27652
 17 Li    0.00329    0.00754    0.26714
 18 Li    0.02646   -0.02970   -0.02672
 19 Li   -0.01057   -0.00680   -0.00873
 20 Li    0.00325   -0.00980   -0.01702
 21 Li    0.04626    0.05110   -0.04553
 22 Li    0.00237    0.00565    0.01042
 23 Li   -0.02469    0.01469   -0.01053
 24 Li    0.00638   -0.00091    0.00703
 25 Li   -0.00138    0.00147    0.01424
 26 Li   -0.00335    0.01143    0.02228
 27 Li    0.02380   -0.00451    0.01350
 28 Li   -0.00068   -0.00001   -0.01497
 29 Li   -0.02000    0.00502    0.00026
 30 Li    0.03163    0.02748   -0.08244
 31 Li    0.01564    0.00833   -0.02161
 32 Li   -0.02783   -0.01926   -0.03462
 33 Li   -0.00028    0.02004   -0.01833
 34 Li   -0.00685   -0.01160   -0.00355
 35 Li    0.00225    0.00598   -0.00844
 36 O    -0.07771    0.02469    0.00672
 37 O    -0.11195    0.06736    0.00885
 38 C     0.10366   -0.11473    0.15595
 39 C     0.04170    0.04149    0.10362
 40 H    -0.11137   -0.20000   -0.05987
 41 H     0.14683    0.14757   -0.34935
 42 H    -0.00441   -0.04914    0.06088
 43 H    -0.17243   -0.07103    0.14178
 44 H     0.06914   -0.00644    0.09909
 45 H     0.04437    0.06965    0.05370

System changes: positions 

Initializing position-dependent things.

Density initialized from wave functions
       .-----------------------.  
      /|                       |  
[...]
iter:   8 12:53:42  -290.723991c -3.70  -3.16
iter:   9 12:59:32  -290.723968c -4.02  -3.20
Writing to output.gpw (mode='')

iter:  10 13:04:43  -290.723990c -3.81  -3.39
iter:  11 13:13:01  -290.723980c -4.77  -3.50
iter:  12 13:19:23  -290.723981c -4.86  -3.56
iter:  13 13:24:09  -290.723993c -4.74  -3.58
iter:  14 13:27:41  -290.723992c -4.74  -3.80
Writing to output.gpw (mode='')

iter:  15 13:34:29  -290.723992c -5.08  -3.80
iter:  16 13:46:29  -290.723986c -5.47  -3.96
iter:  17 13:52:48  -290.723985c -5.50  -4.13c
iter:  18 13:56:32  -290.723987c -5.99  -4.28c
iter:  19 14:00:49  -290.723988c -6.06  -4.37c
Writing to output.gpw (mode='')

iter:  20 14:05:06  -290.723987c -6.04  -4.40c
iter:  21 14:09:09  -290.723987c -6.19  -4.54c
iter:  22 14:13:13  -290.723988c -6.37  -4.56c
iter:  23 14:18:39  -290.723988c -6.69  -4.65c
iter:  24 14:23:12  -290.723987c -6.74  -4.85c
Writing to output.gpw (mode='')

iter:  25 14:26:30  -290.723987c -6.90  -5.04c
iter:  26 14:29:20  -290.723987c -7.00  -5.11c
iter:  27 14:33:17  -290.723987c -7.21  -5.21c
iter:  28 14:36:43  -290.723988c -7.10  -5.30c
iter:  29 14:39:48  -290.723988c -7.54c -5.43c

Converged after 29 iterations.

Dipole moment: (5.223223, -4.616402, 0.435946) |e|*Ang

Energy contributions relative to reference atoms: (reference = -13512.263335)

Kinetic:       +141.217174
Potential:     -132.160038
External:        +0.000000
XC:            -300.312102
Entropy (-ST):   -0.148910
Local:           +0.605433
--------------------------
Free energy:   -290.798443
Extrapolated:  -290.723988

Dipole-layer corrected work functions: 3.386244, 2.548207 eV

Showing only first 2 kpts
 Kpt  Band  Eigenvalues  Occupancy
  0    29     -3.24503    1.99230
  0    30     -3.14267    1.94187
  0    31     -2.78983    0.05596
  0    32     -2.74387    0.02270

  1    29     -2.98104    1.13727
  1    30     -2.95338    0.86240
  1    31     -2.92987    0.64288
  1    32     -2.91016    0.48416


Fermi level: -2.96723

No gap
Writing to output.gpw (mode='')


Forces in eV/Ang:
  0 Li    0.00661   -0.00070   -0.27614
  1 Li   -0.00992   -0.00188   -0.27532
  2 Li    0.00068   -0.00461   -0.27563
  3 Li    0.00083   -0.00122   -0.28431
  4 Li   -0.00213   -0.00148   -0.26229
  5 Li   -0.00173    0.00581   -0.28226
  6 Li   -0.00135   -0.00101   -0.26721
  7 Li    0.00112    0.00087   -0.28308
  8 Li   -0.00149   -0.00453   -0.26903
  9 Li    0.00834   -0.02535    0.23478
 10 Li    0.02477   -0.03674    0.20626
 11 Li   -0.01843   -0.03406    0.23319
 12 Li    0.01337    0.01694    0.32165
 13 Li    0.00959    0.00496    0.25800
 14 Li   -0.00027   -0.00922    0.27946
 15 Li   -0.02194    0.03745    0.27857
 16 Li    0.04493    0.05033    0.21811
 17 Li   -0.00792    0.06144    0.22829
 18 Li   -0.00829    0.00026    0.00652
 19 Li   -0.00300    0.00929    0.01559
 20 Li    0.00177    0.01019   -0.00921
 21 Li   -0.00181    0.00348   -0.00172
 22 Li   -0.00409   -0.01470    0.02373
 23 Li    0.00026   -0.01410    0.01842
 24 Li   -0.00778   -0.00840    0.01585
 25 Li    0.01220    0.01136    0.01631
 26 Li    0.00424   -0.00811    0.01375
 27 Li   -0.00375   -0.01640    0.00867
 28 Li   -0.00381   -0.00011   -0.00832
 29 Li    0.00951   -0.00195   -0.00980
 30 Li   -0.00705   -0.00068    0.03033
 31 Li    0.00640    0.00413    0.01979
 32 Li   -0.01701    0.00258    0.00739
 33 Li   -0.01354    0.00923    0.01665
 34 Li    0.00187   -0.00440   -0.01783
 35 Li    0.01135    0.00107   -0.01124
 36 O    -0.08945    0.09303    0.01568
 37 O    -0.07267   -0.03977   -0.07695
 38 C     0.07217   -0.04992    0.05916
 39 C    -0.02751    0.01462    0.02086
 40 H    -0.01704   -0.08655   -0.01585
 41 H     0.02812    0.05762   -0.00789
 42 H    -0.02210    0.04774    0.01313
 43 H     0.06137    0.00139    0.08168
 44 H     0.00244   -0.02614    0.01913
 45 H     0.03253   -0.00511   -0.01273

System changes: positions 

Initializing position-dependent things.

Density initialized from wave functions
       .-----------------------.  
      /|                       |  
     / |                       |  
    /  |                       |  
   /   |                       |  
  /    |                       |  
 *     |                       |  
 |     |                       |  
 |     |                       |  
 |     |                       |  
 |     |                       |  
 |     |             H     H   |  
 | H   |       Li    C         |  
 |     |           O     CO    |  
 |   Li|     Li    H Li  H     |  
 |     |  Li      Li      Li   |  
 | Li  |   Li      Li          |  
 |     |Li      Li      Li     |  
 Li    |         Li            |  
 |   LLi     LLi     LLi       |  
 |     |  Li      Li      Li   |  
 | Li  |   Li      Li          |  
 |     |Li      Li      Li     |  
 Li    | Li      Li            |  
 |    Li      Li      Li       |  
 |     |                       |  
 |     |                       |  
 |     |                       |  
 |     |                       |  
 |     |                       |  
 |     |                       |  
 |     .-----------------------.  
 |    /                       /   
 |   /                       /    
 |  /                       /     
 | /                       /      
 |/                       /       
 *-----------------------*        

Positions:
   0 Li     1.617037    1.617037   10.000000    ( 0.0000,  0.0000,  0.0000)
   1 Li     4.851111    1.617037   10.000000    ( 0.0000,  0.0000,  0.0000)
   2 Li     8.085185    1.617037   10.000000    ( 0.0000,  0.0000,  0.0000)
   3 Li     1.617037    4.851111   10.000000    ( 0.0000,  0.0000,  0.0000)
   4 Li     4.851111    4.851111   10.000000    ( 0.0000,  0.0000,  0.0000)
   5 Li     8.085185    4.851111   10.000000    ( 0.0000,  0.0000,  0.0000)
   6 Li     1.617037    8.085185   10.000000    ( 0.0000,  0.0000,  0.0000)
   7 Li     4.851111    8.085185   10.000000    ( 0.0000,  0.0000,  0.0000)
   8 Li     8.085185    8.085185   10.000000    ( 0.0000,  0.0000,  0.0000)
   9 Li     0.000000    0.000000   11.617037    ( 0.0000,  0.0000,  0.0000)
  10 Li     3.234074    0.000000   11.617037    ( 0.0000,  0.0000,  0.0000)
  11 Li     6.468148    0.000000   11.617037    ( 0.0000,  0.0000,  0.0000)
  12 Li     0.000000    3.234074   11.617037    ( 0.0000,  0.0000,  0.0000)
  13 Li     3.234074    3.234074   11.617037    ( 0.0000,  0.0000,  0.0000)
  14 Li     6.468148    3.234074   11.617037    ( 0.0000,  0.0000,  0.0000)
  15 Li     0.000000    6.468148   11.617037    ( 0.0000,  0.0000,  0.0000)
  16 Li     3.234074    6.468148   11.617037    ( 0.0000,  0.0000,  0.0000)
  17 Li     6.468148    6.468148   11.617037    ( 0.0000,  0.0000,  0.0000)
  18 Li     1.657791    1.565362   13.422625    ( 0.0000,  0.0000,  0.0000)
  19 Li     4.860922    1.584751   13.432140    ( 0.0000,  0.0000,  0.0000)
  20 Li     8.080627    1.569311   13.436374    ( 0.0000,  0.0000,  0.0000)
  21 Li     1.684810    4.930402   13.403478    ( 0.0000,  0.0000,  0.0000)
  22 Li     4.871078    4.875052   13.467144    ( 0.0000,  0.0000,  0.0000)
  23 Li     8.034796    4.910557   13.432896    ( 0.0000,  0.0000,  0.0000)
  24 Li     1.628090    8.118587   13.480319    ( 0.0000,  0.0000,  0.0000)
  25 Li     4.843863    8.076012   13.486529    ( 0.0000,  0.0000,  0.0000)
  26 Li     8.073700    8.137921   13.514950    ( 0.0000,  0.0000,  0.0000)
  27 Li     0.057178    0.077050   15.511962    ( 0.0000,  0.0000,  0.0000)
  28 Li     3.258278   -0.001908   15.420612    ( 0.0000,  0.0000,  0.0000)
  29 Li     6.423974    0.013566   15.465023    ( 0.0000,  0.0000,  0.0000)
  30 Li     0.096249    3.334841   15.039682    ( 0.0000,  0.0000,  0.0000)
  31 Li     3.235428    3.232512   15.305963    ( 0.0000,  0.0000,  0.0000)
  32 Li     6.470651    3.194998   15.366134    ( 0.0000,  0.0000,  0.0000)
  33 Li     0.012886    6.491302   15.350288    ( 0.0000,  0.0000,  0.0000)
  34 Li     3.230087    6.469046   15.455111    ( 0.0000,  0.0000,  0.0000)
  35 Li     6.455914    6.480054   15.446762    ( 0.0000,  0.0000,  0.0000)
  36 O     -0.119306    1.486440   18.516487    ( 0.0000,  0.0000,  0.0000)
  37 O     -2.966005    1.723639   18.149228    ( 0.0000,  0.0000,  0.0000)
  38 C     -0.757572    2.752874   18.253304    ( 0.0000,  0.0000,  0.0000)
  39 C     -2.197455    2.780251   18.734405    ( 0.0000,  0.0000,  0.0000)
  40 H     -0.184432    3.590945   18.672511    ( 0.0000,  0.0000,  0.0000)
  41 H     -0.770227    2.847290   17.162859    ( 0.0000,  0.0000,  0.0000)
  42 H     -2.664750    3.711918   18.407081    ( 0.0000,  0.0000,  0.0000)
  43 H     -2.261203    2.736665   19.827412    ( 0.0000,  0.0000,  0.0000)
  44 H      0.351540    1.550270   19.354228    ( 0.0000,  0.0000,  0.0000)
  45 H     -2.528747    0.894982   18.394462    ( 0.0000,  0.0000,  0.0000)

Unit cell:
           periodic     x           y           z      points  spacing
  1. axis:    yes    9.702222    0.000000    0.000000    60     0.1617
  2. axis:    yes    0.000000    9.702222    0.000000    60     0.1617
  3. axis:    no     0.000000    0.000000   24.851111   156     0.1593

  Lengths:   9.702222   9.702222  24.851111
  Angles:   90.000000  90.000000  90.000000

Effective grid spacing dv^(1/3) = 0.1609

     iter     time        total  log10-change:
                         energy  eigst   dens
iter:   1 14:43:17  -290.728046  -1.17
iter:   2 14:46:57  -290.728730  -1.99  -2.30
iter:   3 14:49:13  -290.728751c -2.49  -2.39
iter:   4 14:53:08  -290.728423c -2.89  -2.42
Writing to output.gpw (mode='')

iter:   5 14:57:42  -290.726219c -2.53  -2.46
iter:   6 15:02:35  -290.726368c -2.30  -2.79
iter:   7 15:08:01  -290.726820c -2.62  -2.79
iter:   8 15:13:58  -290.726743c -3.20  -2.65
iter:   9 15:18:46  -290.726479c -3.65  -2.79
Writing to output.gpw (mode='')

iter:  10 15:24:13  -290.726391c -3.53  -2.90
iter:  11 15:27:20  -290.726278c -3.85  -2.97
iter:  12 15:30:34  -290.726202c -3.42  -3.07
iter:  13 15:34:16  -290.726184c -4.44  -3.26
iter:  14 15:37:44  -290.726186c -4.55  -3.39
Writing to output.gpw (mode='')

iter:  15 15:41:46  -290.726218c -4.14  -3.46
iter:  16 15:45:42  -290.726206c -4.55  -3.51
iter:  17 15:49:17  -290.726205c -4.60  -3.87
iter:  18 15:52:37  -290.726199c -5.70  -3.97
iter:  19 15:59:09  -290.726191c -5.43  -4.10c
Writing to output.gpw (mode='')

iter:  20 16:04:54  -290.726193c -5.73  -4.19c
iter:  21 16:11:25  -290.726196c -6.07  -4.22c
iter:  22 16:17:40  -290.726196c -6.25  -4.30c
iter:  23 16:22:37  -290.726196c -6.52  -4.46c
iter:  24 16:28:14  -290.726194c -6.64  -4.51c
Writing to output.gpw (mode='')

iter:  25 16:36:53  -290.726195c -6.97  -4.52c
iter:  26 16:45:11  -290.726198c -6.34  -4.58c
iter:  27 16:49:42  -290.726196c -6.63  -4.61c
iter:  28 16:53:55  -290.726196c -7.26  -4.93c
iter:  29 16:57:57  -290.726197c -7.50c -5.01c

Converged after 29 iterations.

Dipole moment: (6.002051, -4.710897, 0.439114) |e|*Ang

Energy contributions relative to reference atoms: (reference = -13512.263335)

Kinetic:       +141.438695
Potential:     -132.330390
External:        +0.000000
XC:            -300.365862
Entropy (-ST):   -0.148922
Local:           +0.605820
--------------------------
Free energy:   -290.800658
Extrapolated:  -290.726197

Dipole-layer corrected work functions: 3.386065, 2.541936 eV

Showing only first 2 kpts
 Kpt  Band  Eigenvalues  Occupancy
  0    29     -3.24198    1.99233
  0    30     -3.13940    1.94183
  0    31     -2.78628    0.05561
  0    32     -2.74081    0.02277

  1    29     -2.97786    1.13775
  1    30     -2.94972    0.85819
  1    31     -2.92674    0.64373
  1    32     -2.90721    0.48618


Fermi level: -2.96400

No gap
Writing to output.gpw (mode='')


Forces in eV/Ang:
  0 Li    0.00615   -0.00066   -0.27642
  1 Li   -0.00961   -0.00195   -0.27550
  2 Li    0.00081   -0.00445   -0.27574
  3 Li    0.00054   -0.00150   -0.28493
  4 Li   -0.00189   -0.00140   -0.26249
  5 Li   -0.00162    0.00557   -0.28274
  6 Li   -0.00120   -0.00081   -0.26747
  7 Li    0.00105    0.00081   -0.28340
  8 Li   -0.00149   -0.00448   -0.26896
  9 Li    0.00811   -0.02624    0.23365
 10 Li    0.02510   -0.03635    0.20892
 11 Li   -0.01882   -0.03630    0.23159
 12 Li    0.01240    0.01747    0.32128
 13 Li    0.00940    0.00444    0.26156
 14 Li    0.00042   -0.00822    0.27997
 15 Li   -0.02198    0.03815    0.28132
 16 Li    0.04411    0.05027    0.22363
 17 Li   -0.00807    0.06248    0.22990
 18 Li   -0.00541   -0.00297    0.00259
 19 Li   -0.00609    0.00914    0.01179
 20 Li    0.00278    0.01064   -0.00697
 21 Li    0.00377    0.00981   -0.01089
 22 Li   -0.00457   -0.01181    0.01806
 23 Li   -0.00271   -0.01303    0.01209
 24 Li   -0.00700   -0.00941    0.01233
 25 Li    0.01166    0.01058    0.01179
 26 Li    0.00521   -0.00759    0.00913
 27 Li   -0.00454   -0.01873    0.00922
 28 Li   -0.00530    0.00117   -0.00705
 29 Li    0.01080   -0.00106   -0.00859
 30 Li   -0.00766   -0.00366    0.04222
 31 Li    0.00578    0.00351    0.02773
 32 Li   -0.01777    0.00028    0.01343
 33 Li   -0.01338    0.00957    0.02362
 34 Li    0.00096   -0.00592   -0.01693
 35 Li    0.01162    0.00060   -0.00906
 36 O    -0.09234    0.08000   -0.01511
 37 O    -0.08115   -0.07443   -0.06469
 38 C     0.08875   -0.01910    0.06159
 39 C    -0.02400    0.01404    0.03254
 40 H    -0.04895   -0.08374   -0.05223
 41 H     0.03353    0.08602    0.00914
 42 H    -0.02464    0.07202   -0.00440
 43 H     0.06009   -0.00553    0.08864
 44 H     0.02335   -0.04123    0.04429
 45 H     0.02015   -0.02446   -0.03849

System changes: positions 

Initializing position-dependent things.

Density initialized from wave functions
       .-----------------------.  
      /|                       |  
     / |                       |  
    /  |                       |  
   /   |                       |  
  /    |                       |  
 *     |                       |  
 |     |                       |  
 |     |                       |  
 |     |                       |  
 |     |                       |  
 |     |             H     H   |  
 | H   |       Li    C         |  
 |     |           H     CO    |  
 |   Li|     Li      Li  H     |  
 |     |  Li      Li      Li   |  
 | Li  |   Li      Li          |  
 |     |Li      Li      Li     |  
 Li    |         Li            |  
 |   LLi     LLi     LLi       |  
 |     |  Li      Li      Li   |  
 | Li  |   Li      Li          |  
 |     |Li      Li      Li     |  
 Li    | Li      Li            |  
 |    Li      Li      Li       |  
 |     |                       |  
 |     |                       |  
 |     |                       |  
 |     |                       |  
 |     |                       |  
 |     |                       |  
 |     .-----------------------.  
 |    /                       /   
 |   /                       /    
 |  /                       /     
 | /                       /      
 |/                       /       
 *-----------------------*        

Positions:
   0 Li     1.617037    1.617037   10.000000    ( 0.0000,  0.0000,  0.0000)
   1 Li     4.851111    1.617037   10.000000    ( 0.0000,  0.0000,  0.0000)
   2 Li     8.085185    1.617037   10.000000    ( 0.0000,  0.0000,  0.0000)
   3 Li     1.617037    4.851111   10.000000    ( 0.0000,  0.0000,  0.0000)
   4 Li     4.851111    4.851111   10.000000    ( 0.0000,  0.0000,  0.0000)
   5 Li     8.085185    4.851111   10.000000    ( 0.0000,  0.0000,  0.0000)
   6 Li     1.617037    8.085185   10.000000    ( 0.0000,  0.0000,  0.0000)
   7 Li     4.851111    8.085185   10.000000    ( 0.0000,  0.0000,  0.0000)
   8 Li     8.085185    8.085185   10.000000    ( 0.0000,  0.0000,  0.0000)
   9 Li     0.000000    0.000000   11.617037    ( 0.0000,  0.0000,  0.0000)
  10 Li     3.234074    0.000000   11.617037    ( 0.0000,  0.0000,  0.0000)
  11 Li     6.468148    0.000000   11.617037    ( 0.0000,  0.0000,  0.0000)
  12 Li     0.000000    3.234074   11.617037    ( 0.0000,  0.0000,  0.0000)
  13 Li     3.234074    3.234074   11.617037    ( 0.0000,  0.0000,  0.0000)
  14 Li     6.468148    3.234074   11.617037    ( 0.0000,  0.0000,  0.0000)
  15 Li     0.000000    6.468148   11.617037    ( 0.0000,  0.0000,  0.0000)
  16 Li     3.234074    6.468148   11.617037    ( 0.0000,  0.0000,  0.0000)
  17 Li     6.468148    6.468148   11.617037    ( 0.0000,  0.0000,  0.0000)
  18 Li     1.655889    1.565335   13.422575    ( 0.0000,  0.0000,  0.0000)
  19 Li     4.864463    1.583612   13.432024    ( 0.0000,  0.0000,  0.0000)
  20 Li     8.079162    1.566942   13.433930    ( 0.0000,  0.0000,  0.0000)
  21 Li     1.682598    4.929116   13.404748    ( 0.0000,  0.0000,  0.0000)
  22 Li     4.872296    4.874306   13.468013    ( 0.0000,  0.0000,  0.0000)
  23 Li     8.034053    4.912994   13.432352    ( 0.0000,  0.0000,  0.0000)
  24 Li     1.626770    8.121740   13.482350    ( 0.0000,  0.0000,  0.0000)
  25 Li     4.845166    8.076253   13.487819    ( 0.0000,  0.0000,  0.0000)
  26 Li     8.073485    8.140121   13.517313    ( 0.0000,  0.0000,  0.0000)
  27 Li     0.057812    0.086671   15.518640    ( 0.0000,  0.0000,  0.0000)
  28 Li     3.261173   -0.002265   15.419841    ( 0.0000,  0.0000,  0.0000)
  29 Li     6.424514    0.013597   15.465963    ( 0.0000,  0.0000,  0.0000)
  30 Li     0.088062    3.333337   15.034775    ( 0.0000,  0.0000,  0.0000)
  31 Li     3.233703    3.231037   15.296127    ( 0.0000,  0.0000,  0.0000)
  32 Li     6.476408    3.195404   15.365611    ( 0.0000,  0.0000,  0.0000)
  33 Li     0.012856    6.491273   15.344698    ( 0.0000,  0.0000,  0.0000)
  34 Li     3.231371    6.471286   15.454556    ( 0.0000,  0.0000,  0.0000)
  35 Li     6.455226    6.480634   15.447086    ( 0.0000,  0.0000,  0.0000)
  36 O     -0.128427    1.478145   18.519718    ( 0.0000,  0.0000,  0.0000)
  37 O     -2.971530    1.729597   18.142634    ( 0.0000,  0.0000,  0.0000)
  38 C     -0.758652    2.749965   18.270237    ( 0.0000,  0.0000,  0.0000)
  39 C     -2.201948    2.776975   18.743773    ( 0.0000,  0.0000,  0.0000)
  40 H     -0.185625    3.577005   18.709985    ( 0.0000,  0.0000,  0.0000)
  41 H     -0.762040    2.864377   17.181207    ( 0.0000,  0.0000,  0.0000)
  42 H     -2.664187    3.714080   18.424539    ( 0.0000,  0.0000,  0.0000)
  43 H     -2.270395    2.722589   19.836193    ( 0.0000,  0.0000,  0.0000)
  44 H      0.358994    1.537580   19.348026    ( 0.0000,  0.0000,  0.0000)
  45 H     -2.545842    0.898404   18.398641    ( 0.0000,  0.0000,  0.0000)

Unit cell:
           periodic     x           y           z      points  spacing
  1. axis:    yes    9.702222    0.000000    0.000000    60     0.1617
  2. axis:    yes    0.000000    9.702222    0.000000    60     0.1617
  3. axis:    no     0.000000    0.000000   24.851111   156     0.1593

  Lengths:   9.702222   9.702222  24.851111
  Angles:   90.000000  90.000000  90.000000

Effective grid spacing dv^(1/3) = 0.1609

     iter     time        total  log10-change:
                         energy  eigst   dens
iter:   1 17:02:56  -290.730361  -1.16
iter:   2 17:08:08  -290.730959  -1.97  -2.28
iter:   3 17:12:54  -290.730949c -2.48  -2.36
iter:   4 17:20:15  -290.730682c -2.88  -2.40
Writing to output.gpw (mode='')

iter:   5 17:26:47  -290.728302c -2.50  -2.43
iter:   6 17:31:19  -290.728516c -2.27  -2.79
iter:   7 17:35:54  -290.728990c -2.57  -2.77
iter:   8 17:39:50  -290.729065c -3.12  -2.64
iter:   9 17:45:09  -290.728696c -3.55  -2.72
Writing to output.gpw (mode='')

iter:  10 17:48:54  -290.728521c -3.46  -2.86
iter:  11 17:55:45  -290.728518c -4.03  -3.00
iter:  12 18:00:05  -290.728362c -3.94  -2.96
iter:  13 18:03:42  -290.728342c -3.45  -3.15
iter:  14 18:08:51  -290.728333c -4.31  -3.30
Writing to output.gpw (mode='')

iter:  15 18:13:03  -290.728336c -4.40  -3.49
iter:  16 18:19:45  -290.728337c -5.20  -3.54
iter:  17 18:23:30  -290.728345c -4.61  -3.72
iter:  18 18:27:30  -290.728339c -5.49  -3.86
