
  ___ ___ ___ _ _ _  
 |   |   |_  | | | | 
 | | | | | . | | | | 
 |__ |  _|___|_____|  22.8.0
 |___|_|             

User:   vazumah@c14.hercules
Date:   Thu Mar  2 10:59:10 2023
Arch:   x86_64
Pid:    23159
CWD:    /home/vazumah/Python_projects/LiNRR/Li_adsorb_studies/proton_donors/N2_with_proton_donor/Li_BCC_100/adsorbates/HBr/ontop/9.702_9.702/N2_y
Python: 3.10.8
gpaw:   /home/vazumah/.conda/envs/GPAW/lib/python3.10/site-packages/gpaw
_gpaw:  /home/vazumah/.conda/envs/GPAW/lib/python3.10/site-packages/
        _gpaw.cpython-310-x86_64-linux-gnu.so
ase:    /home/vazumah/.conda/envs/GPAW/lib/python3.10/site-packages/ase (version 3.22.1)
numpy:  /home/vazumah/.conda/envs/GPAW/lib/python3.10/site-packages/numpy (version 1.24.1)
scipy:  /home/vazumah/.conda/envs/GPAW/lib/python3.10/site-packages/scipy (version 1.10.0)
libxc:  5.2.3
units:  Angstrom and eV
cores: 24
OpenMP: True
OMP_NUM_THREADS: 1

Input parameters:
  h: 0.16
  kpts: {size: [4, 4, 1]}
  occupations: {name: fermi-dirac,
                width: 0.05}
  poissonsolver: {dipolelayer: xy}
  xc: BEEF-vdW

System changes: positions, numbers, cell, pbc, initial_charges, initial_magmoms 

Initialize ...

species:
  Li:
    name: Lithium
    id: 830b4218f175192f93f959cfc0aad614
    Z: 3.0
    valence: 1
    core: 2
    charge: 0.0
    file: /home/vazumah/.conda/envs/GPAW/share/gpaw/Li.PBE.gz
    compensation charges: {type: gauss,
                           rc: 0.33,
                           lmax: 2}
    cutoffs: {filter: 1.91,
              core: 2.55}
    valence states:
      #              energy  rcut
      - 2s(1.00)    -2.874   1.058
      - 2p(0.00)    -1.090   1.058
      -  s          24.337   1.058
  
    # Using partial waves for Li as LCAO basis

  Br:
    name: Bromine
    id: 39dc90fcf3bf77f2d83386b416c2c495
    Z: 35.0
    valence: 7
    core: 28
    charge: 0.0
    file: /home/vazumah/.conda/envs/GPAW/share/gpaw/Br.PBE.gz
    compensation charges: {type: gauss,
                           rc: 0.35,
                           lmax: 2}
    cutoffs: {filter: 1.98,
              core: 2.38}
    valence states:
      #              energy  rcut
      - 4s(2.00)   -20.121   1.111
      - 4p(5.00)    -7.861   1.111
      -  s           7.091   1.111
      -  p          19.351   1.111
      -  d           0.000   1.111
  
    # Using partial waves for Br as LCAO basis

  H:
    name: Hydrogen
    id: d65de229564ff8ea4db303e23b6d1ecf
    Z: 1.0
    valence: 1
    core: 0
    charge: 0.0
    file: /home/vazumah/.conda/envs/GPAW/share/gpaw/H.PBE.gz
    compensation charges: {type: gauss,
                           rc: 0.15,
                           lmax: 2}
    cutoffs: {filter: 0.85,
              core: 0.53}
    valence states:
      #              energy  rcut
      - 1s(1.00)    -6.494   0.476
      -  s          20.717   0.476
      -  p           0.000   0.476
  
    # Using partial waves for H as LCAO basis

  N:
    name: Nitrogen
    id: f7500608b86eaa90eef8b1d9a670dc53
    Z: 7.0
    valence: 5
    core: 2
    charge: 0.0
    file: /home/vazumah/.conda/envs/GPAW/share/gpaw/N.PBE.gz
    compensation charges: {type: gauss,
                           rc: 0.18,
                           lmax: 2}
    cutoffs: {filter: 1.11,
              core: 0.96}
    valence states:
      #              energy  rcut
      - 2s(2.00)   -18.583   0.603
      - 2p(3.00)    -7.089   0.529
      -  s           8.629   0.603
      -  p          20.123   0.529
      -  d           0.000   0.577
  
    # Using partial waves for N as LCAO basis

Reference energy: -81178.542429  # eV

Spin-paired calculation

Convergence criteria:
 Maximum [total energy] change in last 3 cyles: 0.0005 eV / electron
 Maximum integral of absolute [dens]ity change: 0.0001 electrons / valence electron
 Maximum integral of absolute [eigenst]ate change: 4e-08 eV^2 / valence electron
 Maximum number of scf [iter]ations: 333
 (Square brackets indicate name in SCF output, whereas a 'c' in
 the SCF output indicates the quantity has converged.)

Symmetries present (total): 1

  ( 1  0  0)
  ( 0  1  0)
  ( 0  0  1)

16 k-points: 4 x 4 x 1 Monkhorst-Pack grid
8 k-points in the irreducible part of the Brillouin zone
       k-points in crystal coordinates                weights
   0:     0.12500000   -0.37500000    0.00000000          2/16
   1:     0.12500000   -0.12500000    0.00000000          2/16
   2:     0.12500000    0.12500000    0.00000000          2/16
   3:     0.12500000    0.37500000    0.00000000          2/16
   4:     0.37500000   -0.37500000    0.00000000          2/16
   5:     0.37500000   -0.12500000    0.00000000          2/16
   6:     0.37500000    0.12500000    0.00000000          2/16
   7:     0.37500000    0.37500000    0.00000000          2/16

Wave functions: Uniform real-space grid
  Kinetic energy operator: 6*3+1=19 point O(h^6) finite-difference Laplacian
  ScaLapack parameters: grid=1x1, blocksize=None
  Wavefunction extrapolation:
    Improved wavefunction reuse through dual PAW basis 

Occupation numbers: Fermi-Dirac:
  width: 0.0500  # eV
 

Eigensolver
   Davidson(niter=2) 

Densities:
  Coarse grid: 60*60*168 grid
  Fine grid: 120*120*336 grid
  Total Charge: 0.000000 

Density mixing:
  Method: separate
  Backend: pulay
  Linear mixing parameter: 0.05
  old densities: 5
  Damping of long wavelength oscillations: 50 

Hamiltonian:
  XC and Coulomb potentials evaluated on a 120*120*336 grid
  Using the BEEF-vdW Exchange-Correlation functional
  Interpolation: tri-quintic (5. degree polynomial)
  Poisson solver: FastPoissonSolver using
    Stencil: 6*3+1=19 point O(h^6) finite-difference Laplacian
    FFT axes: [0, 1]
    FST axes: [2]

Dipole correction along z-axis 

XC parameters: BEEF-vdW with 2 nearest neighbor stencil

Memory estimate:
  Process memory now: 231.07 MiB
  Calculator: 395.41 MiB
    Density: 121.75 MiB
      Arrays: 39.61 MiB
      Localized functions: 67.04 MiB
      Mixer: 15.11 MiB
    Hamiltonian: 31.20 MiB
      Arrays: 25.90 MiB
      XC: 0.00 MiB
      Poisson: 0.00 MiB
      vbar: 5.30 MiB
    Wavefunctions: 242.46 MiB
      Arrays psit_nG: 111.79 MiB
      Eigensolver: 127.10 MiB
      Projections: 0.04 MiB
      Projectors: 3.53 MiB

Total number of cores used: 24
Parallelization over k-points: 8
Domain decomposition: 1 x 1 x 3

Number of atoms: 40
Number of atomic orbitals: 157
Number of bands in calculation: 37
Number of valence electrons: 54
Bands to converge: occupied

... initialized

Initializing position-dependent things.

Density initialized from atomic densities
Creating initial wave functions:
  37 bands from LCAO basis set

       .-----------------------.  
      /|                       |  
     / |                       |  
    /  |                       |  
   /   |                       |  
  /    |                       |  
 *     |                       |  
 |     |                       |  
 |     |                       |  
 |     |                       |  
 |     |                       |  
 |     |                       |  
 |     |                       N  
 |     |                       |  
 |     |                       |  
 Br    |             H         |  
 |   Li|     Li      Li        |  
 |     |  Li      Li      Ni   |  
 | Li  |   Li      Li          |  
 |     |Li      Li      Li     |  
 Li    | Li      Li            |  
 |   LLi     LLi     LLi       |  
 |     |  Li      Li      Li   |  
 | Li  |   Li      Li          |  
 |     |Li      Li      Li     |  
 Li    | Li      Li            |  
 |    Li      Li      Li       |  
 |     |                       |  
 |     |                       |  
 |     |                       |  
 |     |                       |  
 |     |                       |  
 |     |                       |  
 |     .-----------------------.  
 |    /                       /   
 |   /                       /    
 |  /                       /     
 | /                       /      
 |/                       /       
 *-----------------------*        

Positions:
   0 Li     1.617037    1.617037   10.000000    ( 0.0000,  0.0000,  0.0000)
   1 Li     4.851111    1.617037   10.000000    ( 0.0000,  0.0000,  0.0000)
   2 Li     8.085185    1.617037   10.000000    ( 0.0000,  0.0000,  0.0000)
   3 Li     1.617037    4.851111   10.000000    ( 0.0000,  0.0000,  0.0000)
   4 Li     4.851111    4.851111   10.000000    ( 0.0000,  0.0000,  0.0000)
   5 Li     8.085185    4.851111   10.000000    ( 0.0000,  0.0000,  0.0000)
   6 Li     1.617037    8.085185   10.000000    ( 0.0000,  0.0000,  0.0000)
   7 Li     4.851111    8.085185   10.000000    ( 0.0000,  0.0000,  0.0000)
   8 Li     8.085185    8.085185   10.000000    ( 0.0000,  0.0000,  0.0000)
   9 Li     0.000000    0.000000   11.617037    ( 0.0000,  0.0000,  0.0000)
  10 Li     3.234074    0.000000   11.617037    ( 0.0000,  0.0000,  0.0000)
  11 Li     6.468148    0.000000   11.617037    ( 0.0000,  0.0000,  0.0000)
  12 Li     0.000000    3.234074   11.617037    ( 0.0000,  0.0000,  0.0000)
  13 Li     3.234074    3.234074   11.617037    ( 0.0000,  0.0000,  0.0000)
  14 Li     6.468148    3.234074   11.617037    ( 0.0000,  0.0000,  0.0000)
  15 Li     0.000000    6.468148   11.617037    ( 0.0000,  0.0000,  0.0000)
  16 Li     3.234074    6.468148   11.617037    ( 0.0000,  0.0000,  0.0000)
  17 Li     6.468148    6.468148   11.617037    ( 0.0000,  0.0000,  0.0000)
  18 Li     1.617038    1.617038   13.469728    ( 0.0000,  0.0000,  0.0000)
  19 Li     4.851111    1.617038   13.469729    ( 0.0000,  0.0000,  0.0000)
  20 Li     8.085184    1.617038   13.469728    ( 0.0000,  0.0000,  0.0000)
  21 Li     1.617038    4.851111   13.469729    ( 0.0000,  0.0000,  0.0000)
  22 Li     4.851111    4.851111   13.469730    ( 0.0000,  0.0000,  0.0000)
  23 Li     8.085184    4.851111   13.469729    ( 0.0000,  0.0000,  0.0000)
  24 Li     1.617038    8.085184   13.469728    ( 0.0000,  0.0000,  0.0000)
  25 Li     4.851111    8.085184   13.469729    ( 0.0000,  0.0000,  0.0000)
  26 Li     8.085184    8.085184   13.469728    ( 0.0000,  0.0000,  0.0000)
  27 Li    -0.000000   -0.000000   15.445939    ( 0.0000,  0.0000,  0.0000)
  28 Li     3.234074    0.000000   15.445939    ( 0.0000,  0.0000,  0.0000)
  29 Li     6.468148    0.000000   15.445939    ( 0.0000,  0.0000,  0.0000)
  30 Li     0.000000    3.234074   15.445939    ( 0.0000,  0.0000,  0.0000)
  31 Li     3.234076    3.234076   15.445938    ( 0.0000,  0.0000,  0.0000)
  32 Li     6.468146    3.234076   15.445938    ( 0.0000,  0.0000,  0.0000)
  33 Li     0.000000    6.468148   15.445939    ( 0.0000,  0.0000,  0.0000)
  34 Li     3.234076    6.468146   15.445938    ( 0.0000,  0.0000,  0.0000)
  35 Li     6.468146    6.468146   15.445938    ( 0.0000,  0.0000,  0.0000)
  36 Br     9.702222    9.702222   19.445939    ( 0.0000,  0.0000,  0.0000)
  37 H      8.280365    9.702222   19.445939    ( 0.0000,  0.0000,  0.0000)
  38 N      9.702000    9.702000   17.445939    ( 0.0000,  0.0000,  0.0000)
  39 N      9.702000   10.798622   17.445939    ( 0.0000,  0.0000,  0.0000)

Unit cell:
           periodic     x           y           z      points  spacing
  1. axis:    yes    9.702222    0.000000    0.000000    60     0.1617
  2. axis:    yes    0.000000    9.702222    0.000000    60     0.1617
  3. axis:    no     0.000000    0.000000   26.851111   168     0.1598

  Lengths:   9.702222   9.702222  26.851111
  Angles:   90.000000  90.000000  90.000000

Effective grid spacing dv^(1/3) = 0.1611

     iter     time        total  log10-change:
                         energy  eigst   dens
iter:   1 11:02:35  -480.032068
iter:   2 11:05:03  -253.215891  +2.34  -0.07
iter:   3 11:07:41  -200.502393  +3.23  -0.23
iter:   4 11:10:07  -273.402505  +3.14  -0.19
Writing to output.gpw (mode='')

iter:   5 11:12:42  -268.582252  +2.68  -0.20
iter:   6 11:15:18  -299.419593  +2.49  -0.59
iter:   7 11:17:43  -321.348871  +2.19  -0.74
iter:   8 11:20:14  -333.634796  +1.89  -0.71
iter:   9 11:22:39  -336.579020  +1.75  -0.64
Writing to output.gpw (mode='')

iter:  10 11:25:11  -337.675448  +1.62  -0.73
iter:  11 11:27:41  -335.945182  +1.39  -0.67
iter:  12 11:30:07  -333.531205  +1.33  -0.73
iter:  13 11:32:33  -335.240802  +1.02  -0.79
iter:  14 11:35:01  -339.587404  +1.23  -0.76
Writing to output.gpw (mode='')

iter:  15 11:37:23  -342.588547  +1.08  -0.71
iter:  16 11:39:49  -341.117836  +0.87  -0.66
iter:  17 11:42:19  -330.301861  +0.49  -0.65
iter:  18 11:44:48  -330.534890  +0.31  -0.82
iter:  19 11:47:10  -337.321410  +0.80  -0.82
Writing to output.gpw (mode='')

iter:  20 11:49:37  -335.513207  +0.65  -0.67
iter:  21 11:52:03  -331.157936  +0.45  -0.66
iter:  22 11:54:39  -327.697675  +0.55  -0.85
iter:  23 11:57:12  -327.431805  +0.03  -1.10
iter:  24 11:59:43  -327.164626  -0.18  -1.12
Writing to output.gpw (mode='')

iter:  25 12:02:09  -326.998947  -0.26  -1.15
iter:  26 12:04:44  -326.964539  -0.27  -1.21
iter:  27 12:07:26  -326.854399  -0.50  -1.35
iter:  28 12:10:03  -326.825217  -0.23  -1.43
iter:  29 12:12:38  -326.824260  -0.73  -1.55
Writing to output.gpw (mode='')

iter:  30 12:15:04  -326.802092c -1.20  -1.59
iter:  31 12:17:37  -326.795485  -0.88  -1.65
iter:  32 12:20:02  -326.790923c -1.16  -1.76
iter:  33 12:22:32  -326.793545c -1.23  -1.88
iter:  34 12:24:59  -326.793840c -1.32  -1.93
Writing to output.gpw (mode='')

iter:  35 12:27:29  -326.797361c -1.45  -2.10
iter:  36 12:30:06  -326.799342c -1.68  -2.15
iter:  37 12:32:27  -326.800436c -1.80  -2.20
iter:  38 12:34:52  -326.802580c -1.58  -2.30
iter:  39 12:37:13  -326.805885c -1.89  -2.45
Writing to output.gpw (mode='')

iter:  40 12:39:44  -326.805143c -2.04  -2.39
iter:  41 12:42:20  -326.806181c -1.95  -2.73
iter:  42 12:44:49  -326.806637c -2.59  -2.77
iter:  43 12:47:12  -326.807233c -2.27  -2.85
iter:  44 12:49:43  -326.807696c -2.61  -2.96
Writing to output.gpw (mode='')

iter:  45 12:52:17  -326.808061c -2.74  -3.09
iter:  46 12:54:52  -326.808474c -2.65  -3.15
iter:  47 12:57:27  -326.808726c -2.96  -3.23
iter:  48 12:59:56  -326.808971c -2.86  -3.23
iter:  49 13:02:32  -326.809199c -2.93  -3.24
Writing to output.gpw (mode='')

iter:  50 13:05:06  -326.809444c -3.00  -3.31
iter:  51 13:07:37  -326.809610c -3.11  -3.46
iter:  52 13:10:12  -326.809775c -2.98  -3.57
iter:  53 13:12:38  -326.809867c -3.38  -3.62
iter:  54 13:15:20  -326.809957c -3.32  -3.63
Writing to output.gpw (mode='')

iter:  55 13:17:50  -326.810045c -3.42  -3.69
iter:  56 13:20:19  -326.810110c -3.60  -3.98
iter:  57 13:22:50  -326.810169c -3.50  -4.00
iter:  58 13:25:16  -326.810218c -3.68  -3.99
iter:  59 13:27:45  -326.810271c -3.52  -3.88
Writing to output.gpw (mode='')

iter:  60 13:30:23  -326.810331c -3.42  -3.89
iter:  61 13:33:00  -326.810371c -3.76  -3.86
iter:  62 13:35:30  -326.810403c -3.71  -3.85
iter:  63 13:37:59  -326.810426c -3.78  -3.89
iter:  64 13:40:40  -326.810452c -4.13  -3.83
Writing to output.gpw (mode='')

iter:  65 13:43:15  -326.810472c -3.99  -3.75
iter:  66 13:45:47  -326.810483c -4.23  -3.82
iter:  67 13:48:14  -326.810495c -4.05  -3.92
iter:  68 13:50:46  -326.810503c -4.27  -3.95
iter:  69 13:53:17  -326.810513c -4.35  -4.02c
Writing to output.gpw (mode='')

iter:  70 13:55:46  -326.810516c -4.26  -4.02c
iter:  71 13:58:20  -326.810526c -4.19  -4.15c
iter:  72 14:00:51  -326.810533c -4.58  -4.23c
iter:  73 14:03:26  -326.810541c -4.51  -4.32c
iter:  74 14:05:58  -326.810544c -4.54  -4.41c
Writing to output.gpw (mode='')

iter:  75 14:08:40  -326.810549c -4.46  -4.55c
iter:  76 14:11:09  -326.810554c -4.46  -4.68c
iter:  77 14:13:35  -326.810557c -4.77  -4.72c
iter:  78 14:16:09  -326.810559c -4.79  -4.73c
iter:  79 14:18:49  -326.810561c -4.92  -4.83c
Writing to output.gpw (mode='')

iter:  80 14:21:24  -326.810563c -5.07  -4.88c
iter:  81 14:23:51  -326.810566c -4.88  -4.99c
iter:  82 14:26:22  -326.810566c -4.96  -5.09c
iter:  83 14:28:57  -326.810567c -5.23  -5.29c
iter:  84 14:31:25  -326.810568c -5.22  -5.26c
Writing to output.gpw (mode='')

iter:  85 14:33:54  -326.810570c -5.36  -5.19c
iter:  86 14:36:20  -326.810570c -5.40  -4.92c
iter:  87 14:38:41  -326.810571c -5.25  -4.89c
iter:  88 14:41:13  -326.810572c -5.35  -4.83c
iter:  89 14:43:45  -326.810573c -5.43  -4.77c
Writing to output.gpw (mode='')

iter:  90 14:46:16  -326.810573c -5.42  -4.75c
iter:  91 14:48:43  -326.810574c -5.31  -4.68c
iter:  92 14:51:12  -326.810573c -5.58  -4.64c
iter:  93 14:53:44  -326.810575c -5.49  -4.66c
iter:  94 14:56:13  -326.810575c -5.70  -4.56c
Writing to output.gpw (mode='')

iter:  95 14:58:56  -326.810575c -5.65  -4.64c
iter:  96 15:01:23  -326.810573c -5.73  -4.57c
iter:  97 15:03:55  -326.810573c -5.81  -4.87c
iter:  98 15:06:19  -326.810572c -5.76  -4.97c
iter:  99 15:08:46  -326.810573c -6.01  -5.06c
Writing to output.gpw (mode='')

iter: 100 15:11:18  -326.810573c -6.01  -5.20c
iter: 101 15:13:54  -326.810572c -5.91  -5.23c
iter: 102 15:16:25  -326.810572c -6.11  -5.36c
iter: 103 15:18:59  -326.810572c -6.07  -5.42c
iter: 104 15:21:38  -326.810572c -6.18  -5.44c
Writing to output.gpw (mode='')

iter: 105 15:24:09  -326.810572c -6.07  -5.49c
iter: 106 15:26:41  -326.810572c -6.16  -5.54c
iter: 107 15:29:32  -326.810572c -6.17  -5.57c
iter: 108 15:32:11  -326.810572c -6.28  -5.58c
iter: 109 15:34:49  -326.810572c -6.41  -5.67c
Writing to output.gpw (mode='')

iter: 110 15:37:26  -326.810572c -6.49  -5.71c
iter: 111 15:39:50  -326.810572c -6.46  -5.91c
iter: 112 15:42:12  -326.810572c -6.41  -5.92c
iter: 113 15:44:57  -326.810572c -6.33  -5.96c
iter: 114 15:47:36  -326.810572c -6.43  -5.99c
Writing to output.gpw (mode='')

iter: 115 15:50:09  -326.810572c -6.69  -6.05c
iter: 116 15:52:32  -326.810572c -6.62  -6.10c
iter: 117 15:54:57  -326.810572c -6.63  -6.14c
iter: 118 15:57:40  -326.810572c -6.76  -6.32c
iter: 119 16:00:21  -326.810571c -6.80  -6.39c
Writing to output.gpw (mode='')

iter: 120 16:02:56  -326.810571c -6.88  -6.38c
iter: 121 16:05:20  -326.810571c -6.91  -6.23c
iter: 122 16:07:53  -326.810571c -6.95  -6.10c
iter: 123 16:10:28  -326.810571c -6.93  -6.03c
iter: 124 16:12:54  -326.810571c -6.97  -5.98c
Writing to output.gpw (mode='')

iter: 125 16:15:21  -326.810571c -7.09  -5.93c
iter: 126 16:17:41  -326.810571c -7.12  -5.88c
iter: 127 16:20:13  -326.810571c -6.96  -5.83c
iter: 128 16:22:43  -326.810571c -6.98  -5.81c
iter: 129 16:25:04  -326.810571c -7.10  -5.81c
Writing to output.gpw (mode='')

iter: 130 16:27:32  -326.810571c -7.23  -5.81c
iter: 131 16:29:53  -326.810571c -7.32  -5.70c
iter: 132 16:32:20  -326.810571c -7.30  -5.67c
iter: 133 16:34:42  -326.810571c -7.15  -5.73c
iter: 134 16:37:10  -326.810571c -7.35  -5.76c
Writing to output.gpw (mode='')

iter: 135 16:39:45  -326.810571c -7.25  -5.82c
iter: 136 16:42:10  -326.810571c -7.35  -6.03c
iter: 137 16:44:39  -326.810571c -7.48c -5.93c

Converged after 137 iterations.

Dipole moment: (-13.389201, -12.513671, 0.054505) |e|*Ang

Energy contributions relative to reference atoms: (reference = -81178.542429)

Kinetic:       +137.508425
Potential:     -120.632459
External:        +0.000000
XC:            -343.824109
Entropy (-ST):   -0.155078
Local:           +0.215110
--------------------------
Free energy:   -326.888110
Extrapolated:  -326.810571

Dipole-layer corrected work functions: 3.393185, 3.288407 eV

Showing only first 2 kpts
 Kpt  Band  Eigenvalues  Occupancy
  0    25     -3.59346    1.98730
  0    26     -3.51280    1.93787
  0    27     -3.17287    0.06724
  0    28     -3.10946    0.01939

  1    25     -3.37261    1.30785
  1    26     -3.33792    0.97129
  1    27     -3.30708    0.67503
  1    28     -3.27403    0.41655


Fermi level: -3.34080

No gap
Writing to output.gpw (mode='')


Forces in eV/Ang:
  0 Li    0.01284    0.00792   -0.27053
  1 Li    0.00015    0.00142   -0.27080
  2 Li   -0.01312    0.00713   -0.27202
  3 Li   -0.00339    0.00458   -0.26847
  4 Li   -0.00003   -0.00586   -0.28618
  5 Li    0.00381    0.00507   -0.26945
  6 Li    0.00176   -0.01303   -0.27080
  7 Li    0.00075    0.00328   -0.27054
  8 Li   -0.00212   -0.01283   -0.27197
  9 Li   -0.00002    0.00354    0.31823
 10 Li    0.01402   -0.00143    0.25589
 11 Li   -0.01372   -0.00201    0.25304
 12 Li    0.00035    0.00948    0.25964
 13 Li    0.01054    0.00231    0.25138
 14 Li   -0.01039    0.00087    0.25205
 15 Li    0.00062   -0.01381    0.24279
 16 Li   -0.00481   -0.00163    0.25701
 17 Li    0.00356    0.00059    0.25960
 18 Li    0.01065    0.00672   -0.02428
 19 Li   -0.00028   -0.00340    0.06254
 20 Li   -0.01071    0.00492   -0.02550
 21 Li   -0.00601   -0.01052    0.05672
 22 Li   -0.00087    0.00934    0.01894
 23 Li    0.00617   -0.00968    0.05626
 24 Li   -0.00233    0.00474    0.02297
 25 Li   -0.00085   -0.00340    0.04565
 26 Li    0.00268    0.00540    0.02459
 27 Li    0.00432   -0.04306   -0.48580
 28 Li    0.08186   -0.01670   -0.06617
 29 Li   -0.08523   -0.01679   -0.07228
 30 Li    0.00108   -0.04270    0.06925
 31 Li    0.02928    0.02134   -0.03963
 32 Li   -0.03207    0.01960   -0.03693
 33 Li   -0.00031   -0.00690   -0.02295
 34 Li   -0.00547   -0.00008   -0.02122
 35 Li    0.00631    0.00183   -0.02029
 36 Br    0.48986   -2.63034   10.44375
 37 H    -0.41426    0.00403   -0.15092
 38 N    -0.07608   -3.96449   -4.94503
 39 N     0.00027    6.70855   -4.77016

System changes: positions 

Initializing position-dependent things.

Density initialized from wave functions
       .-----------------------.  
      /|                       |  
     / |                       |  
    /  |                       |  
   /   |                       |  
  /    |                       |  
 *     |                       |  
 |     |                       |  
 |     |                       |  
 |     Br                      |  
 |     |                       |  
 |     |                       |  
 |     |                       N  
 |     |                       |  
 |     Li      Li      Li      |  
 |     |             H         |  
 |     |     Li      Li      Li|  
 |     |  Li      Li      Ni   |  
 | Li  |   Li      Li          |  
 |     |Li      Li      Li     |  
 |     |                       |  
 |   LLi     LLi     LLi       |  
 |     |  Li      Li      Li   |  
 | Li  |   Li      Li          |  
 |     |Li      Li      Li     |  
 Li    | Li      Li            |  
 |    Li      Li      Li       |  
 |     |                       |  
 |     |                       |  
 |     |                       |  
 |     |                       |  
 |     |                       |  
 |     |                       |  
 |     .-----------------------.  
 |    /                       /   
 |   /                       /    
 |  /                       /     
 | /                       /      
 |/                       /       
 *-----------------------*        

Positions:
   0 Li     1.617037    1.617037   10.000000    ( 0.0000,  0.0000,  0.0000)
   1 Li     4.851111    1.617037   10.000000    ( 0.0000,  0.0000,  0.0000)
   2 Li     8.085185    1.617037   10.000000    ( 0.0000,  0.0000,  0.0000)
   3 Li     1.617037    4.851111   10.000000    ( 0.0000,  0.0000,  0.0000)
   4 Li     4.851111    4.851111   10.000000    ( 0.0000,  0.0000,  0.0000)
   5 Li     8.085185    4.851111   10.000000    ( 0.0000,  0.0000,  0.0000)
   6 Li     1.617037    8.085185   10.000000    ( 0.0000,  0.0000,  0.0000)
   7 Li     4.851111    8.085185   10.000000    ( 0.0000,  0.0000,  0.0000)
   8 Li     8.085185    8.085185   10.000000    ( 0.0000,  0.0000,  0.0000)
   9 Li     0.000000    0.000000   11.617037    ( 0.0000,  0.0000,  0.0000)
  10 Li     3.234074    0.000000   11.617037    ( 0.0000,  0.0000,  0.0000)
  11 Li     6.468148    0.000000   11.617037    ( 0.0000,  0.0000,  0.0000)
  12 Li     0.000000    3.234074   11.617037    ( 0.0000,  0.0000,  0.0000)
  13 Li     3.234074    3.234074   11.617037    ( 0.0000,  0.0000,  0.0000)
  14 Li     6.468148    3.234074   11.617037    ( 0.0000,  0.0000,  0.0000)
  15 Li     0.000000    6.468148   11.617037    ( 0.0000,  0.0000,  0.0000)
  16 Li     3.234074    6.468148   11.617037    ( 0.0000,  0.0000,  0.0000)
  17 Li     6.468148    6.468148   11.617037    ( 0.0000,  0.0000,  0.0000)
  18 Li     1.617078    1.617063   13.469638    ( 0.0000,  0.0000,  0.0000)
  19 Li     4.851110    1.617026   13.469961    ( 0.0000,  0.0000,  0.0000)
  20 Li     8.085144    1.617056   13.469633    ( 0.0000,  0.0000,  0.0000)
  21 Li     1.617016    4.851072   13.469940    ( 0.0000,  0.0000,  0.0000)
  22 Li     4.851108    4.851146   13.469801    ( 0.0000,  0.0000,  0.0000)
  23 Li     8.085206    4.851075   13.469938    ( 0.0000,  0.0000,  0.0000)
  24 Li     1.617029    8.085201   13.469813    ( 0.0000,  0.0000,  0.0000)
  25 Li     4.851108    8.085171   13.469899    ( 0.0000,  0.0000,  0.0000)
  26 Li     8.085194    8.085204   13.469819    ( 0.0000,  0.0000,  0.0000)
  27 Li     0.000016   -0.000160   15.444137    ( 0.0000,  0.0000,  0.0000)
  28 Li     3.234377   -0.000062   15.445693    ( 0.0000,  0.0000,  0.0000)
  29 Li     6.467832   -0.000062   15.445671    ( 0.0000,  0.0000,  0.0000)
  30 Li     0.000004    3.233915   15.446196    ( 0.0000,  0.0000,  0.0000)
  31 Li     3.234185    3.234156   15.445791    ( 0.0000,  0.0000,  0.0000)
  32 Li     6.468027    3.234149   15.445801    ( 0.0000,  0.0000,  0.0000)
  33 Li    -0.000001    6.468123   15.445854    ( 0.0000,  0.0000,  0.0000)
  34 Li     3.234056    6.468145   15.445859    ( 0.0000,  0.0000,  0.0000)
  35 Li     6.468169    6.468152   15.445863    ( 0.0000,  0.0000,  0.0000)
  36 Br     9.704040    9.692463   19.484688    ( 0.0000,  0.0000,  0.0000)
  37 H      8.278828    9.702237   19.445379    ( 0.0000,  0.0000,  0.0000)
  38 N      9.701718    9.687291   17.427592    ( 0.0000,  0.0000,  0.0000)
  39 N      9.702001   10.823512   17.428241    ( 0.0000,  0.0000,  0.0000)

Unit cell:
           periodic     x           y           z      points  spacing
  1. axis:    yes    9.702222    0.000000    0.000000    60     0.1617
  2. axis:    yes    0.000000    9.702222    0.000000    60     0.1617
  3. axis:    no     0.000000    0.000000   26.851111   168     0.1598

  Lengths:   9.702222   9.702222  26.851111
  Angles:   90.000000  90.000000  90.000000

Effective grid spacing dv^(1/3) = 0.1611

     iter     time        total  log10-change:
                         energy  eigst   dens
iter:   1 16:47:56  -328.790297  +0.09
iter:   2 16:50:32  -328.619892  +0.30  -1.00
iter:   3 16:53:01  -327.478482  -0.35  -1.04
iter:   4 16:55:27  -327.482207  -0.83  -1.77
Writing to output.gpw (mode='')

iter:   5 16:58:07  -327.484629c -0.63  -1.86
iter:   6 17:00:43  -327.487178c -1.24  -2.02
iter:   7 17:03:11  -327.502600c -1.43  -2.04
iter:   8 17:05:40  -327.491352c -1.73  -2.06
iter:   9 17:08:10  -327.492384c -1.42  -2.29
Writing to output.gpw (mode='')

iter:  10 17:10:44  -327.492882c -1.91  -2.13
iter:  11 17:13:17  -327.488371c -2.61  -2.34
iter:  12 17:15:40  -327.488061c -2.60  -2.60
iter:  13 17:18:08  -327.488732c -2.84  -2.72
iter:  14 17:20:33  -327.488378c -2.77  -2.70
Writing to output.gpw (mode='')

iter:  15 17:23:12  -327.488436c -3.22  -2.90
iter:  16 17:25:47  -327.488537c -3.00  -2.94
iter:  17 17:28:15  -327.488472c -3.50  -3.09
iter:  18 17:30:45  -327.488545c -3.69  -3.28
iter:  19 17:33:13  -327.488568c -3.83  -3.41
Writing to output.gpw (mode='')

iter:  20 17:35:50  -327.488560c -3.80  -3.46
iter:  21 17:38:31  -327.488597c -3.85  -3.68
iter:  22 17:41:14  -327.488614c -4.23  -3.73
iter:  23 17:43:50  -327.488610c -3.98  -3.74
iter:  24 17:46:17  -327.488620c -4.28  -3.78
Writing to output.gpw (mode='')

iter:  25 17:48:56  -327.488647c -4.39  -3.87
iter:  26 17:51:21  -327.488651c -4.47  -3.94
iter:  27 17:53:49  -327.488651c -4.51  -4.10c
iter:  28 17:56:25  -327.488658c -4.88  -4.19c
iter:  29 17:58:54  -327.488659c -4.84  -4.25c
Writing to output.gpw (mode='')

iter:  30 18:01:20  -327.488652c -4.85  -4.39c
iter:  31 18:03:49  -327.488661c -5.14  -4.43c
iter:  32 18:06:20  -327.488661c -5.29  -4.47c
iter:  33 18:08:53  -327.488664c -5.16  -4.51c
iter:  34 18:11:23  -327.488664c -5.10  -4.58c
Writing to output.gpw (mode='')

iter:  35 18:13:50  -327.488666c -5.50  -4.64c
iter:  36 18:16:15  -327.488666c -5.39  -4.67c
iter:  37 18:18:38  -327.488666c -5.57  -4.84c
iter:  38 18:21:08  -327.488668c -5.68  -4.95c
iter:  39 18:23:29  -327.488668c -5.72  -5.01c
Writing to output.gpw (mode='')

iter:  40 18:25:51  -327.488669c -5.72  -5.04c
iter:  41 18:28:21  -327.488669c -5.67  -5.07c
iter:  42 18:30:51  -327.488669c -5.95  -5.19c
iter:  43 18:33:18  -327.488670c -6.05  -5.33c
iter:  44 18:35:47  -327.488670c -6.10  -5.41c
Writing to output.gpw (mode='')

iter:  45 18:38:28  -327.488670c -6.18  -5.44c
iter:  46 18:40:59  -327.488670c -6.29  -5.58c
iter:  47 18:43:27  -327.488670c -6.34  -5.46c
iter:  48 18:45:52  -327.488670c -6.38  -5.43c
iter:  49 18:48:17  -327.488670c -6.39  -5.30c
Writing to output.gpw (mode='')

iter:  50 18:50:49  -327.488670c -6.35  -5.22c
iter:  51 18:53:18  -327.488671c -6.36  -5.22c
iter:  52 18:55:47  -327.488671c -6.61  -5.23c
iter:  53 18:58:17  -327.488671c -6.68  -5.22c
iter:  54 19:00:51  -327.488671c -6.72  -5.16c
Writing to output.gpw (mode='')

iter:  55 19:03:26  -327.488671c -6.68  -5.20c
iter:  56 19:05:53  -327.488671c -6.80  -5.28c
iter:  57 19:08:20  -327.488671c -6.87  -5.30c
iter:  58 19:10:48  -327.488672c -6.80  -5.36c
iter:  59 19:13:22  -327.488672c -7.08  -5.62c
Writing to output.gpw (mode='')

iter:  60 19:15:55  -327.488672c -7.07  -5.58c
iter:  61 19:18:29  -327.488672c -6.83  -5.36c
iter:  62 19:20:59  -327.488672c -7.17  -5.42c
iter:  63 19:23:28  -327.488672c -7.29  -5.80c
iter:  64 19:25:56  -327.488672c -7.24  -5.85c
Writing to output.gpw (mode='')

iter:  65 19:28:27  -327.488672c -7.28  -5.91c
iter:  66 19:30:55  -327.488672c -7.36  -5.96c
iter:  67 19:33:22  -327.488672c -7.57c -5.92c

Converged after 67 iterations.

Dipole moment: (-13.525059, -10.182367, 0.023098) |e|*Ang

Energy contributions relative to reference atoms: (reference = -81178.542429)

Kinetic:       +128.099647
Potential:     -113.365264
External:        +0.000000
XC:            -342.370331
Entropy (-ST):   -0.156630
Local:           +0.225591
--------------------------
Free energy:   -327.566987
Extrapolated:  -327.488672

Dipole-layer corrected work functions: 3.396825, 3.352423 eV

Showing only first 2 kpts
 Kpt  Band  Eigenvalues  Occupancy
  0    25     -3.62683    1.98719
  0    26     -3.54849    1.94006
  0    27     -3.21137    0.07357
  0    28     -3.15409    0.02400

  1    25     -3.40329    1.27908
  1    26     -3.37563    1.01001
  1    27     -3.34337    0.69723
  1    28     -3.30016    0.36806


Fermi level: -3.37462

No gap
Writing to output.gpw (mode='')


Forces in eV/Ang:
  0 Li    0.01338    0.00852   -0.27149
  1 Li    0.00013    0.00158   -0.27091
  2 Li   -0.01363    0.00784   -0.27270
  3 Li   -0.00386    0.00490   -0.26831
  4 Li    0.00009   -0.00629   -0.28757
  5 Li    0.00411    0.00544   -0.26949
  6 Li    0.00174   -0.01414   -0.27164
  7 Li    0.00076    0.00324   -0.26995
  8 Li   -0.00217   -0.01410   -0.27259
  9 Li   -0.00012    0.00290    0.32255
 10 Li    0.01313   -0.00112    0.25698
 11 Li   -0.01279   -0.00163    0.25391
 12 Li    0.00032    0.01108    0.25889
 13 Li    0.01101    0.00140    0.25157
 14 Li   -0.01080    0.00024    0.25209
 15 Li    0.00049   -0.01489    0.24244
 16 Li   -0.00285   -0.00102    0.25628
 17 Li    0.00183    0.00090    0.25823
 18 Li    0.00949    0.00882   -0.03153
 19 Li   -0.00009   -0.00494    0.06490
 20 Li   -0.00967    0.00688   -0.03244
 21 Li   -0.00596   -0.00990    0.05623
 22 Li   -0.00109    0.00929    0.01874
 23 Li    0.00634   -0.00921    0.05604
 24 Li   -0.00134    0.00233    0.01635
 25 Li   -0.00057   -0.00118    0.04834
 26 Li    0.00147    0.00318    0.01842
 27 Li    0.00659   -0.01354   -0.47670
 28 Li    0.07588   -0.01664   -0.05657
 29 Li   -0.08009   -0.01704   -0.06572
 30 Li    0.00128   -0.06460    0.09735
 31 Li    0.03044    0.02351   -0.03810
 32 Li   -0.03349    0.02246   -0.03656
 33 Li   -0.00038   -0.00019   -0.01722
 34 Li   -0.00421   -0.00136   -0.02222
 35 Li    0.00502    0.00034   -0.02178
 36 Br    0.33960   -2.19781    8.74582
 37 H    -0.26587    0.01215   -0.13275
 38 N    -0.06472    0.60499   -4.08607
 39 N    -0.01284    1.57098   -4.03724

System changes: positions 

Initializing position-dependent things.

Density initialized from wave functions
       .-----------------------.  
      /|                       |  
     / |                       |  
    /  |                       |  
   /   |                       |  
  /    |                       |  
 *     |                       |  
 |     |                       |  
 |     |                       |  
 |     Br                      |  
 |     |                       |  
 |     |                       |  
 |     |                       N  
 |     |                       |  
 |     Li      Li      Li      |  
 |     |             H         |  
 |     |     Li      Li      Li|  
 |     |  Li      Li      Ni   |  
 | Li  |   Li      Li          |  
 |     |Li      Li      Li     |  
 |     |                       |  
 |   LLi     LLi     LLi       |  
 |     |  Li      Li      Li   |  
 | Li  |   Li      Li          |  
 |     |Li      Li      Li     |  
 Li    | Li      Li            |  
 |    Li      Li      Li       |  
 |     |                       |  
 |     |                       |  
 |     |                       |  
 |     |                       |  
 |     |                       |  
 |     |                       |  
 |     .-----------------------.  
 |    /                       /   
 |   /                       /    
 |  /                       /     
 | /                       /      
 |/                       /       
 *-----------------------*        

Positions:
   0 Li     1.617037    1.617037   10.000000    ( 0.0000,  0.0000,  0.0000)
   1 Li     4.851111    1.617037   10.000000    ( 0.0000,  0.0000,  0.0000)
   2 Li     8.085185    1.617037   10.000000    ( 0.0000,  0.0000,  0.0000)
   3 Li     1.617037    4.851111   10.000000    ( 0.0000,  0.0000,  0.0000)
   4 Li     4.851111    4.851111   10.000000    ( 0.0000,  0.0000,  0.0000)
   5 Li     8.085185    4.851111   10.000000    ( 0.0000,  0.0000,  0.0000)
   6 Li     1.617037    8.085185   10.000000    ( 0.0000,  0.0000,  0.0000)
   7 Li     4.851111    8.085185   10.000000    ( 0.0000,  0.0000,  0.0000)
   8 Li     8.085185    8.085185   10.000000    ( 0.0000,  0.0000,  0.0000)
   9 Li     0.000000    0.000000   11.617037    ( 0.0000,  0.0000,  0.0000)
  10 Li     3.234074    0.000000   11.617037    ( 0.0000,  0.0000,  0.0000)
  11 Li     6.468148    0.000000   11.617037    ( 0.0000,  0.0000,  0.0000)
  12 Li     0.000000    3.234074   11.617037    ( 0.0000,  0.0000,  0.0000)
  13 Li     3.234074    3.234074   11.617037    ( 0.0000,  0.0000,  0.0000)
  14 Li     6.468148    3.234074   11.617037    ( 0.0000,  0.0000,  0.0000)
  15 Li     0.000000    6.468148   11.617037    ( 0.0000,  0.0000,  0.0000)
  16 Li     3.234074    6.468148   11.617037    ( 0.0000,  0.0000,  0.0000)
  17 Li     6.468148    6.468148   11.617037    ( 0.0000,  0.0000,  0.0000)
  18 Li     1.617120    1.617106   13.469484    ( 0.0000,  0.0000,  0.0000)
  19 Li     4.851110    1.617001   13.470265    ( 0.0000,  0.0000,  0.0000)
  20 Li     8.085100    1.617090   13.469476    ( 0.0000,  0.0000,  0.0000)
  21 Li     1.616989    4.851027   13.470200    ( 0.0000,  0.0000,  0.0000)
  22 Li     4.851102    4.851189   13.469887    ( 0.0000,  0.0000,  0.0000)
  23 Li     8.085236    4.851033   13.470198    ( 0.0000,  0.0000,  0.0000)
  24 Li     1.617024    8.085210   13.469882    ( 0.0000,  0.0000,  0.0000)
  25 Li     4.851105    8.085168   13.470125    ( 0.0000,  0.0000,  0.0000)
  26 Li     8.085199    8.085216   13.469898    ( 0.0000,  0.0000,  0.0000)
  27 Li     0.000049   -0.000192   15.441938    ( 0.0000,  0.0000,  0.0000)
  28 Li     3.234723   -0.000139   15.445441    ( 0.0000,  0.0000,  0.0000)
  29 Li     6.467466   -0.000141   15.445373    ( 0.0000,  0.0000,  0.0000)
  30 Li     0.000010    3.233594   15.446675    ( 0.0000,  0.0000,  0.0000)
  31 Li     3.234327    3.234267   15.445616    ( 0.0000,  0.0000,  0.0000)
  32 Li     6.467870    3.234256   15.445632    ( 0.0000,  0.0000,  0.0000)
  33 Li    -0.000003    6.468129   15.445780    ( 0.0000,  0.0000,  0.0000)
  34 Li     3.234038    6.468138   15.445755    ( 0.0000,  0.0000,  0.0000)
  35 Li     6.468191    6.468152   15.445760    ( 0.0000,  0.0000,  0.0000)
  36 Br     9.705459    9.682726   19.523459    ( 0.0000,  0.0000,  0.0000)
  37 H      8.277748    9.702302   19.444783    ( 0.0000,  0.0000,  0.0000)
  38 N      9.701430    9.694763   17.409546    ( 0.0000,  0.0000,  0.0000)
  39 N      9.701928   10.825537   17.410292    ( 0.0000,  0.0000,  0.0000)

Unit cell:
           periodic     x           y           z      points  spacing
  1. axis:    yes    9.702222    0.000000    0.000000    60     0.1617
  2. axis:    yes    0.000000    9.702222    0.000000    60     0.1617
  3. axis:    no     0.000000    0.000000   26.851111   168     0.1598

  Lengths:   9.702222   9.702222  26.851111
  Angles:   90.000000  90.000000  90.000000

Effective grid spacing dv^(1/3) = 0.1611

     iter     time        total  log10-change:
                         energy  eigst   dens
iter:   1 19:36:24  -328.054480  -1.17
iter:   2 19:38:48  -327.999664  -1.01  -1.63
iter:   3 19:41:17  -327.981853  -2.11  -1.79
iter:   4 19:43:52  -327.977156c -1.33  -2.24
Writing to output.gpw (mode='')

iter:   5 19:46:21  -327.971334c -2.32  -2.07
iter:   6 19:48:49  -327.977988c -1.78  -2.37
iter:   7 19:51:23  -327.971250c -2.39  -2.21
iter:   8 19:53:55  -327.970420c -2.81  -2.59
iter:   9 19:56:28  -327.970379c -3.16  -2.76
Writing to output.gpw (mode='')

iter:  10 19:59:01  -327.970284c -2.85  -2.86
iter:  11 20:01:28  -327.970175c -2.98  -3.01
iter:  12 20:04:01  -327.970252c -3.48  -3.14
iter:  13 20:06:36  -327.970313c -3.74  -3.13
iter:  14 20:09:11  -327.970209c -3.57  -3.19
Writing to output.gpw (mode='')

iter:  15 20:11:47  -327.970263c -3.95  -3.37
iter:  16 20:14:27  -327.970260c -4.20  -3.54
iter:  17 20:17:02  -327.970297c -4.28  -3.58
iter:  18 20:19:30  -327.970330c -4.34  -3.62
iter:  19 20:22:02  -327.970319c -4.49  -3.71
Writing to output.gpw (mode='')

iter:  20 20:24:26  -327.970321c -4.90  -3.87
iter:  21 20:26:56  -327.970332c -4.84  -3.91
iter:  22 20:29:23  -327.970331c -4.99  -4.05c
iter:  23 20:31:55  -327.970332c -5.21  -4.15c
iter:  24 20:34:28  -327.970334c -5.27  -4.17c
Writing to output.gpw (mode='')

iter:  25 20:36:58  -327.970338c -5.40  -4.24c
iter:  26 20:39:38  -327.970338c -5.54  -4.38c
iter:  27 20:42:07  -327.970339c -5.51  -4.71c
iter:  28 20:44:41  -327.970340c -5.49  -4.76c
iter:  29 20:47:07  -327.970341c -5.78  -4.77c
Writing to output.gpw (mode='')

iter:  30 20:49:37  -327.970342c -5.76  -4.77c
iter:  31 20:52:05  -327.970342c -5.93  -4.75c
iter:  32 20:54:39  -327.970341c -5.94  -4.74c
iter:  33 20:57:06  -327.970342c -6.17  -4.64c
iter:  34 20:59:38  -327.970343c -6.14  -4.68c
Writing to output.gpw (mode='')

iter:  35 21:02:14  -327.970343c -6.25  -4.72c
iter:  36 21:04:43  -327.970343c -6.06  -4.76c
iter:  37 21:07:26  -327.970347c -6.50  -4.77c
iter:  38 21:10:05  -327.970345c -6.52  -4.97c
iter:  39 21:12:46  -327.970346c -6.61  -5.06c
Writing to output.gpw (mode='')

iter:  40 21:15:16  -327.970346c -6.55  -5.17c
iter:  41 21:17:55  -327.970347c -6.52  -5.22c
iter:  42 21:20:21  -327.970346c -6.59  -5.28c
iter:  43 21:22:59  -327.970347c -6.63  -5.56c
iter:  44 21:25:31  -327.970347c -6.64  -5.64c
Writing to output.gpw (mode='')

iter:  45 21:27:59  -327.970347c -6.80  -5.67c
iter:  46 21:30:23  -327.970348c -6.78  -5.71c
iter:  47 21:32:50  -327.970348c -6.97  -5.78c
iter:  48 21:35:27  -327.970348c -6.94  -5.81c
iter:  49 21:37:54  -327.970348c -7.05  -5.80c
Writing to output.gpw (mode='')

iter:  50 21:40:26  -327.970348c -7.10  -5.73c
iter:  51 21:42:48  -327.970348c -7.37  -5.70c
iter:  52 21:45:21  -327.970348c -7.32  -5.65c
iter:  53 21:47:50  -327.970348c -7.41c -5.59c

Converged after 53 iterations.

Dipole moment: (-13.596607, -10.233185, 0.014486) |e|*Ang

Energy contributions relative to reference atoms: (reference = -81178.542429)

Kinetic:       +126.271681
Potential:     -112.225668
External:        +0.000000
XC:            -342.172637
Entropy (-ST):   -0.155249
Local:           +0.233901
--------------------------
Free energy:   -328.047972
Extrapolated:  -327.970348

Dipole-layer corrected work functions: 3.397601, 3.369755 eV

Showing only first 2 kpts
 Kpt  Band  Eigenvalues  Occupancy
  0    25     -3.63646    1.98733
  0    26     -3.56140    1.94439
  0    27     -3.21442    0.06553
  0    28     -3.16740    0.02611

  1    25     -3.41334    1.28817
  1    26     -3.38306    0.99384
  1    27     -3.35317    0.70401
  1    28     -3.30810    0.36143


Fermi level: -3.38368

No gap
Writing to output.gpw (mode='')


Forces in eV/Ang:
  0 Li    0.01307    0.00861   -0.27123
  1 Li    0.00014    0.00168   -0.27121
  2 Li   -0.01332    0.00795   -0.27229
  3 Li   -0.00397    0.00484   -0.26838
  4 Li    0.00008   -0.00635   -0.28780
  5 Li    0.00416    0.00535   -0.26951
  6 Li    0.00164   -0.01422   -0.27149
  7 Li    0.00074    0.00315   -0.27006
  8 Li   -0.00208   -0.01417   -0.27244
  9 Li   -0.00018    0.00231    0.32182
 10 Li    0.01296   -0.00084    0.25733
 11 Li   -0.01263   -0.00126    0.25435
 12 Li    0.00029    0.01206    0.25759
 13 Li    0.01062    0.00115    0.25158
 14 Li   -0.01042    0.00001    0.25209
 15 Li    0.00045   -0.01520    0.24286
 16 Li   -0.00169   -0.00091    0.25594
 17 Li    0.00081    0.00090    0.25776
 18 Li    0.00724    0.00900   -0.02893
 19 Li    0.00000   -0.00469    0.06393
 20 Li   -0.00745    0.00737   -0.02960
 21 Li   -0.00529   -0.00922    0.05558
 22 Li   -0.00097    0.00885    0.01930
 23 Li    0.00565   -0.00872    0.05535
 24 Li   -0.00070    0.00172    0.01549
 25 Li   -0.00057   -0.00112    0.04800
 26 Li    0.00087    0.00255    0.01747
 27 Li    0.00597   -0.02439   -0.56443
 28 Li    0.07689   -0.01665   -0.05770
 29 Li   -0.08104   -0.01725   -0.06758
 30 Li    0.00104   -0.05667    0.08830
 31 Li    0.03021    0.02330   -0.03871
 32 Li   -0.03290    0.02241   -0.03775
 33 Li   -0.00041   -0.00036   -0.01711
 34 Li   -0.00443   -0.00160   -0.02256
 35 Li    0.00517    0.00014   -0.02198
 36 Br    0.19890   -1.86659    7.63708
 37 H    -0.13635    0.01026   -0.11091
 38 N    -0.05497    0.31403   -3.53341
 39 N    -0.01204    1.56211   -3.41588

System changes: positions 

Initializing position-dependent things.

Density initialized from wave functions
       .-----------------------.  
      /|                       |  
     / |                       |  
    /  |                       |  
   /   |                       |  
  /    |                       |  
 *     |                       |  
 |     |                       |  
 |     |                       |  
 |     Br                      |  
 |     |                       |  
 |     |                       |  
 |     |                       N  
 |     |                       |  
 |     Li      Li      Li      |  
 |     |             H         |  
 |     |     Li      Li      Li|  
 |     |  Li      Li      Ni   |  
 | Li  |   Li      Li          |  
 |     |Li      Li      Li     |  
 |     |                       |  
 |   LLi     LLi     LLi       |  
 |     |  Li      Li      Li   |  
 | Li  |   Li      Li          |  
 |     |Li      Li      Li     |  
 Li    | Li      Li            |  
 |    Li      Li      Li       |  
 |     |                       |  
 |     |                       |  
 |     |                       |  
 |     |                       |  
 |     |                       |  
 |     |                       |  
 |     .-----------------------.  
 |    /                       /   
 |   /                       /    
 |  /                       /     
 | /                       /      
 |/                       /       
 *-----------------------*        

Positions:
   0 Li     1.617037    1.617037   10.000000    ( 0.0000,  0.0000,  0.0000)
   1 Li     4.851111    1.617037   10.000000    ( 0.0000,  0.0000,  0.0000)
   2 Li     8.085185    1.617037   10.000000    ( 0.0000,  0.0000,  0.0000)
   3 Li     1.617037    4.851111   10.000000    ( 0.0000,  0.0000,  0.0000)
   4 Li     4.851111    4.851111   10.000000    ( 0.0000,  0.0000,  0.0000)
   5 Li     8.085185    4.851111   10.000000    ( 0.0000,  0.0000,  0.0000)
   6 Li     1.617037    8.085185   10.000000    ( 0.0000,  0.0000,  0.0000)
   7 Li     4.851111    8.085185   10.000000    ( 0.0000,  0.0000,  0.0000)
   8 Li     8.085185    8.085185   10.000000    ( 0.0000,  0.0000,  0.0000)
   9 Li     0.000000    0.000000   11.617037    ( 0.0000,  0.0000,  0.0000)
  10 Li     3.234074    0.000000   11.617037    ( 0.0000,  0.0000,  0.0000)
  11 Li     6.468148    0.000000   11.617037    ( 0.0000,  0.0000,  0.0000)
  12 Li     0.000000    3.234074   11.617037    ( 0.0000,  0.0000,  0.0000)
  13 Li     3.234074    3.234074   11.617037    ( 0.0000,  0.0000,  0.0000)
  14 Li     6.468148    3.234074   11.617037    ( 0.0000,  0.0000,  0.0000)
  15 Li     0.000000    6.468148   11.617037    ( 0.0000,  0.0000,  0.0000)
  16 Li     3.234074    6.468148   11.617037    ( 0.0000,  0.0000,  0.0000)
  17 Li     6.468148    6.468148   11.617037    ( 0.0000,  0.0000,  0.0000)
  18 Li     1.617147    1.617172   13.469302    ( 0.0000,  0.0000,  0.0000)
  19 Li     4.851111    1.616970   13.470691    ( 0.0000,  0.0000,  0.0000)
  20 Li     8.085072    1.617147   13.469292    ( 0.0000,  0.0000,  0.0000)
  21 Li     1.616959    4.850971   13.470569    ( 0.0000,  0.0000,  0.0000)
  22 Li     4.851097    4.851244   13.470023    ( 0.0000,  0.0000,  0.0000)
  23 Li     8.085268    4.850979   13.470565    ( 0.0000,  0.0000,  0.0000)
  24 Li     1.617027    8.085212   13.469969    ( 0.0000,  0.0000,  0.0000)
  25 Li     4.851102    8.085164   13.470451    ( 0.0000,  0.0000,  0.0000)
  26 Li     8.085198    8.085225   13.469998    ( 0.0000,  0.0000,  0.0000)
  27 Li     0.000087   -0.000414   15.437327    ( 0.0000,  0.0000,  0.0000)
  28 Li     3.235244   -0.000252   15.445054    ( 0.0000,  0.0000,  0.0000)
  29 Li     6.466917   -0.000260   15.444908    ( 0.0000,  0.0000,  0.0000)
  30 Li     0.000015    3.233251   15.447230    ( 0.0000,  0.0000,  0.0000)
  31 Li     3.234531    3.234426   15.445351    ( 0.0000,  0.0000,  0.0000)
  32 Li     6.467651    3.234411   15.445366    ( 0.0000,  0.0000,  0.0000)
  33 Li    -0.000006    6.468134   15.445673    ( 0.0000,  0.0000,  0.0000)
  34 Li     3.234008    6.468123   15.445598    ( 0.0000,  0.0000,  0.0000)
  35 Li     6.468225    6.468149   15.445608    ( 0.0000,  0.0000,  0.0000)
  36 Br     9.705291    9.673777   19.562445    ( 0.0000,  0.0000,  0.0000)
  37 H      8.278234    9.702365   19.444260    ( 0.0000,  0.0000,  0.0000)
  38 N      9.701164    9.700875   17.391980    ( 0.0000,  0.0000,  0.0000)
  39 N      9.701835   10.828530   17.393969    ( 0.0000,  0.0000,  0.0000)

Unit cell:
           periodic     x           y           z      points  spacing
  1. axis:    yes    9.702222    0.000000    0.000000    60     0.1617
  2. axis:    yes    0.000000    9.702222    0.000000    60     0.1617
  3. axis:    no     0.000000    0.000000   26.851111   168     0.1598

  Lengths:   9.702222   9.702222  26.851111
  Angles:   90.000000  90.000000  90.000000

Effective grid spacing dv^(1/3) = 0.1611

     iter     time        total  log10-change:
                         energy  eigst   dens
iter:   1 21:51:05  -328.437533  -1.25
iter:   2 21:53:33  -328.400637  -1.19  -1.71
iter:   3 21:56:05  -328.388658  -2.32  -1.88
iter:   4 21:58:38  -328.385427c -1.61  -2.35
Writing to output.gpw (mode='')

iter:   5 22:01:05  -328.382992c -2.54  -2.21
iter:   6 22:03:35  -328.386440c -2.08  -2.55
iter:   7 22:06:06  -328.382497c -2.59  -2.34
iter:   8 22:08:41  -328.382278c -3.18  -2.78
iter:   9 22:11:13  -328.382463c -3.57  -2.86
Writing to output.gpw (mode='')

iter:  10 22:13:47  -328.382395c -3.07  -2.87
iter:  11 22:16:17  -328.382142c -3.27  -3.03
iter:  12 22:18:44  -328.382182c -3.75  -3.23
iter:  13 22:21:13  -328.382354c -3.94  -3.31
iter:  14 22:23:51  -328.382212c -3.75  -3.36
Writing to output.gpw (mode='')

iter:  15 22:26:20  -328.382274c -4.17  -3.47
iter:  16 22:28:43  -328.382267c -4.48  -3.62
iter:  17 22:31:08  -328.382289c -4.45  -3.72
iter:  18 22:33:39  -328.382288c -4.47  -3.73
iter:  19 22:36:15  -328.382300c -4.91  -3.86
Writing to output.gpw (mode='')

iter:  20 22:38:44  -328.382304c -4.97  -4.00c
iter:  21 22:41:17  -328.382303c -5.02  -4.05c
iter:  22 22:43:42  -328.382306c -5.24  -4.13c
iter:  23 22:46:15  -328.382307c -5.36  -4.26c
iter:  24 22:48:49  -328.382308c -5.53  -4.54c
Writing to output.gpw (mode='')

iter:  25 22:51:20  -328.382307c -5.40  -4.47c
iter:  26 22:53:52  -328.382308c -5.72  -4.41c
iter:  27 22:56:26  -328.382310c -5.59  -4.48c
iter:  28 22:59:01  -328.382308c -5.94  -4.54c
iter:  29 23:01:32  -328.382310c -6.00  -4.47c
Writing to output.gpw (mode='')

iter:  30 23:04:05  -328.382315c -6.03  -4.55c
iter:  31 23:06:38  -328.382315c -6.04  -4.76c
iter:  32 23:09:14  -328.382313c -5.79  -4.83c
iter:  33 23:11:50  -328.382315c -6.25  -4.86c
iter:  34 23:14:23  -328.382315c -6.39  -5.00c
Writing to output.gpw (mode='')

iter:  35 23:16:55  -328.382317c -6.28  -5.05c
iter:  36 23:19:22  -328.382316c -6.46  -5.13c
iter:  37 23:21:51  -328.382316c -6.57  -5.18c
iter:  38 23:24:24  -328.382317c -6.75  -5.37c
iter:  39 23:26:50  -328.382317c -6.63  -5.45c
Writing to output.gpw (mode='')

iter:  40 23:29:28  -328.382317c -6.78  -5.60c
iter:  41 23:32:00  -328.382317c -6.90  -5.60c
iter:  42 23:34:22  -328.382317c -6.68  -5.64c
iter:  43 23:36:55  -328.382317c -6.74  -5.74c
iter:  44 23:39:28  -328.382317c -7.07  -5.72c
Writing to output.gpw (mode='')

iter:  45 23:41:59  -328.382317c -7.11  -5.67c
iter:  46 23:44:28  -328.382317c -7.27  -5.62c
iter:  47 23:46:59  -328.382317c -7.42c -5.61c

Converged after 47 iterations.

Dipole moment: (-13.559090, -10.179603, 0.005927) |e|*Ang

Energy contributions relative to reference atoms: (reference = -81178.542429)

Kinetic:       +124.479713
Potential:     -111.055270
External:        +0.000000
XC:            -341.970215
Entropy (-ST):   -0.154217
Local:           +0.240564
--------------------------
Free energy:   -328.459426
Extrapolated:  -328.382317

Dipole-layer corrected work functions: 3.398372, 3.386979 eV

Showing only first 2 kpts
 Kpt  Band  Eigenvalues  Occupancy
  0    25     -3.64599    1.98747
  0    26     -3.57344    1.94759
  0    27     -3.21944    0.06066
  0    28     -3.17986    0.02795

  1    25     -3.42280    1.29242
  1    26     -3.39126    0.98584
  1    27     -3.36269    0.70884
  1    28     -3.31553    0.35223


Fermi level: -3.39268

No gap
Writing to output.gpw (mode='')


Forces in eV/Ang:
  0 Li    0.01283    0.00869   -0.27115
  1 Li    0.00016    0.00168   -0.27140
  2 Li   -0.01308    0.00802   -0.27208
  3 Li   -0.00409    0.00484   -0.26840
  4 Li    0.00006   -0.00632   -0.28806
  5 Li    0.00425    0.00533   -0.26946
  6 Li    0.00160   -0.01434   -0.27153
  7 Li    0.00072    0.00310   -0.27010
  8 Li   -0.00206   -0.01427   -0.27245
  9 Li   -0.00023    0.00176    0.32172
 10 Li    0.01286   -0.00055    0.25778
 11 Li   -0.01251   -0.00090    0.25486
 12 Li    0.00027    0.01293    0.25665
 13 Li    0.01031    0.00097    0.25175
 14 Li   -0.01016   -0.00013    0.25225
 15 Li    0.00041   -0.01543    0.24328
 16 Li   -0.00063   -0.00090    0.25564
 17 Li   -0.00013    0.00078    0.25730
 18 Li    0.00576    0.00951   -0.02768
 19 Li    0.00004   -0.00441    0.06276
 20 Li   -0.00597    0.00815   -0.02809
 21 Li   -0.00485   -0.00857    0.05488
 22 Li   -0.00086    0.00841    0.01951
 23 Li    0.00519   -0.00823    0.05460
 24 Li    0.00030    0.00067    0.01360
 25 Li   -0.00056   -0.00104    0.04761
 26 Li   -0.00011    0.00146    0.01557
 27 Li    0.00532   -0.03179   -0.63397
 28 Li    0.07721   -0.01659   -0.05792
 29 Li   -0.08128   -0.01732   -0.06856
 30 Li    0.00082   -0.05169    0.08275
 31 Li    0.03005    0.02320   -0.03891
 32 Li   -0.03240    0.02240   -0.03842
 33 Li   -0.00046   -0.00045   -0.01682
 34 Li   -0.00441   -0.00193   -0.02285
 35 Li    0.00513   -0.00011   -0.02217
 36 Br    0.10583   -1.56928    6.61201
 37 H    -0.06044    0.00841   -0.08681
 38 N    -0.03077    0.16640   -3.02256
 39 N    -0.00753    1.50234   -2.91881

System changes: positions 

Initializing position-dependent things.

Density initialized from wave functions
       .-----------------------.  
      /|                       |  
     / |                       |  
    /  |                       |  
   /   |                       |  
  /    |                       |  
 *     |                       |  
 |     |                       |  
 |     |                       |  
 |     Br                      |  
 |     |                       |  
 |     |                       |  
 |     |                       |  
 |     |                       |  
 |     Li      Li      Li      |  
 |     |             H         |  
 |     |     Li      Li      Li|  
 |     |  Li      Li      Ni   |  
 | Li  |   Li      Li    N     |  
 |     |Li      Li      Li     |  
 |     |                       |  
 |   LLi     LLi     LLi       |  
 |     |  Li      Li      Li   |  
 | Li  |   Li      Li          |  
 |     |Li      Li      Li     |  
 Li    | Li      Li            |  
 |    Li      Li      Li       |  
 |     |                       |  
 |     |                       |  
 |     |                       |  
 |     |                       |  
 |     |                       |  
 |     |                       |  
 |     .-----------------------.  
 |    /                       /   
 |   /                       /    
 |  /                       /     
 | /                       /      
 |/                       /       
 *-----------------------*        

Positions:
   0 Li     1.617037    1.617037   10.000000    ( 0.0000,  0.0000,  0.0000)
   1 Li     4.851111    1.617037   10.000000    ( 0.0000,  0.0000,  0.0000)
   2 Li     8.085185    1.617037   10.000000    ( 0.0000,  0.0000,  0.0000)
   3 Li     1.617037    4.851111   10.000000    ( 0.0000,  0.0000,  0.0000)
   4 Li     4.851111    4.851111   10.000000    ( 0.0000,  0.0000,  0.0000)
   5 Li     8.085185    4.851111   10.000000    ( 0.0000,  0.0000,  0.0000)
   6 Li     1.617037    8.085185   10.000000    ( 0.0000,  0.0000,  0.0000)
   7 Li     4.851111    8.085185   10.000000    ( 0.0000,  0.0000,  0.0000)
   8 Li     8.085185    8.085185   10.000000    ( 0.0000,  0.0000,  0.0000)
   9 Li     0.000000    0.000000   11.617037    ( 0.0000,  0.0000,  0.0000)
  10 Li     3.234074    0.000000   11.617037    ( 0.0000,  0.0000,  0.0000)
  11 Li     6.468148    0.000000   11.617037    ( 0.0000,  0.0000,  0.0000)
  12 Li     0.000000    3.234074   11.617037    ( 0.0000,  0.0000,  0.0000)
  13 Li     3.234074    3.234074   11.617037    ( 0.0000,  0.0000,  0.0000)
  14 Li     6.468148    3.234074   11.617037    ( 0.0000,  0.0000,  0.0000)
  15 Li     0.000000    6.468148   11.617037    ( 0.0000,  0.0000,  0.0000)
  16 Li     3.234074    6.468148   11.617037    ( 0.0000,  0.0000,  0.0000)
  17 Li     6.468148    6.468148   11.617037    ( 0.0000,  0.0000,  0.0000)
  18 Li     1.617166    1.617266   13.469073    ( 0.0000,  0.0000,  0.0000)
  19 Li     4.851113    1.616932   13.471243    ( 0.0000,  0.0000,  0.0000)
  20 Li     8.085051    1.617234   13.469063    ( 0.0000,  0.0000,  0.0000)
  21 Li     1.616925    4.850906   13.471051    ( 0.0000,  0.0000,  0.0000)
  22 Li     4.851091    4.851313   13.470204    ( 0.0000,  0.0000,  0.0000)
  23 Li     8.085306    4.850914   13.471044    ( 0.0000,  0.0000,  0.0000)
  24 Li     1.617044    8.085201   13.470059    ( 0.0000,  0.0000,  0.0000)
  25 Li     4.851097    8.085160   13.470878    ( 0.0000,  0.0000,  0.0000)
  26 Li     8.085182    8.085220   13.470105    ( 0.0000,  0.0000,  0.0000)
  27 Li     0.000128   -0.000799   15.430351    ( 0.0000,  0.0000,  0.0000)
  28 Li     3.235939   -0.000400   15.444539    ( 0.0000,  0.0000,  0.0000)
  29 Li     6.466185   -0.000419   15.444279    ( 0.0000,  0.0000,  0.0000)
  30 Li     0.000019    3.232856   15.447902    ( 0.0000,  0.0000,  0.0000)
  31 Li     3.234800    3.234635   15.444997    ( 0.0000,  0.0000,  0.0000)
  32 Li     6.467366    3.234617   15.445006    ( 0.0000,  0.0000,  0.0000)
  33 Li    -0.000011    6.468140   15.445535    ( 0.0000,  0.0000,  0.0000)
  34 Li     3.233969    6.468099   15.445386    ( 0.0000,  0.0000,  0.0000)
  35 Li     6.468270    6.468142   15.445402    ( 0.0000,  0.0000,  0.0000)
  36 Br     9.704046    9.665545   19.601568    ( 0.0000,  0.0000,  0.0000)
  37 H      8.279658    9.702425   19.443882    ( 0.0000,  0.0000,  0.0000)
  38 N      9.701171    9.706626   17.374957    ( 0.0000,  0.0000,  0.0000)
  39 N      9.701784   10.832606   17.378173    ( 0.0000,  0.0000,  0.0000)

Unit cell:
           periodic     x           y           z      points  spacing
  1. axis:    yes    9.702222    0.000000    0.000000    60     0.1617
  2. axis:    yes    0.000000    9.702222    0.000000    60     0.1617
  3. axis:    no     0.000000    0.000000   26.851111   168     0.1598

  Lengths:   9.702222   9.702222  26.851111
  Angles:   90.000000  90.000000  90.000000

Effective grid spacing dv^(1/3) = 0.1611

     iter     time        total  log10-change:
                         energy  eigst   dens
iter:   1 23:50:07  -328.772630  -1.29
iter:   2 23:52:39  -328.747435  -1.37  -1.78
iter:   3 23:55:09  -328.739297  -2.48  -1.96
iter:   4 23:57:38  -328.736816c -1.87  -2.44
Writing to output.gpw (mode='')

iter:   5 00:00:10  -328.736256c -2.74  -2.35
iter:   6 00:02:46  -328.737779c -2.40  -2.63
iter:   7 00:05:26  -328.735472c -2.73  -2.47
iter:   8 00:07:54  -328.735347c -3.04  -2.93
iter:   9 00:10:19  -328.735449c -3.41  -2.94
Writing to output.gpw (mode='')

iter:  10 00:13:00  -328.735427c -3.73  -3.15
iter:  11 00:15:33  -328.735459c -3.97  -3.28
iter:  12 00:18:03  -328.735502c -3.91  -3.44
iter:  13 00:20:28  -328.735446c -4.36  -3.48
iter:  14 00:23:06  -328.735443c -4.34  -3.62
Writing to output.gpw (mode='')

iter:  15 00:25:44  -328.735452c -4.52  -3.68
iter:  16 00:28:13  -328.735462c -4.47  -3.80
iter:  17 00:30:45  -328.735470c -4.55  -3.82
iter:  18 00:33:22  -328.735477c -4.72  -3.86
iter:  19 00:36:05  -328.735477c -4.92  -3.88
Writing to output.gpw (mode='')

iter:  20 00:38:46  -328.735491c -5.26  -3.93
iter:  21 00:41:21  -328.735493c -5.27  -4.05c
iter:  22 00:43:55  -328.735490c -5.35  -4.27c
iter:  23 00:46:26  -328.735489c -5.46  -4.39c
iter:  24 00:48:58  -328.735490c -5.64  -4.45c
Writing to output.gpw (mode='')

iter:  25 00:51:19  -328.735491c -5.80  -4.48c
iter:  26 00:53:58  -328.735492c -5.64  -4.51c
iter:  27 00:56:32  -328.735492c -5.68  -4.56c
iter:  28 00:58:58  -328.735492c -5.85  -4.59c
iter:  29 01:01:25  -328.735493c -6.21  -4.59c
Writing to output.gpw (mode='')

iter:  30 01:04:00  -328.735494c -6.28  -4.60c
iter:  31 01:06:46  -328.735496c -6.47  -4.64c
iter:  32 01:09:08  -328.735494c -6.42  -4.87c
iter:  33 01:11:31  -328.735494c -6.59  -4.88c
iter:  34 01:13:56  -328.735495c -6.43  -4.98c
Writing to output.gpw (mode='')

iter:  35 01:16:25  -328.735495c -6.46  -5.12c
iter:  36 01:18:55  -328.735494c -6.63  -5.21c
iter:  37 01:21:23  -328.735495c -6.57  -5.34c
iter:  38 01:23:58  -328.735495c -6.82  -5.42c
iter:  39 01:26:30  -328.735495c -7.15  -5.61c
Writing to output.gpw (mode='')

iter:  40 01:29:07  -328.735495c -6.93  -5.61c
iter:  41 01:31:39  -328.735495c -6.99  -5.66c
iter:  42 01:34:08  -328.735495c -7.16  -5.77c
iter:  43 01:36:43  -328.735495c -7.24  -5.89c
iter:  44 01:39:16  -328.735495c -7.12  -5.96c
Writing to output.gpw (mode='')

iter:  45 01:41:53  -328.735495c -7.21  -6.10c
iter:  46 01:44:19  -328.735495c -7.21  -6.16c
iter:  47 01:46:43  -328.735495c -7.58c -6.15c

Converged after 47 iterations.

Dipole moment: (-13.478670, -10.125538, -0.002041) |e|*Ang

Energy contributions relative to reference atoms: (reference = -81178.542429)

Kinetic:       +122.755137
Potential:     -109.892241
External:        +0.000000
XC:            -341.768024
Entropy (-ST):   -0.153406
Local:           +0.246336
--------------------------
Free energy:   -328.812198
Extrapolated:  -328.735495

Dipole-layer corrected work functions: 3.399085, 3.403007 eV

Showing only first 2 kpts
 Kpt  Band  Eigenvalues  Occupancy
  0    25     -3.65487    1.98759
  0    26     -3.58426    1.95004
  0    27     -3.22507    0.05753
  0    28     -3.19109    0.02957

  1    25     -3.43131    1.29371
  1    26     -3.39932    0.98271
  1    27     -3.37150    0.71286
  1    28     -3.32208    0.34180


Fermi level: -3.40105

No gap
Writing to output.gpw (mode='')


Forces in eV/Ang:
  0 Li    0.01264    0.00875   -0.27120
  1 Li    0.00019    0.00161   -0.27152
  2 Li   -0.01290    0.00808   -0.27204
  3 Li   -0.00423    0.00490   -0.26836
  4 Li    0.00004   -0.00626   -0.28837
  5 Li    0.00437    0.00536   -0.26938
  6 Li    0.00159   -0.01450   -0.27170
  7 Li    0.00071    0.00308   -0.27010
  8 Li   -0.00208   -0.01439   -0.27259
  9 Li   -0.00027    0.00128    0.32215
 10 Li    0.01283   -0.00028    0.25832
 11 Li   -0.01245   -0.00058    0.25544
 12 Li    0.00027    0.01370    0.25603
 13 Li    0.01013    0.00089    0.25202
 14 Li   -0.01002   -0.00017    0.25252
 15 Li    0.00037   -0.01562    0.24371
 16 Li    0.00030   -0.00100    0.25538
 17 Li   -0.00095    0.00058    0.25691
 18 Li    0.00501    0.01038   -0.02757
 19 Li    0.00003   -0.00410    0.06139
 20 Li   -0.00520    0.00924   -0.02770
 21 Li   -0.00461   -0.00802    0.05416
 22 Li   -0.00077    0.00803    0.01943
 23 Li    0.00493   -0.00780    0.05382
 24 Li    0.00164   -0.00076    0.01094
 25 Li   -0.00056   -0.00102    0.04705
 26 Li   -0.00142   -0.00001    0.01296
 27 Li    0.00466   -0.03672   -0.68541
 28 Li    0.07698   -0.01649   -0.05748
 29 Li   -0.08097   -0.01730   -0.06887
 30 Li    0.00063   -0.04879    0.07965
 31 Li    0.02996    0.02319   -0.03885
 32 Li   -0.03200    0.02238   -0.03872
 33 Li   -0.00052   -0.00048   -0.01643
 34 Li   -0.00426   -0.00229   -0.02304
 35 Li    0.00497   -0.00037   -0.02231
 36 Br    0.03848   -1.33156    5.72508
 37 H    -0.01110    0.00627   -0.06268
 38 N    -0.01363    0.03121   -2.44523
 39 N    -0.00111    1.34765   -2.41235

System changes: positions 

Initializing position-dependent things.

Density initialized from wave functions
       .-----------------------.  
      /|                       |  
     / |                       |  
    /  |                       |  
   /   |                       |  
  /    |                       |  
 *     |                       |  
 |     |                       |  
 |     |                       |  
 |     |                       Br 
 |     |                       |  
 |     |                       |  
 |     |                       |  
 |     |                       |  
 |     Li      Li      Li      |  
 |     |             H         |  
 |     |     Li      Li      Li|  
 |     |  Li      Li      Ni   |  
 | Li  |   Li      Li    N     |  
 |     |Li      Li      Li     |  
 |     |                       |  
 |   LLi     LLi     LLi       |  
 |     |  Li      Li      Li   |  
 | Li  |   Li      Li          |  
 |     |Li      Li      Li     |  
 Li    | Li      Li            |  
 |    Li      Li      Li       |  
 |     |                       |  
 |     |                       |  
 |     |                       |  
 |     |                       |  
 |     |                       |  
 |     |                       |  
 |     .-----------------------.  
 |    /                       /   
 |   /                       /    
 |  /                       /     
 | /                       /      
 |/                       /       
 *-----------------------*        

Positions:
   0 Li     1.617037    1.617037   10.000000    ( 0.0000,  0.0000,  0.0000)
   1 Li     4.851111    1.617037   10.000000    ( 0.0000,  0.0000,  0.0000)
   2 Li     8.085185    1.617037   10.000000    ( 0.0000,  0.0000,  0.0000)
   3 Li     1.617037    4.851111   10.000000    ( 0.0000,  0.0000,  0.0000)
   4 Li     4.851111    4.851111   10.000000    ( 0.0000,  0.0000,  0.0000)
   5 Li     8.085185    4.851111   10.000000    ( 0.0000,  0.0000,  0.0000)
   6 Li     1.617037    8.085185   10.000000    ( 0.0000,  0.0000,  0.0000)
   7 Li     4.851111    8.085185   10.000000    ( 0.0000,  0.0000,  0.0000)
   8 Li     8.085185    8.085185   10.000000    ( 0.0000,  0.0000,  0.0000)
   9 Li     0.000000    0.000000   11.617037    ( 0.0000,  0.0000,  0.0000)
  10 Li     3.234074    0.000000   11.617037    ( 0.0000,  0.0000,  0.0000)
  11 Li     6.468148    0.000000   11.617037    ( 0.0000,  0.0000,  0.0000)
  12 Li     0.000000    3.234074   11.617037    ( 0.0000,  0.0000,  0.0000)
  13 Li     3.234074    3.234074   11.617037    ( 0.0000,  0.0000,  0.0000)
  14 Li     6.468148    3.234074   11.617037    ( 0.0000,  0.0000,  0.0000)
  15 Li     0.000000    6.468148   11.617037    ( 0.0000,  0.0000,  0.0000)
  16 Li     3.234074    6.468148   11.617037    ( 0.0000,  0.0000,  0.0000)
  17 Li     6.468148    6.468148   11.617037    ( 0.0000,  0.0000,  0.0000)
  18 Li     1.617186    1.617394   13.468787    ( 0.0000,  0.0000,  0.0000)
  19 Li     4.851114    1.616889   13.471900    ( 0.0000,  0.0000,  0.0000)
  20 Li     8.085028    1.617354   13.468782    ( 0.0000,  0.0000,  0.0000)
  21 Li     1.616884    4.850832   13.471632    ( 0.0000,  0.0000,  0.0000)
  22 Li     4.851084    4.851393   13.470423    ( 0.0000,  0.0000,  0.0000)
  23 Li     8.085350    4.850838   13.471621    ( 0.0000,  0.0000,  0.0000)
  24 Li     1.617083    8.085169   13.470133    ( 0.0000,  0.0000,  0.0000)
  25 Li     4.851092    8.085154   13.471392    ( 0.0000,  0.0000,  0.0000)
  26 Li     8.085146    8.085196   13.470203    ( 0.0000,  0.0000,  0.0000)
  27 Li     0.000171   -0.001315   15.421359    ( 0.0000,  0.0000,  0.0000)
  28 Li     3.236784   -0.000581   15.443915    ( 0.0000,  0.0000,  0.0000)
  29 Li     6.465295   -0.000612   15.443510    ( 0.0000,  0.0000,  0.0000)
  30 Li     0.000022    3.232393   15.448701    ( 0.0000,  0.0000,  0.0000)
  31 Li     3.235128    3.234892   15.444566    ( 0.0000,  0.0000,  0.0000)
  32 Li     6.467021    3.234868   15.444564    ( 0.0000,  0.0000,  0.0000)
  33 Li    -0.000018    6.468145   15.445370    ( 0.0000,  0.0000,  0.0000)
  34 Li     3.233923    6.468065   15.445125    ( 0.0000,  0.0000,  0.0000)
  35 Li     6.468323    6.468131   15.445151    ( 0.0000,  0.0000,  0.0000)
  36 Br     9.702040    9.657679   19.640736    ( 0.0000,  0.0000,  0.0000)
  37 H      8.281663    9.702470   19.443693    ( 0.0000,  0.0000,  0.0000)
  38 N      9.701374    9.711330   17.360610    ( 0.0000,  0.0000,  0.0000)
  39 N      9.701817   10.836666   17.364091    ( 0.0000,  0.0000,  0.0000)

Unit cell:
           periodic     x           y           z      points  spacing
  1. axis:    yes    9.702222    0.000000    0.000000    60     0.1617
  2. axis:    yes    0.000000    9.702222    0.000000    60     0.1617
  3. axis:    no     0.000000    0.000000   26.851111   168     0.1598

  Lengths:   9.702222   9.702222  26.851111
  Angles:   90.000000  90.000000  90.000000

Effective grid spacing dv^(1/3) = 0.1611

     iter     time        total  log10-change:
                         energy  eigst   dens
iter:   1 01:49:48  -329.050765  -1.38
iter:   2 01:52:14  -329.036287  -1.63  -1.89
iter:   3 01:54:57  -329.031637c -2.63  -2.07
iter:   4 01:57:26  -329.029872c -2.21  -2.54
Writing to output.gpw (mode='')

iter:   5 01:59:56  -329.030198c -2.93  -2.52
iter:   6 02:02:33  -329.030527c -2.78  -2.66
iter:   7 02:05:07  -329.029395c -2.89  -2.63
iter:   8 02:07:38  -329.029363c -3.32  -3.06
iter:   9 02:10:11  -329.029405c -3.65  -3.21
Writing to output.gpw (mode='')

iter:  10 02:12:45  -329.029413c -3.77  -3.31
iter:  11 02:15:19  -329.029484c -4.09  -3.40
iter:  12 02:17:55  -329.029464c -4.55  -3.42
iter:  13 02:20:29  -329.029451c -4.57  -3.49
iter:  14 02:22:56  -329.029433c -4.39  -3.64
Writing to output.gpw (mode='')

iter:  15 02:25:27  -329.029449c -4.84  -3.90
iter:  16 02:28:01  -329.029454c -4.86  -3.94
iter:  17 02:30:37  -329.029453c -4.94  -3.99
iter:  18 02:33:05  -329.029458c -5.19  -4.12c
iter:  19 02:35:34  -329.029457c -5.27  -4.16c
Writing to output.gpw (mode='')

iter:  20 02:38:07  -329.029458c -5.57  -4.42c
iter:  21 02:40:36  -329.029459c -5.69  -4.47c
iter:  22 02:43:05  -329.029462c -5.61  -4.47c
iter:  23 02:45:33  -329.029460c -5.79  -4.57c
iter:  24 02:48:00  -329.029462c -5.64  -4.79c
Writing to output.gpw (mode='')

iter:  25 02:50:43  -329.029462c -5.91  -4.82c
iter:  26 02:53:23  -329.029461c -5.86  -4.79c
iter:  27 02:55:58  -329.029462c -5.99  -4.72c
iter:  28 02:58:27  -329.029462c -6.07  -4.68c
iter:  29 03:00:52  -329.029462c -6.20  -4.72c
Writing to output.gpw (mode='')

iter:  30 03:03:21  -329.029462c -6.37  -4.69c
iter:  31 03:05:53  -329.029461c -6.35  -4.68c
iter:  32 03:08:28  -329.029463c -6.57  -4.59c
iter:  33 03:11:00  -329.029464c -6.53  -4.77c
iter:  34 03:13:29  -329.029464c -6.78  -4.86c
Writing to output.gpw (mode='')

iter:  35 03:16:07  -329.029464c -6.81  -4.75c
iter:  36 03:18:32  -329.029464c -6.76  -4.92c
iter:  37 03:21:02  -329.029464c -6.77  -5.08c
iter:  38 03:23:22  -329.029465c -6.83  -5.07c
iter:  39 03:25:54  -329.029465c -7.03  -5.38c
Writing to output.gpw (mode='')

iter:  40 03:28:26  -329.029465c -6.98  -5.44c
iter:  41 03:30:53  -329.029465c -7.06  -5.48c
iter:  42 03:33:26  -329.029465c -7.12  -5.66c
iter:  43 03:35:52  -329.029465c -7.22  -5.72c
iter:  44 03:38:21  -329.029465c -7.19  -5.90c
Writing to output.gpw (mode='')

iter:  45 03:40:56  -329.029465c -7.27  -6.02c
iter:  46 03:43:34  -329.029465c -7.52c -5.97c

Converged after 46 iterations.

Dipole moment: (-13.373627, -9.979902, -0.009254) |e|*Ang

Energy contributions relative to reference atoms: (reference = -81178.542429)

Kinetic:       +121.137928
Potential:     -108.772793
External:        +0.000000
XC:            -341.569512
Entropy (-ST):   -0.152749
Local:           +0.251286
--------------------------
Free energy:   -329.105840
Extrapolated:  -329.029465

Dipole-layer corrected work functions: 3.399700, 3.417489 eV

Showing only first 2 kpts
 Kpt  Band  Eigenvalues  Occupancy
  0    25     -3.66291    1.98772
  0    26     -3.59382    1.95196
  0    27     -3.23076    0.05549
  0    28     -3.20088    0.03091

  1    25     -3.43884    1.29358
  1    26     -3.40675    0.98151
  1    27     -3.37947    0.71677
  1    28     -3.32776    0.33134


Fermi level: -3.40859

No gap
Writing to output.gpw (mode='')


Forces in eV/Ang:
  0 Li    0.01250    0.00881   -0.27135
  1 Li    0.00021    0.00149   -0.27157
  2 Li   -0.01277    0.00812   -0.27213
  3 Li   -0.00437    0.00497   -0.26828
  4 Li    0.00002   -0.00617   -0.28870
  5 Li    0.00450    0.00540   -0.26925
  6 Li    0.00160   -0.01467   -0.27196
  7 Li    0.00070    0.00309   -0.27009
  8 Li   -0.00211   -0.01452   -0.27283
  9 Li   -0.00031    0.00087    0.32295
 10 Li    0.01285   -0.00006    0.25894
 11 Li   -0.01247   -0.00032    0.25607
 12 Li    0.00027    0.01437    0.25568
 13 Li    0.01012    0.00093    0.25229
 14 Li   -0.01005   -0.00011    0.25282
 15 Li    0.00034   -0.01580    0.24413
 16 Li    0.00107   -0.00118    0.25521
 17 Li   -0.00163    0.00034    0.25663
 18 Li    0.00496    0.01158   -0.02831
 19 Li    0.00000   -0.00376    0.05983
 20 Li   -0.00511    0.01059   -0.02818
 21 Li   -0.00450   -0.00760    0.05338
 22 Li   -0.00070    0.00773    0.01911
 23 Li    0.00481   -0.00746    0.05299
 24 Li    0.00319   -0.00248    0.00779
 25 Li   -0.00056   -0.00110    0.04626
 26 Li   -0.00295   -0.00177    0.00989
 27 Li    0.00404   -0.03871   -0.70978
 28 Li    0.07621   -0.01632   -0.05657
 29 Li   -0.08016   -0.01718   -0.06864
 30 Li    0.00047   -0.04736    0.07814
 31 Li    0.02982    0.02315   -0.03859
 32 Li   -0.03162    0.02232   -0.03873
 33 Li   -0.00057   -0.00037   -0.01590
 34 Li   -0.00402   -0.00263   -0.02310
 35 Li    0.00474   -0.00062   -0.02233
 36 Br   -0.01765   -1.13880    4.93581
 37 H     0.02807    0.00367   -0.03883
 38 N    -0.00751    0.04042   -2.05784
 39 N    -0.00042    1.13966   -2.07068

System changes: positions 

Initializing position-dependent things.

Density initialized from wave functions
       .-----------------------.  
      /|                       |  
     / |                       |  
    /  |                       |  
   /   |                       |  
  /    |                       |  
 *     |                       |  
 |     |                       |  
 |     |                       |  
 |     |                       Br 
 |     |                       |  
 |     |                       |  
 |     |                       |  
 |     |                       |  
 |     Li      Li      Li      |  
 |     |             H         |  
 |     |     Li      Li      Li|  
 |     |  Li      Li      Ni   |  
 | Li  |   Li      Li    N     |  
 |     |Li      Li      Li     |  
 |     |                       |  
 |   LLi     LLi     LLi       |  
 |     |  Li      Li      Li   |  
 | Li  |   Li      Li          |  
 |     |Li      Li      Li     |  
 Li    | Li      Li            |  
 |    Li      Li      Li       |  
 |     |                       |  
 |     |                       |  
 |     |                       |  
 |     |                       |  
 |     |                       |  
 |     |                       |  
 |     .-----------------------.  
 |    /                       /   
 |   /                       /    
 |  /                       /     
 | /                       /      
 |/                       /       
 *-----------------------*        

Positions:
   0 Li     1.617037    1.617037   10.000000    ( 0.0000,  0.0000,  0.0000)
   1 Li     4.851111    1.617037   10.000000    ( 0.0000,  0.0000,  0.0000)
   2 Li     8.085185    1.617037   10.000000    ( 0.0000,  0.0000,  0.0000)
   3 Li     1.617037    4.851111   10.000000    ( 0.0000,  0.0000,  0.0000)
   4 Li     4.851111    4.851111   10.000000    ( 0.0000,  0.0000,  0.0000)
   5 Li     8.085185    4.851111   10.000000    ( 0.0000,  0.0000,  0.0000)
   6 Li     1.617037    8.085185   10.000000    ( 0.0000,  0.0000,  0.0000)
   7 Li     4.851111    8.085185   10.000000    ( 0.0000,  0.0000,  0.0000)
   8 Li     8.085185    8.085185   10.000000    ( 0.0000,  0.0000,  0.0000)
   9 Li     0.000000    0.000000   11.617037    ( 0.0000,  0.0000,  0.0000)
  10 Li     3.234074    0.000000   11.617037    ( 0.0000,  0.0000,  0.0000)
  11 Li     6.468148    0.000000   11.617037    ( 0.0000,  0.0000,  0.0000)
  12 Li     0.000000    3.234074   11.617037    ( 0.0000,  0.0000,  0.0000)
  13 Li     3.234074    3.234074   11.617037    ( 0.0000,  0.0000,  0.0000)
  14 Li     6.468148    3.234074   11.617037    ( 0.0000,  0.0000,  0.0000)
  15 Li     0.000000    6.468148   11.617037    ( 0.0000,  0.0000,  0.0000)
  16 Li     3.234074    6.468148   11.617037    ( 0.0000,  0.0000,  0.0000)
  17 Li     6.468148    6.468148   11.617037    ( 0.0000,  0.0000,  0.0000)
  18 Li     1.617217    1.617563   13.468429    ( 0.0000,  0.0000,  0.0000)
  19 Li     4.851115    1.616843   13.472664    ( 0.0000,  0.0000,  0.0000)
  20 Li     8.084995    1.617516   13.468432    ( 0.0000,  0.0000,  0.0000)
  21 Li     1.616835    4.850747   13.472318    ( 0.0000,  0.0000,  0.0000)
  22 Li     4.851077    4.851485   13.470679    ( 0.0000,  0.0000,  0.0000)
  23 Li     8.085403    4.850752   13.472301    ( 0.0000,  0.0000,  0.0000)
  24 Li     1.617150    8.085108   13.470182    ( 0.0000,  0.0000,  0.0000)
  25 Li     4.851085    8.085144   13.471996    ( 0.0000,  0.0000,  0.0000)
  26 Li     8.085083    8.085144   13.470279    ( 0.0000,  0.0000,  0.0000)
  27 Li     0.000214   -0.001941   15.410516    ( 0.0000,  0.0000,  0.0000)
  28 Li     3.237784   -0.000794   15.443181    ( 0.0000,  0.0000,  0.0000)
  29 Li     6.464244   -0.000840   15.442595    ( 0.0000,  0.0000,  0.0000)
  30 Li     0.000024    3.231848   15.449649    ( 0.0000,  0.0000,  0.0000)
  31 Li     3.235519    3.235198   15.444055    ( 0.0000,  0.0000,  0.0000)
  32 Li     6.466614    3.235166   15.444039    ( 0.0000,  0.0000,  0.0000)
  33 Li    -0.000026    6.468150   15.445177    ( 0.0000,  0.0000,  0.0000)
  34 Li     3.233872    6.468021   15.444813    ( 0.0000,  0.0000,  0.0000)
  35 Li     6.468382    6.468115   15.444850    ( 0.0000,  0.0000,  0.0000)
  36 Br     9.699251    9.649944   19.679882    ( 0.0000,  0.0000,  0.0000)
  37 H      8.284238    9.702486   19.443747    ( 0.0000,  0.0000,  0.0000)
  38 N      9.701640    9.716045   17.347039    ( 0.0000,  0.0000,  0.0000)
  39 N      9.701858   10.840587   17.350118    ( 0.0000,  0.0000,  0.0000)

Unit cell:
           periodic     x           y           z      points  spacing
  1. axis:    yes    9.702222    0.000000    0.000000    60     0.1617
  2. axis:    yes    0.000000    9.702222    0.000000    60     0.1617
  3. axis:    no     0.000000    0.000000   26.851111   168     0.1598

  Lengths:   9.702222   9.702222  26.851111
  Angles:   90.000000  90.000000  90.000000

Effective grid spacing dv^(1/3) = 0.1611

     iter     time        total  log10-change:
                         energy  eigst   dens
iter:   1 03:46:49  -329.301548  -1.41
iter:   2 03:49:13  -329.289293  -1.72  -1.93
iter:   3 03:51:50  -329.285440c -2.67  -2.11
iter:   4 03:54:22  -329.283867c -2.36  -2.57
Writing to output.gpw (mode='')

iter:   5 03:56:56  -329.284342c -2.99  -2.60
iter:   6 03:59:23  -329.284326c -2.93  -2.66
iter:   7 04:01:54  -329.283526c -2.98  -2.70
iter:   8 04:04:30  -329.283521c -3.41  -3.06
iter:   9 04:07:05  -329.283539c -3.80  -3.27
Writing to output.gpw (mode='')

iter:  10 04:09:35  -329.283575c -3.92  -3.34
iter:  11 04:12:06  -329.283565c -4.09  -3.43
iter:  12 04:14:36  -329.283569c -4.71  -3.56
iter:  13 04:17:03  -329.283563c -4.62  -3.62
iter:  14 04:19:30  -329.283571c -4.43  -3.78
Writing to output.gpw (mode='')

iter:  15 04:22:02  -329.283576c -4.95  -3.95
iter:  16 04:24:31  -329.283577c -5.04  -3.91
iter:  17 04:26:56  -329.283582c -5.06  -4.03c
iter:  18 04:29:17  -329.283582c -5.35  -4.11c
iter:  19 04:31:49  -329.283583c -5.41  -4.25c
Writing to output.gpw (mode='')

iter:  20 04:34:27  -329.283583c -5.65  -4.30c
iter:  21 04:36:59  -329.283583c -5.66  -4.40c
iter:  22 04:39:24  -329.283585c -5.69  -4.45c
iter:  23 04:41:46  -329.283585c -5.84  -4.65c
iter:  24 04:44:15  -329.283586c -5.96  -4.65c
Writing to output.gpw (mode='')

iter:  25 04:46:46  -329.283586c -6.27  -4.82c
iter:  26 04:49:19  -329.283586c -6.13  -4.95c
iter:  27 04:51:52  -329.283586c -6.29  -5.03c
iter:  28 04:54:28  -329.283587c -6.41  -5.06c
iter:  29 04:57:09  -329.283587c -6.54  -5.09c
Writing to output.gpw (mode='')

iter:  30 04:59:47  -329.283587c -6.63  -5.27c
iter:  31 05:02:17  -329.283587c -6.61  -5.36c
iter:  32 05:04:46  -329.283587c -6.70  -5.37c
iter:  33 05:07:15  -329.283587c -6.65  -5.33c
iter:  34 05:09:46  -329.283587c -6.85  -5.23c
Writing to output.gpw (mode='')

iter:  35 05:12:26  -329.283587c -7.04  -5.18c
iter:  36 05:14:54  -329.283587c -7.11  -5.10c
[...]
iter:  11 17:55:21  -331.157242c -4.32  -3.39
iter:  12 17:57:52  -331.157238c -5.12  -3.60
iter:  13 18:00:15  -331.157231c -5.18  -3.68
iter:  14 18:02:47  -331.157229c -5.02  -3.88
Writing to output.gpw (mode='')

iter:  15 18:05:21  -331.157228c -5.47  -3.88
iter:  16 18:07:56  -331.157229c -5.22  -3.97
iter:  17 18:10:26  -331.157230c -5.74  -4.20c
iter:  18 18:13:01  -331.157232c -5.90  -4.25c
iter:  19 18:15:44  -331.157234c -5.94  -4.34c
Writing to output.gpw (mode='')

iter:  20 18:18:06  -331.157233c -5.95  -4.42c
iter:  21 18:20:33  -331.157234c -6.50  -4.44c
iter:  22 18:22:55  -331.157234c -6.37  -4.60c
iter:  23 18:25:24  -331.157234c -6.80  -4.72c
iter:  24 18:27:56  -331.157233c -6.57  -4.79c
Writing to output.gpw (mode='')

iter:  25 18:30:33  -331.157234c -6.69  -4.88c
iter:  26 18:33:09  -331.157234c -6.87  -4.93c
iter:  27 18:35:39  -331.157234c -6.93  -5.09c
iter:  28 18:38:10  -331.157234c -6.90  -5.15c
iter:  29 18:40:39  -331.157234c -7.12  -5.26c
Writing to output.gpw (mode='')

iter:  30 18:43:06  -331.157234c -7.32  -5.34c
iter:  31 18:45:37  -331.157234c -7.58c -5.39c

Converged after 31 iterations.

Dipole moment: (21.407585, 10.170146, -0.288554) |e|*Ang

Energy contributions relative to reference atoms: (reference = -81178.542429)

Kinetic:       +106.630833
Potential:      -98.175595
External:        +0.000000
XC:            -339.825906
Entropy (-ST):   -0.149778
Local:           +0.288323
--------------------------
Free energy:   -331.232123
Extrapolated:  -331.157234

Dipole-layer corrected work functions: 3.412874, 3.967575 eV

Showing only first 2 kpts
 Kpt  Band  Eigenvalues  Occupancy
  0    25     -3.94046    1.98668
  0    26     -3.88820    1.96257
  0    27     -3.56288    0.14528
  0    28     -3.47720    0.02784

  1    25     -3.74578    1.50467
  1    26     -3.67755    0.87395
  1    27     -3.63951    0.53231
  1    28     -3.59204    0.24615


Fermi level: -3.69022

No gap
Writing to output.gpw (mode='')


Forces in eV/Ang:
  0 Li    0.01881    0.00576   -0.26657
  1 Li   -0.00426    0.00533   -0.27537
  2 Li   -0.01759    0.00636   -0.26506
  3 Li   -0.00316    0.01305   -0.27369
  4 Li   -0.00082    0.00079   -0.28730
  5 Li    0.00375    0.01630   -0.27080
  6 Li   -0.00164   -0.01484   -0.27842
  7 Li   -0.00138    0.00318   -0.28017
  8 Li    0.00296   -0.01745   -0.27718
  9 Li    0.00695   -0.01236    0.30927
 10 Li    0.00517   -0.01415    0.28066
 11 Li    0.00031   -0.02449    0.28100
 12 Li    0.00607    0.00365    0.25328
 13 Li    0.01336    0.00363    0.26462
 14 Li   -0.00018    0.01106    0.25891
 15 Li    0.00286   -0.02005    0.23202
 16 Li   -0.05135   -0.01277    0.27965
 17 Li    0.05297   -0.01171    0.27419
 18 Li   -0.00559   -0.01240   -0.01746
 19 Li   -0.00555   -0.00636    0.02795
 20 Li   -0.00321   -0.00105   -0.00820
 21 Li    0.01665    0.01786    0.01296
 22 Li   -0.00559    0.00893    0.01351
 23 Li   -0.02006    0.00999    0.01642
 24 Li    0.00616   -0.00229   -0.01088
 25 Li    0.00448    0.00369    0.01391
 26 Li   -0.00568   -0.00679   -0.01106
 27 Li   -0.00600   -0.00216   -0.00146
 28 Li    0.01321   -0.00291   -0.00484
 29 Li   -0.01239   -0.00248   -0.00289
 30 Li    0.01528   -0.01924    0.02146
 31 Li   -0.00168    0.00393    0.00710
 32 Li   -0.02212    0.00231   -0.00818
 33 Li   -0.00377    0.01910    0.00620
 34 Li   -0.00482   -0.00480   -0.01231
 35 Li    0.00783   -0.00007   -0.00955
 36 Br    0.00830    0.00562   -0.05080
 37 H    -0.02581   -0.00671    0.04509
 38 N     0.06246   -0.01839   -0.00580
 39 N     0.01289    0.05755   -0.00346

System changes: positions 

Initializing position-dependent things.

Density initialized from wave functions
       .-----------------------.  
      /|                       |  
     / |                       |  
    /  |                       |  
   /   |                       |  
  /    |                       |  
 *     |                       |  
 |     |                     Br|  
 |     |                       |  
 |     |                       |  
 |     |                       |  
 |     |                       |  
 |     |                       |  
 |     |                       |  
 |     Li      Li      Li      |  
 |     |                H      |  
 |     |     Li      Li      Li|  
 |     |  Li      Li     NNi   |  
 | Li  |   Li      Li          |  
 |     |Li      Li      Li     |  
 |     |                       |  
 |   LLi     LLi     LLi       |  
 |     |  Li      Li      Li   |  
 | Li  |   Li      Li          |  
 |     |Li      Li      Li     |  
 Li    | Li      Li            |  
 |    Li      Li      Li       |  
 |     |                       |  
 |     |                       |  
 |     |                       |  
 |     |                       |  
 |     |                       |  
 |     |                       |  
 |     .-----------------------.  
 |    /                       /   
 |   /                       /    
 |  /                       /     
 | /                       /      
 |/                       /       
 *-----------------------*        

Positions:
   0 Li     1.617037    1.617037   10.000000    ( 0.0000,  0.0000,  0.0000)
   1 Li     4.851111    1.617037   10.000000    ( 0.0000,  0.0000,  0.0000)
   2 Li     8.085185    1.617037   10.000000    ( 0.0000,  0.0000,  0.0000)
   3 Li     1.617037    4.851111   10.000000    ( 0.0000,  0.0000,  0.0000)
   4 Li     4.851111    4.851111   10.000000    ( 0.0000,  0.0000,  0.0000)
   5 Li     8.085185    4.851111   10.000000    ( 0.0000,  0.0000,  0.0000)
   6 Li     1.617037    8.085185   10.000000    ( 0.0000,  0.0000,  0.0000)
   7 Li     4.851111    8.085185   10.000000    ( 0.0000,  0.0000,  0.0000)
   8 Li     8.085185    8.085185   10.000000    ( 0.0000,  0.0000,  0.0000)
   9 Li     0.000000    0.000000   11.617037    ( 0.0000,  0.0000,  0.0000)
  10 Li     3.234074    0.000000   11.617037    ( 0.0000,  0.0000,  0.0000)
  11 Li     6.468148    0.000000   11.617037    ( 0.0000,  0.0000,  0.0000)
  12 Li     0.000000    3.234074   11.617037    ( 0.0000,  0.0000,  0.0000)
  13 Li     3.234074    3.234074   11.617037    ( 0.0000,  0.0000,  0.0000)
  14 Li     6.468148    3.234074   11.617037    ( 0.0000,  0.0000,  0.0000)
  15 Li     0.000000    6.468148   11.617037    ( 0.0000,  0.0000,  0.0000)
  16 Li     3.234074    6.468148   11.617037    ( 0.0000,  0.0000,  0.0000)
  17 Li     6.468148    6.468148   11.617037    ( 0.0000,  0.0000,  0.0000)
  18 Li     1.607709    1.612310   13.470717    ( 0.0000,  0.0000,  0.0000)
  19 Li     4.868834    1.629418   13.451582    ( 0.0000,  0.0000,  0.0000)
  20 Li     8.112689    1.606731   13.453551    ( 0.0000,  0.0000,  0.0000)
  21 Li     1.584092    4.804901   13.513431    ( 0.0000,  0.0000,  0.0000)
  22 Li     4.861927    4.870272   13.458171    ( 0.0000,  0.0000,  0.0000)
  23 Li     8.132446    4.809936   13.508300    ( 0.0000,  0.0000,  0.0000)
  24 Li     1.582320    8.070698   13.509845    ( 0.0000,  0.0000,  0.0000)
  25 Li     4.847473    8.056754   13.459078    ( 0.0000,  0.0000,  0.0000)
  26 Li     8.118767    8.070057   13.507683    ( 0.0000,  0.0000,  0.0000)
  27 Li     0.014856   -0.063556   15.526828    ( 0.0000,  0.0000,  0.0000)
  28 Li     3.290004   -0.004160   15.363770    ( 0.0000,  0.0000,  0.0000)
  29 Li     6.409567   -0.019579   15.364494    ( 0.0000,  0.0000,  0.0000)
  30 Li     0.018470    3.098916   15.589008    ( 0.0000,  0.0000,  0.0000)
  31 Li     3.298969    3.248878   15.386279    ( 0.0000,  0.0000,  0.0000)
  32 Li     6.462370    3.262300   15.398088    ( 0.0000,  0.0000,  0.0000)
  33 Li    -0.000085    6.381334   15.499024    ( 0.0000,  0.0000,  0.0000)
  34 Li     3.233462    6.475337   15.442403    ( 0.0000,  0.0000,  0.0000)
  35 Li     6.471905    6.471621   15.442214    ( 0.0000,  0.0000,  0.0000)
  36 Br     8.885853    9.256320   21.128820    ( 0.0000,  0.0000,  0.0000)
  37 H      9.221596    9.702710   19.806100    ( 0.0000,  0.0000,  0.0000)
  38 N      9.541217   10.433251   17.613950    ( 0.0000,  0.0000,  0.0000)
  39 N      9.619828   11.357628   16.950932    ( 0.0000,  0.0000,  0.0000)

Unit cell:
           periodic     x           y           z      points  spacing
  1. axis:    yes    9.702222    0.000000    0.000000    60     0.1617
  2. axis:    yes    0.000000    9.702222    0.000000    60     0.1617
  3. axis:    no     0.000000    0.000000   26.851111   168     0.1598

  Lengths:   9.702222   9.702222  26.851111
  Angles:   90.000000  90.000000  90.000000

Effective grid spacing dv^(1/3) = 0.1611

     iter     time        total  log10-change:
                         energy  eigst   dens
iter:   1 18:48:42  -331.160091  -1.97
iter:   2 18:51:07  -331.159503  -2.57  -2.31
iter:   3 18:53:37  -331.158481c -3.16  -2.37
iter:   4 18:56:07  -331.158261c -3.47  -2.62
Writing to output.gpw (mode='')

iter:   5 18:58:38  -331.158006c -3.19  -2.78
iter:   6 19:01:07  -331.158058c -3.01  -3.05
iter:   7 19:03:35  -331.157976c -3.90  -2.97
iter:   8 19:06:10  -331.157969c -4.04  -3.28
iter:   9 19:08:44  -331.157956c -4.18  -3.32
Writing to output.gpw (mode='')

iter:  10 19:11:21  -331.157942c -4.83  -3.46
iter:  11 19:13:54  -331.157943c -4.52  -3.62
iter:  12 19:16:24  -331.157943c -5.33  -3.72
iter:  13 19:18:55  -331.157963c -4.79  -3.77
iter:  14 19:21:30  -331.157961c -5.33  -3.85
Writing to output.gpw (mode='')

iter:  15 19:24:08  -331.157951c -5.26  -3.90
iter:  16 19:26:37  -331.157953c -6.05  -4.14c
iter:  17 19:29:09  -331.157949c -5.94  -4.30c
iter:  18 19:31:35  -331.157949c -6.00  -4.51c
iter:  19 19:34:02  -331.157949c -6.30  -4.56c
Writing to output.gpw (mode='')

iter:  20 19:36:33  -331.157950c -6.54  -4.66c
iter:  21 19:39:00  -331.157950c -6.78  -4.68c
iter:  22 19:41:28  -331.157950c -6.80  -4.76c
iter:  23 19:43:57  -331.157950c -6.91  -4.88c
iter:  24 19:46:31  -331.157950c -7.04  -5.03c
Writing to output.gpw (mode='')

iter:  25 19:48:59  -331.157950c -7.13  -5.10c
iter:  26 19:51:28  -331.157950c -7.44c -5.17c

Converged after 26 iterations.

Dipole moment: (20.703219, 10.511783, -0.288597) |e|*Ang

Energy contributions relative to reference atoms: (reference = -81178.542429)

Kinetic:       +106.823958
Potential:      -98.324150
External:        +0.000000
XC:            -339.870970
Entropy (-ST):   -0.149692
Local:           +0.288058
--------------------------
Free energy:   -331.232796
Extrapolated:  -331.157950

Dipole-layer corrected work functions: 3.412785, 3.967568 eV

Showing only first 2 kpts
 Kpt  Band  Eigenvalues  Occupancy
  0    25     -3.94077    1.98677
  0    26     -3.88847    1.96281
  0    27     -3.56293    0.14552
  0    28     -3.47686    0.02768

  1    25     -3.74572    1.50459
  1    26     -3.67727    0.87165
  1    27     -3.63949    0.53253
  1    28     -3.59114    0.24250


Fermi level: -3.69018

No gap
Writing to output.gpw (mode='')


Forces in eV/Ang:
  0 Li    0.01890    0.00585   -0.26658
  1 Li   -0.00421    0.00509   -0.27550
  2 Li   -0.01768    0.00642   -0.26518
  3 Li   -0.00309    0.01340   -0.27387
  4 Li   -0.00090    0.00099   -0.28719
  5 Li    0.00370    0.01655   -0.27104
  6 Li   -0.00163   -0.01489   -0.27810
  7 Li   -0.00134    0.00341   -0.28091
  8 Li    0.00269   -0.01744   -0.27727
  9 Li    0.00635   -0.01440    0.30727
 10 Li    0.00739   -0.01542    0.28035
 11 Li   -0.00095   -0.02481    0.28219
 12 Li    0.00609    0.00499    0.25551
 13 Li    0.01465    0.00381    0.26514
 14 Li   -0.00151    0.01076    0.26035
 15 Li    0.00279   -0.02174    0.23094
 16 Li   -0.04991   -0.01263    0.27859
 17 Li    0.05219   -0.01173    0.27419
 18 Li   -0.00452   -0.00761   -0.01320
 19 Li   -0.00497   -0.00578    0.02017
 20 Li   -0.00384    0.00125   -0.00662
 21 Li    0.01086    0.01346    0.01216
 22 Li   -0.00501    0.00782    0.00850
 23 Li   -0.01436    0.00711    0.01471
 24 Li    0.00638   -0.00218   -0.01061
 25 Li    0.00383    0.00204    0.00953
 26 Li   -0.00636   -0.00579   -0.01115
 27 Li   -0.00606   -0.00095    0.00401
 28 Li    0.00656   -0.00201   -0.00207
 29 Li   -0.00550   -0.00092    0.00016
 30 Li    0.01079   -0.00469    0.00666
 31 Li   -0.00142    0.00323    0.00827
 32 Li   -0.02010    0.00210   -0.00514
 33 Li   -0.00320    0.02327    0.00480
 34 Li   -0.00204   -0.00452   -0.00865
 35 Li    0.00490   -0.00099   -0.00622
 36 Br   -0.00669   -0.01590    0.00495
 37 H    -0.00647    0.01777   -0.00227
 38 N     0.01992   -0.01222   -0.01207
 39 N    -0.00397    0.03771    0.01095

Timing:                                      incl.     excl.
-------------------------------------------------------------------
Density initialized from wave functions:   234.419   234.416   0.1% |
 Symmetrize density:                         0.003     0.003   0.0% |
Forces:                                    663.672   663.672   0.1% |
Hamiltonian:                              9161.106     0.029   0.0% |
 Atomic:                                    13.771     0.185   0.0% |
  XC Correction:                            13.586    13.586   0.0% |
 Calculate atomic Hamiltonians:             45.089    45.089   0.0% |
 Communicate:                               47.165    47.165   0.0% |
 Hartree integrate/restrict:                16.463    16.463   0.0% |
 Initialize Hamiltonian:                     0.000     0.000   0.0% |
 Poisson:                                  361.083   163.573   0.0% |
  Communicate from 1D:                      27.389    27.389   0.0% |
  Communicate from 2D:                      45.464    45.464   0.0% |
  Communicate to 1D:                        11.079    11.079   0.0% |
  Communicate to 2D:                        42.929    42.929   0.0% |
  FFT 1D:                                   34.960    34.960   0.0% |
  FFT 2D:                                   35.688    35.688   0.0% |
 XC 3D grid:                              8673.535   878.291   0.2% |
  VdW-DF integral:                        7795.244    17.326   0.0% |
   Convolution:                            499.807   499.807   0.1% |
   FFT:                                     85.961    85.961   0.0% |
   gather:                                6216.211  6216.211   1.3% ||
   hmm1:                                    91.142    91.142   0.0% |
   hmm2:                                   120.030   120.030   0.0% |
   iFFT:                                    88.754    88.754   0.0% |
   potential:                              662.101     7.559   0.0% |
    collect:                                60.759    60.759   0.0% |
    p1:                                    264.813   264.813   0.1% |
    p2:                                    167.731   167.731   0.0% |
    sum:                                   161.238   161.238   0.0% |
   splines:                                 13.913    13.913   0.0% |
 vbar:                                       3.971     3.971   0.0% |
LCAO initialization:                        11.239     0.574   0.0% |
 LCAO eigensolver:                           3.765     0.001   0.0% |
  Calculate projections:                     0.000     0.000   0.0% |
  DenseAtomicCorrection:                     0.000     0.000   0.0% |
  Distribute overlap matrix:                 3.506     3.506   0.0% |
  Orbital Layouts:                           0.105     0.105   0.0% |
  Potential matrix:                          0.150     0.150   0.0% |
  Sum over cells:                            0.004     0.004   0.0% |
 LCAO to grid:                               5.387     5.387   0.0% |
 Set positions (LCAO WFS):                   1.513     1.228   0.0% |
  Basic WFS set positions:                   0.004     0.004   0.0% |
  Basis functions set positions:             0.001     0.001   0.0% |
  P tci:                                     0.001     0.001   0.0% |
  ST tci:                                    0.151     0.151   0.0% |
  mktci:                                     0.130     0.130   0.0% |
Redistribute:                                0.121     0.121   0.0% |
SCF-cycle:                               451754.280  6015.210   1.3% ||
 Davidson:                               124496.863 51681.168  11.1% |---|
  Apply hamiltonian:                      7997.715  7997.715   1.7% ||
  Subspace diag:                         17186.238     0.982   0.0% |
   calc_h_matrix:                        10713.148  2916.197   0.6% |
    Apply hamiltonian:                    7796.952  7796.952   1.7% ||
   diagonalize:                            655.684   655.684   0.1% |
   rotate_psi:                            5816.424  5816.424   1.3% ||
  calc. matrices:                        36330.079 21895.448   4.7% |-|
   Apply hamiltonian:                    14434.632 14434.632   3.1% ||
  diagonalize:                              42.735    42.735   0.0% |
  rotate_psi:                            11258.927 11258.927   2.4% ||
 Density:                                 3025.939     0.157   0.0% |
  Atomic density matrices:                 787.089   787.089   0.2% |
  Mix:                                    1032.165  1032.165   0.2% |
  Multipole moments:                        11.154    11.154   0.0% |
  Pseudo density:                         1195.375  1195.262   0.3% |
   Symmetrize density:                       0.113     0.113   0.0% |
 Hamiltonian:                            317962.425     0.818   0.0% |
  Atomic:                                  480.212     6.625   0.0% |
   XC Correction:                          473.587   473.587   0.1% |
  Calculate atomic Hamiltonians:          1560.359  1560.359   0.3% |
  Communicate:                            1536.468  1536.468   0.3% |
  Hartree integrate/restrict:              578.622   578.622   0.1% |
  Poisson:                               12761.977  5786.507   1.2% |
   Communicate from 1D:                    944.945   944.945   0.2% |
   Communicate from 2D:                   1601.453  1601.453   0.3% |
   Communicate to 1D:                      389.518   389.518   0.1% |
   Communicate to 2D:                     1478.306  1478.306   0.3% |
   FFT 1D:                                1267.457  1267.457   0.3% |
   FFT 2D:                                1293.790  1293.790   0.3% |
  XC 3D grid:                            300901.112 30878.219   6.7% |--|
   VdW-DF integral:                      270022.893   626.846   0.1% |
    Convolution:                         17491.381 17491.381   3.8% |-|
    FFT:                                  2928.344  2928.344   0.6% |
    gather:                              215312.652 215312.652  46.4% |------------------|
    hmm1:                                 3178.764  3178.764   0.7% |
    hmm2:                                 4270.759  4270.759   0.9% |
    iFFT:                                 3111.519  3111.519   0.7% |
    potential:                           23102.601   264.473   0.1% |
     collect:                             2131.689  2131.689   0.5% |
     p1:                                  9171.891  9171.891   2.0% ||
     p2:                                  6001.236  6001.236   1.3% ||
     sum:                                 5533.313  5533.313   1.2% |
    splines:                                 0.028     0.028   0.0% |
  vbar:                                    142.857   142.857   0.0% |
 Orthonormalize:                           253.842     0.030   0.0% |
  calc_s_matrix:                            40.529    40.529   0.0% |
  inverse-cholesky:                          8.378     8.378   0.0% |
  projections:                             119.951   119.951   0.0% |
  rotate_psi_s:                             84.954    84.954   0.0% |
Set symmetry:                                0.003     0.003   0.0% |
Other:                                    2124.392  2124.392   0.5% |
-------------------------------------------------------------------
Total:                                             463949.230 100.0%

Memory usage: 1.63 GiB
Date: Tue Mar  7 19:51:38 2023
