
  ___ ___ ___ _ _ _  
 |   |   |_  | | | | 
 | | | | | . | | | | 
 |__ |  _|___|_____|  22.8.0
 |___|_|             

User:   vazumah@c10.hercules
Date:   Wed Jan 18 03:10:02 2023
Arch:   x86_64
Pid:    8102
CWD:    /home/vazumah/Python_projects/LiNRR/Li_adsorb_studies/autocat/close_proximity_proton_donors/adsorbates/HCl/bridge/8.085_1.617
Python: 3.10.8
gpaw:   /home/vazumah/.conda/envs/GPAW/lib/python3.10/site-packages/gpaw
_gpaw:  /home/vazumah/.conda/envs/GPAW/lib/python3.10/site-packages/
        _gpaw.cpython-310-x86_64-linux-gnu.so
ase:    /home/vazumah/.conda/envs/GPAW/lib/python3.10/site-packages/ase (version 3.22.1)
numpy:  /home/vazumah/.conda/envs/GPAW/lib/python3.10/site-packages/numpy (version 1.24.1)
scipy:  /home/vazumah/.conda/envs/GPAW/lib/python3.10/site-packages/scipy (version 1.10.0)
libxc:  5.2.3
units:  Angstrom and eV
cores: 24
OpenMP: True
OMP_NUM_THREADS: 1

Input parameters:
  h: 0.16
  kpts: {size: [4, 4, 1]}
  occupations: {name: fermi-dirac,
                width: 0.05}
  poissonsolver: {dipolelayer: xy}
  xc: BEEF-vdW

System changes: positions, numbers, cell, pbc, initial_charges, initial_magmoms 

Initialize ...

species:
  Li:
    name: Lithium
    id: 830b4218f175192f93f959cfc0aad614
    Z: 3.0
    valence: 1
    core: 2
    charge: 0.0
    file: /home/vazumah/.conda/envs/GPAW/share/gpaw/Li.PBE.gz
    compensation charges: {type: gauss,
                           rc: 0.33,
                           lmax: 2}
    cutoffs: {filter: 1.91,
              core: 2.55}
    valence states:
      #              energy  rcut
      - 2s(1.00)    -2.874   1.058
      - 2p(0.00)    -1.090   1.058
      -  s          24.337   1.058
  
    # Using partial waves for Li as LCAO basis

  Cl:
    name: Chlorine
    id: 726897f06f34e53cf8e33b5885a02604
    Z: 17.0
    valence: 7
    core: 10
    charge: 0.0
    file: /home/vazumah/.conda/envs/GPAW/share/gpaw/Cl.PBE.gz
    compensation charges: {type: gauss,
                           rc: 0.25,
                           lmax: 2}
    cutoffs: {filter: 1.40,
              core: 1.49}
    valence states:
      #              energy  rcut
      - 3s(2.00)   -20.689   0.794
      - 3p(5.00)    -8.594   0.794
      -  s           6.523   0.794
      -  p          18.617   0.794
      -  d           0.000   0.794
  
    # Using partial waves for Cl as LCAO basis

  H:
    name: Hydrogen
    id: d65de229564ff8ea4db303e23b6d1ecf
    Z: 1.0
    valence: 1
    core: 0
    charge: 0.0
    file: /home/vazumah/.conda/envs/GPAW/share/gpaw/H.PBE.gz
    compensation charges: {type: gauss,
                           rc: 0.15,
                           lmax: 2}
    cutoffs: {filter: 0.85,
              core: 0.53}
    valence states:
      #              energy  rcut
      - 1s(1.00)    -6.494   0.476
      -  s          20.717   0.476
      -  p           0.000   0.476
  
    # Using partial waves for H as LCAO basis

Reference energy: -19867.801087  # eV

Spin-paired calculation

Convergence criteria:
 Maximum [total energy] change in last 3 cyles: 0.0005 eV / electron
 Maximum integral of absolute [dens]ity change: 0.0001 electrons / valence electron
 Maximum integral of absolute [eigenst]ate change: 4e-08 eV^2 / valence electron
 Maximum number of scf [iter]ations: 333
 (Square brackets indicate name in SCF output, whereas a 'c' in
 the SCF output indicates the quantity has converged.)

Symmetries present (total): 1

  ( 1  0  0)
  ( 0  1  0)
  ( 0  0  1)

16 k-points: 4 x 4 x 1 Monkhorst-Pack grid
8 k-points in the irreducible part of the Brillouin zone
       k-points in crystal coordinates                weights
   0:     0.12500000   -0.37500000    0.00000000          2/16
   1:     0.12500000   -0.12500000    0.00000000          2/16
   2:     0.12500000    0.12500000    0.00000000          2/16
   3:     0.12500000    0.37500000    0.00000000          2/16
   4:     0.37500000   -0.37500000    0.00000000          2/16
   5:     0.37500000   -0.12500000    0.00000000          2/16
   6:     0.37500000    0.12500000    0.00000000          2/16
   7:     0.37500000    0.37500000    0.00000000          2/16

Wave functions: Uniform real-space grid
  Kinetic energy operator: 6*3+1=19 point O(h^6) finite-difference Laplacian
  ScaLapack parameters: grid=1x1, blocksize=None
  Wavefunction extrapolation:
    Improved wavefunction reuse through dual PAW basis 

Occupation numbers: Fermi-Dirac:
  width: 0.0500  # eV
 

Eigensolver
   Davidson(niter=2) 

Densities:
  Coarse grid: 60*60*156 grid
  Fine grid: 120*120*312 grid
  Total Charge: 0.000000 

Density mixing:
  Method: separate
  Backend: pulay
  Linear mixing parameter: 0.05
  old densities: 5
  Damping of long wavelength oscillations: 50 

Hamiltonian:
  XC and Coulomb potentials evaluated on a 120*120*312 grid
  Using the BEEF-vdW Exchange-Correlation functional
  Interpolation: tri-quintic (5. degree polynomial)
  Poisson solver: FastPoissonSolver using
    Stencil: 6*3+1=19 point O(h^6) finite-difference Laplacian
    FFT axes: [0, 1]
    FST axes: [2]

Dipole correction along z-axis 

XC parameters: BEEF-vdW with 2 nearest neighbor stencil

Memory estimate:
  Process memory now: 219.59 MiB
  Calculator: 336.41 MiB
    Density: 116.05 MiB
      Arrays: 36.75 MiB
      Localized functions: 65.30 MiB
      Mixer: 14.01 MiB
    Hamiltonian: 29.19 MiB
      Arrays: 24.03 MiB
      XC: 0.00 MiB
      Poisson: 0.00 MiB
      vbar: 5.16 MiB
    Wavefunctions: 191.16 MiB
      Arrays psit_nG: 86.85 MiB
      Eigensolver: 101.00 MiB
      Projections: 0.03 MiB
      Projectors: 3.28 MiB

Total number of cores used: 24
Parallelization over k-points: 8
Domain decomposition: 1 x 1 x 3

Number of atoms: 38
Number of atomic orbitals: 149
Number of bands in calculation: 31
Number of valence electrons: 44
Bands to converge: occupied

... initialized

Initializing position-dependent things.

Density initialized from atomic densities
Creating initial wave functions:
  31 bands from LCAO basis set

       .-----------------------.  
      /|                       |  
     / |                       |  
    /  |                       |  
   /   |                       |  
  /    |                       |  
 *     |                       |  
 |     |                       |  
 |     |                       |  
 |     |                       |  
 |     |                       |  
 |     |                       |  
 |     |                       |  
 |     |            H Cl       |  
 |   Li|     Li      Li        |  
 |     |  Li      Li      Li   |  
 | Li  |   Li      Li          |  
 |     |Li      Li      Li     |  
 Li    | Li      Li            |  
 |   LLi     LLi     LLi       |  
 |     |  Li      Li      Li   |  
 | Li  |   Li      Li          |  
 |     |Li      Li      Li     |  
 Li    | Li      Li            |  
 |    Li      Li      Li       |  
 |     |                       |  
 |     |                       |  
 |     |                       |  
 |     |                       |  
 |     |                       |  
 |     |                       |  
 |     .-----------------------.  
 |    /                       /   
 |   /                       /    
 |  /                       /     
 | /                       /      
 |/                       /       
 *-----------------------*        

Positions:
   0 Li     1.617037    1.617037   10.000000    ( 0.0000,  0.0000,  0.0000)
   1 Li     4.851111    1.617037   10.000000    ( 0.0000,  0.0000,  0.0000)
   2 Li     8.085185    1.617037   10.000000    ( 0.0000,  0.0000,  0.0000)
   3 Li     1.617037    4.851111   10.000000    ( 0.0000,  0.0000,  0.0000)
   4 Li     4.851111    4.851111   10.000000    ( 0.0000,  0.0000,  0.0000)
   5 Li     8.085185    4.851111   10.000000    ( 0.0000,  0.0000,  0.0000)
   6 Li     1.617037    8.085185   10.000000    ( 0.0000,  0.0000,  0.0000)
   7 Li     4.851111    8.085185   10.000000    ( 0.0000,  0.0000,  0.0000)
   8 Li     8.085185    8.085185   10.000000    ( 0.0000,  0.0000,  0.0000)
   9 Li     0.000000    0.000000   11.617037    ( 0.0000,  0.0000,  0.0000)
  10 Li     3.234074    0.000000   11.617037    ( 0.0000,  0.0000,  0.0000)
  11 Li     6.468148    0.000000   11.617037    ( 0.0000,  0.0000,  0.0000)
  12 Li     0.000000    3.234074   11.617037    ( 0.0000,  0.0000,  0.0000)
  13 Li     3.234074    3.234074   11.617037    ( 0.0000,  0.0000,  0.0000)
  14 Li     6.468148    3.234074   11.617037    ( 0.0000,  0.0000,  0.0000)
  15 Li     0.000000    6.468148   11.617037    ( 0.0000,  0.0000,  0.0000)
  16 Li     3.234074    6.468148   11.617037    ( 0.0000,  0.0000,  0.0000)
  17 Li     6.468148    6.468148   11.617037    ( 0.0000,  0.0000,  0.0000)
  18 Li     1.617038    1.617038   13.469728    ( 0.0000,  0.0000,  0.0000)
  19 Li     4.851111    1.617038   13.469729    ( 0.0000,  0.0000,  0.0000)
  20 Li     8.085184    1.617038   13.469728    ( 0.0000,  0.0000,  0.0000)
  21 Li     1.617038    4.851111   13.469729    ( 0.0000,  0.0000,  0.0000)
  22 Li     4.851111    4.851111   13.469730    ( 0.0000,  0.0000,  0.0000)
  23 Li     8.085184    4.851111   13.469729    ( 0.0000,  0.0000,  0.0000)
  24 Li     1.617038    8.085184   13.469728    ( 0.0000,  0.0000,  0.0000)
  25 Li     4.851111    8.085184   13.469729    ( 0.0000,  0.0000,  0.0000)
  26 Li     8.085184    8.085184   13.469728    ( 0.0000,  0.0000,  0.0000)
  27 Li    -0.000000   -0.000000   15.445939    ( 0.0000,  0.0000,  0.0000)
  28 Li     3.234074    0.000000   15.445939    ( 0.0000,  0.0000,  0.0000)
  29 Li     6.468148    0.000000   15.445939    ( 0.0000,  0.0000,  0.0000)
  30 Li     0.000000    3.234074   15.445939    ( 0.0000,  0.0000,  0.0000)
  31 Li     3.234076    3.234076   15.445938    ( 0.0000,  0.0000,  0.0000)
  32 Li     6.468146    3.234076   15.445938    ( 0.0000,  0.0000,  0.0000)
  33 Li     0.000000    6.468148   15.445939    ( 0.0000,  0.0000,  0.0000)
  34 Li     3.234076    6.468146   15.445938    ( 0.0000,  0.0000,  0.0000)
  35 Li     6.468146    6.468146   15.445938    ( 0.0000,  0.0000,  0.0000)
  36 Cl     8.085185    1.617037   18.445939    ( 0.0000,  0.0000,  0.0000)
  37 H      7.085185    1.617037   18.445939    ( 0.0000,  0.0000,  0.0000)

Unit cell:
           periodic     x           y           z      points  spacing
  1. axis:    yes    9.702222    0.000000    0.000000    60     0.1617
  2. axis:    yes    0.000000    9.702222    0.000000    60     0.1617
  3. axis:    no     0.000000    0.000000   24.851111   156     0.1593

  Lengths:   9.702222   9.702222  24.851111
  Angles:   90.000000  90.000000  90.000000

Effective grid spacing dv^(1/3) = 0.1609

     iter     time        total  log10-change:
                         energy  eigst   dens
iter:   1 03:13:06  -281.959383
iter:   2 03:15:25  -225.221963  +2.03  -0.20
iter:   3 03:17:44  -203.368032  +2.13  -0.38
iter:   4 03:20:01  -227.927726  +2.87  -0.44
Writing to output.gpw (mode='')

iter:   5 03:22:24  -214.106679  +1.92  -0.31
iter:   6 03:24:44  -220.259753  +1.77  -0.65
iter:   7 03:27:08  -230.733614  +1.86  -0.79
iter:   8 03:29:27  -231.465302  +1.64  -0.60
iter:   9 03:31:43  -233.209004  +0.95  -1.00
Writing to output.gpw (mode='')

iter:  10 03:34:03  -234.157052  +0.90  -1.02
iter:  11 03:36:18  -234.475029  +0.46  -0.96
iter:  12 03:38:39  -234.639637  +0.14  -0.94
iter:  13 03:40:55  -234.370236  +0.08  -0.92
iter:  14 03:43:10  -232.969401  +0.32  -0.91
Writing to output.gpw (mode='')

iter:  15 03:45:26  -232.856422  +0.04  -1.22
iter:  16 03:47:47  -232.778006  -0.37  -1.32
iter:  17 03:50:02  -232.811891  -0.27  -1.40
iter:  18 03:52:16  -232.798367  -0.46  -1.45
iter:  19 03:54:33  -232.814685c -0.51  -1.54
Writing to output.gpw (mode='')

iter:  20 03:56:50  -232.797236c -0.87  -1.56
iter:  21 03:59:07  -232.799614c -1.07  -1.80
iter:  22 04:01:23  -232.799524c -1.38  -1.89
iter:  23 04:03:40  -232.802466c -1.23  -1.97
iter:  24 04:05:58  -232.801861c -1.51  -1.97
Writing to output.gpw (mode='')

iter:  25 04:08:13  -232.804324c -1.53  -2.06
iter:  26 04:10:33  -232.805614c -1.99  -2.15
iter:  27 04:12:54  -232.807157c -2.01  -2.20
iter:  28 04:15:15  -232.808370c -1.96  -2.31
iter:  29 04:17:38  -232.808727c -2.30  -2.54
Writing to output.gpw (mode='')

iter:  30 04:19:59  -232.809222c -2.41  -2.57
iter:  31 04:22:22  -232.809996c -2.35  -2.59
iter:  32 04:24:46  -232.810402c -2.51  -2.78
iter:  33 04:27:14  -232.810683c -2.24  -2.88
iter:  34 04:29:35  -232.810918c -2.70  -2.93
Writing to output.gpw (mode='')

iter:  35 04:31:57  -232.811108c -2.83  -2.99
iter:  36 04:34:15  -232.811243c -2.94  -3.03
iter:  37 04:36:34  -232.811348c -3.04  -3.27
iter:  38 04:39:06  -232.811434c -3.02  -3.25
iter:  39 04:41:26  -232.811508c -3.11  -3.35
Writing to output.gpw (mode='')

iter:  40 04:43:52  -232.811598c -2.92  -3.47
iter:  41 04:46:18  -232.811656c -3.13  -3.54
iter:  42 04:48:30  -232.811706c -3.22  -3.55
iter:  43 04:50:50  -232.811771c -3.22  -3.60
iter:  44 04:53:09  -232.811802c -3.45  -3.67
Writing to output.gpw (mode='')

iter:  45 04:55:33  -232.811826c -3.48  -3.81
iter:  46 04:57:53  -232.811843c -3.71  -3.85
iter:  47 05:00:16  -232.811858c -3.83  -3.93
iter:  48 05:02:41  -232.811870c -3.91  -4.08c
iter:  49 05:05:00  -232.811878c -4.04  -4.12c
Writing to output.gpw (mode='')

iter:  50 05:07:27  -232.811885c -4.05  -4.12c
iter:  51 05:09:52  -232.811891c -4.14  -4.10c
iter:  52 05:12:05  -232.811895c -4.20  -4.05c
iter:  53 05:14:32  -232.811898c -4.35  -4.14c
iter:  54 05:16:53  -232.811901c -4.23  -4.14c
Writing to output.gpw (mode='')

iter:  55 05:19:18  -232.811903c -4.37  -4.32c
iter:  56 05:21:49  -232.811905c -4.30  -4.47c
iter:  57 05:24:12  -232.811906c -4.58  -4.50c
iter:  58 05:26:31  -232.811908c -4.26  -4.44c
iter:  59 05:28:50  -232.811908c -4.64  -4.42c
Writing to output.gpw (mode='')

iter:  60 05:31:13  -232.811909c -4.68  -4.30c
iter:  61 05:33:24  -232.811909c -4.69  -4.33c
iter:  62 05:35:42  -232.811909c -4.77  -4.41c
iter:  63 05:37:58  -232.811909c -4.88  -4.37c
iter:  64 05:40:15  -232.811910c -4.98  -4.27c
Writing to output.gpw (mode='')

iter:  65 05:42:36  -232.811910c -5.07  -4.50c
iter:  66 05:44:49  -232.811910c -5.12  -4.53c
iter:  67 05:47:08  -232.811910c -5.12  -4.51c
iter:  68 05:49:32  -232.811909c -5.15  -4.47c
iter:  69 05:51:46  -232.811909c -5.19  -4.45c
Writing to output.gpw (mode='')

iter:  70 05:54:04  -232.811909c -5.20  -4.44c
iter:  71 05:56:23  -232.811909c -5.18  -4.41c
iter:  72 05:58:43  -232.811909c -5.19  -4.45c
iter:  73 06:01:04  -232.811909c -5.53  -4.47c
iter:  74 06:03:34  -232.811909c -5.52  -4.36c
Writing to output.gpw (mode='')

iter:  75 06:05:53  -232.811909c -5.57  -4.58c
iter:  76 06:08:15  -232.811908c -5.52  -4.64c
iter:  77 06:10:35  -232.811908c -5.37  -4.70c
iter:  78 06:12:51  -232.811908c -5.72  -4.77c
iter:  79 06:15:05  -232.811908c -5.36  -4.80c
Writing to output.gpw (mode='')

iter:  80 06:17:30  -232.811908c -5.89  -5.05c
iter:  81 06:19:52  -232.811908c -5.85  -5.17c
iter:  82 06:22:07  -232.811908c -5.94  -5.22c
iter:  83 06:24:27  -232.811908c -5.96  -5.25c
iter:  84 06:26:42  -232.811908c -5.93  -5.34c
Writing to output.gpw (mode='')

iter:  85 06:29:03  -232.811908c -6.08  -5.47c
iter:  86 06:31:22  -232.811908c -6.16  -5.49c
iter:  87 06:33:45  -232.811907c -5.94  -5.48c
iter:  88 06:36:05  -232.811907c -6.20  -5.35c
iter:  89 06:38:17  -232.811907c -6.13  -5.45c
Writing to output.gpw (mode='')

iter:  90 06:40:31  -232.811907c -6.17  -5.48c
iter:  91 06:42:44  -232.811907c -6.26  -5.30c
iter:  92 06:45:03  -232.811907c -6.15  -5.35c
iter:  93 06:47:21  -232.811907c -6.25  -5.39c
iter:  94 06:49:32  -232.811907c -6.31  -5.41c
Writing to output.gpw (mode='')

iter:  95 06:51:46  -232.811907c -6.26  -5.48c
iter:  96 06:54:00  -232.811907c -6.57  -5.45c
iter:  97 06:56:24  -232.811907c -6.66  -5.47c
iter:  98 06:58:43  -232.811907c -6.57  -5.40c
iter:  99 07:01:00  -232.811907c -6.69  -5.41c
Writing to output.gpw (mode='')

iter: 100 07:03:20  -232.811907c -6.78  -5.41c
iter: 101 07:05:43  -232.811907c -6.87  -5.53c
iter: 102 07:08:04  -232.811907c -6.85  -5.53c
iter: 103 07:10:27  -232.811906c -6.88  -5.55c
iter: 104 07:12:47  -232.811906c -6.70  -5.66c
Writing to output.gpw (mode='')

iter: 105 07:15:13  -232.811906c -6.98  -5.73c
iter: 106 07:17:29  -232.811906c -6.97  -5.97c
iter: 107 07:19:53  -232.811906c -6.92  -6.07c
iter: 108 07:22:16  -232.811906c -7.03  -6.16c
iter: 109 07:24:33  -232.811906c -7.10  -6.26c
Writing to output.gpw (mode='')

iter: 110 07:26:47  -232.811906c -7.04  -6.28c
iter: 111 07:29:04  -232.811906c -7.01  -6.33c
iter: 112 07:31:23  -232.811906c -7.26  -6.54c
iter: 113 07:33:53  -232.811906c -7.26  -6.57c
iter: 114 07:36:21  -232.811906c -7.28  -6.53c
Writing to output.gpw (mode='')

iter: 115 07:38:35  -232.811906c -7.13  -6.52c
iter: 116 07:40:48  -232.811906c -7.34  -6.46c
iter: 117 07:43:09  -232.811906c -7.40c -6.37c

Converged after 117 iterations.

Dipole moment: (-2.452466, -3.269658, 0.078250) |e|*Ang

Energy contributions relative to reference atoms: (reference = -19867.801087)

Kinetic:       +103.883026
Potential:      -87.083118
External:        +0.000000
XC:            -249.391098
Entropy (-ST):   -0.152330
Local:           -0.144551
--------------------------
Free energy:   -232.888071
Extrapolated:  -232.811906

Dipole-layer corrected work functions: 3.383260, 3.232837 eV

Showing only first 2 kpts
 Kpt  Band  Eigenvalues  Occupancy
  0    20     -3.56159    1.98752
  0    21     -3.47718    1.93431
  0    22     -3.14361    0.07192
  0    23     -3.05519    0.01265

  1    20     -3.32882    1.20475
  1    21     -3.30444    0.96390
  1    22     -3.26880    0.62646
  1    23     -3.25761    0.53447


Fermi level: -3.30805

No gap
Writing to output.gpw (mode='')


Forces in eV/Ang:
  0 Li    0.00581    0.00000   -0.27128
  1 Li   -0.00460    0.00000   -0.27221
  2 Li   -0.00134    0.00000   -0.27231
  3 Li   -0.00254   -0.00085   -0.27218
  4 Li    0.00203   -0.00250   -0.27292
  5 Li    0.00057    0.00611   -0.27264
  6 Li   -0.00254    0.00085   -0.27218
  7 Li    0.00203    0.00250   -0.27292
  8 Li    0.00057   -0.00611   -0.27264
  9 Li   -0.00025   -0.00169    0.26289
 10 Li    0.00158    0.00336    0.25812
 11 Li   -0.00117   -0.00201    0.26084
 12 Li   -0.00025    0.00169    0.26289
 13 Li    0.00158   -0.00336    0.25812
 14 Li   -0.00117    0.00202    0.26084
 15 Li    0.00046   -0.00000    0.25340
 16 Li   -0.00231   -0.00000    0.26672
 17 Li    0.00178   -0.00000    0.25747
 18 Li   -0.00746   -0.00000    0.04496
 19 Li    0.00892   -0.00000    0.05406
 20 Li   -0.00112   -0.00000   -0.00618
 21 Li   -0.00213   -0.00279    0.03867
 22 Li    0.00110    0.00004    0.03578
 23 Li    0.00096   -0.00253    0.04076
 24 Li   -0.00212    0.00279    0.03868
 25 Li    0.00110   -0.00003    0.03578
 26 Li    0.00096    0.00253    0.04076
 27 Li    0.02230   -0.02928   -0.04697
 28 Li    0.00613    0.01318   -0.01492
 29 Li   -0.03305   -0.03622   -0.07904
 30 Li    0.02230    0.02928   -0.04697
 31 Li    0.00612   -0.01318   -0.01491
 32 Li   -0.03305    0.03621   -0.07904
 33 Li   -0.00494   -0.00000   -0.02367
 34 Li   -0.00035    0.00000   -0.01977
 35 Li    0.00525    0.00000   -0.02171
 36 Cl   20.32766   -0.00000    0.12439
 37 H   -20.30720    0.00000    0.00228

System changes: positions 

Initializing position-dependent things.

Density initialized from wave functions
       .-----------------------.  
      /|                       |  
     / |                       |  
    /  |                       |  
   /   |                       |  
  /    |                       |  
 *     |                       |  
 |     |                       |  
 |     |                       |  
 |     |                       |  
 |     |                       |  
 |     |                       |  
 |     Li              Li      |  
 |     |           H  Cl       |  
 |     |     Li      Li      Li|  
 |     |  Li      Li      Li   |  
 | Li  |   Li      Li          |  
 |     |Li      Li      Li     |  
 |     | Li                    |  
 |   LLi     LLi     LLi       |  
 |     |  Li      Li      Li   |  
 | Li  |   Li      Li          |  
 |     |Li      Li      Li     |  
 Li    | Li      Li            |  
 |    Li      Li      Li       |  
 |     |                       |  
 |     |                       |  
 |     |                       |  
 |     |                       |  
 |     |                       |  
 |     |                       |  
 |     .-----------------------.  
 |    /                       /   
 |   /                       /    
 |  /                       /     
 | /                       /      
 |/                       /       
 *-----------------------*        

Positions:
   0 Li     1.617037    1.617037   10.000000    ( 0.0000,  0.0000,  0.0000)
   1 Li     4.851111    1.617037   10.000000    ( 0.0000,  0.0000,  0.0000)
   2 Li     8.085185    1.617037   10.000000    ( 0.0000,  0.0000,  0.0000)
   3 Li     1.617037    4.851111   10.000000    ( 0.0000,  0.0000,  0.0000)
   4 Li     4.851111    4.851111   10.000000    ( 0.0000,  0.0000,  0.0000)
   5 Li     8.085185    4.851111   10.000000    ( 0.0000,  0.0000,  0.0000)
   6 Li     1.617037    8.085185   10.000000    ( 0.0000,  0.0000,  0.0000)
   7 Li     4.851111    8.085185   10.000000    ( 0.0000,  0.0000,  0.0000)
   8 Li     8.085185    8.085185   10.000000    ( 0.0000,  0.0000,  0.0000)
   9 Li     0.000000    0.000000   11.617037    ( 0.0000,  0.0000,  0.0000)
  10 Li     3.234074    0.000000   11.617037    ( 0.0000,  0.0000,  0.0000)
  11 Li     6.468148    0.000000   11.617037    ( 0.0000,  0.0000,  0.0000)
  12 Li     0.000000    3.234074   11.617037    ( 0.0000,  0.0000,  0.0000)
  13 Li     3.234074    3.234074   11.617037    ( 0.0000,  0.0000,  0.0000)
  14 Li     6.468148    3.234074   11.617037    ( 0.0000,  0.0000,  0.0000)
  15 Li     0.000000    6.468148   11.617037    ( 0.0000,  0.0000,  0.0000)
  16 Li     3.234074    6.468148   11.617037    ( 0.0000,  0.0000,  0.0000)
  17 Li     6.468148    6.468148   11.617037    ( 0.0000,  0.0000,  0.0000)
  18 Li     1.617023    1.617038   13.469816    ( 0.0000,  0.0000,  0.0000)
  19 Li     4.851129    1.617038   13.469836    ( 0.0000,  0.0000,  0.0000)
  20 Li     8.085182    1.617038   13.469716    ( 0.0000,  0.0000,  0.0000)
  21 Li     1.617034    4.851106   13.469806    ( 0.0000,  0.0000,  0.0000)
  22 Li     4.851113    4.851111   13.469801    ( 0.0000,  0.0000,  0.0000)
  23 Li     8.085185    4.851106   13.469810    ( 0.0000,  0.0000,  0.0000)
  24 Li     1.617034    8.085189   13.469804    ( 0.0000,  0.0000,  0.0000)
  25 Li     4.851113    8.085184   13.469800    ( 0.0000,  0.0000,  0.0000)
  26 Li     8.085186    8.085189   13.469808    ( 0.0000,  0.0000,  0.0000)
  27 Li     0.000044   -0.000058   15.445847    ( 0.0000,  0.0000,  0.0000)
  28 Li     3.234086    0.000026   15.445909    ( 0.0000,  0.0000,  0.0000)
  29 Li     6.468083   -0.000071   15.445783    ( 0.0000,  0.0000,  0.0000)
  30 Li     0.000044    3.234131   15.445846    ( 0.0000,  0.0000,  0.0000)
  31 Li     3.234089    3.234051   15.445909    ( 0.0000,  0.0000,  0.0000)
  32 Li     6.468081    3.234148   15.445783    ( 0.0000,  0.0000,  0.0000)
  33 Li    -0.000010    6.468148   15.445892    ( 0.0000,  0.0000,  0.0000)
  34 Li     3.234076    6.468146   15.445899    ( 0.0000,  0.0000,  0.0000)
  35 Li     6.468156    6.468146   15.445895    ( 0.0000,  0.0000,  0.0000)
  36 Cl     8.125184    1.617037   18.446184    ( 0.0000,  0.0000,  0.0000)
  37 H      7.045226    1.617037   18.445944    ( 0.0000,  0.0000,  0.0000)

Unit cell:
           periodic     x           y           z      points  spacing
  1. axis:    yes    9.702222    0.000000    0.000000    60     0.1617
  2. axis:    yes    0.000000    9.702222    0.000000    60     0.1617
  3. axis:    no     0.000000    0.000000   24.851111   156     0.1593

  Lengths:   9.702222   9.702222  24.851111
  Angles:   90.000000  90.000000  90.000000

Effective grid spacing dv^(1/3) = 0.1609

     iter     time        total  log10-change:
                         energy  eigst   dens
iter:   1 07:45:59  -234.674417  -0.67
iter:   2 07:48:25  -234.248008  -0.29  -1.06
iter:   3 07:50:47  -234.128811  -1.23  -1.31
iter:   4 07:53:00  -234.098746  -0.45  -1.65
Writing to output.gpw (mode='')

iter:   5 07:55:17  -234.085483  -0.89  -1.57
iter:   6 07:57:38  -234.049457  -1.04  -1.64
iter:   7 08:00:01  -234.050265  -1.65  -2.21
iter:   8 08:02:16  -234.050435c -2.12  -2.30
iter:   9 08:04:30  -234.051258c -1.95  -2.49
Writing to output.gpw (mode='')

iter:  10 08:06:45  -234.051369c -2.41  -2.56
iter:  11 08:09:10  -234.051652c -2.17  -2.61
iter:  12 08:11:26  -234.051963c -2.72  -2.80
iter:  13 08:13:48  -234.052081c -3.02  -2.83
iter:  14 08:16:03  -234.052163c -3.17  -2.86
Writing to output.gpw (mode='')

iter:  15 08:18:21  -234.052309c -3.12  -3.03
iter:  16 08:20:41  -234.052352c -3.17  -3.19
iter:  17 08:23:02  -234.052453c -3.09  -3.26
iter:  18 08:25:21  -234.052465c -3.40  -3.15
iter:  19 08:27:35  -234.052465c -3.74  -3.24
Writing to output.gpw (mode='')

iter:  20 08:29:49  -234.052492c -3.97  -3.27
iter:  21 08:32:06  -234.052505c -3.88  -3.23
iter:  22 08:34:23  -234.052480c -4.06  -3.24
iter:  23 08:36:45  -234.052503c -4.12  -3.33
iter:  24 08:39:03  -234.052503c -4.59  -3.21
Writing to output.gpw (mode='')

iter:  25 08:41:23  -234.052487c -4.61  -3.27
iter:  26 08:43:43  -234.052481c -4.72  -3.29
iter:  27 08:46:07  -234.052474c -4.55  -3.35
iter:  28 08:48:24  -234.052473c -4.67  -3.36
iter:  29 08:50:46  -234.052472c -4.37  -3.46
Writing to output.gpw (mode='')

iter:  30 08:53:01  -234.052466c -4.94  -3.53
iter:  31 08:55:18  -234.052465c -5.23  -3.72
iter:  32 08:57:35  -234.052467c -5.06  -3.76
iter:  33 09:00:06  -234.052465c -5.47  -3.98
iter:  34 09:02:33  -234.052463c -5.23  -4.01c
Writing to output.gpw (mode='')

iter:  35 09:05:02  -234.052464c -5.89  -4.11c
iter:  36 09:07:22  -234.052465c -5.46  -4.21c
iter:  37 09:09:42  -234.052465c -5.86  -4.31c
iter:  38 09:12:02  -234.052465c -5.97  -4.41c
iter:  39 09:14:18  -234.052465c -6.05  -4.50c
Writing to output.gpw (mode='')

iter:  40 09:16:43  -234.052465c -6.00  -4.58c
iter:  41 09:19:00  -234.052464c -6.19  -4.75c
iter:  42 09:21:19  -234.052465c -6.48  -4.85c
iter:  43 09:23:41  -234.052465c -6.52  -4.90c
iter:  44 09:26:05  -234.052465c -6.48  -4.94c
Writing to output.gpw (mode='')

iter:  45 09:28:20  -234.052465c -6.54  -5.07c
iter:  46 09:30:39  -234.052465c -6.61  -5.15c
iter:  47 09:32:54  -234.052465c -6.47  -5.28c
iter:  48 09:35:08  -234.052465c -6.48  -5.44c
iter:  49 09:37:38  -234.052465c -6.76  -5.54c
Writing to output.gpw (mode='')

iter:  50 09:39:58  -234.052465c -6.86  -5.57c
iter:  51 09:42:13  -234.052465c -6.88  -5.58c
iter:  52 09:44:34  -234.052465c -6.82  -5.68c
iter:  53 09:46:50  -234.052465c -6.90  -5.66c
iter:  54 09:49:08  -234.052464c -7.04  -5.79c
Writing to output.gpw (mode='')

iter:  55 09:51:30  -234.052464c -7.11  -5.88c
iter:  56 09:54:03  -234.052464c -7.13  -5.94c
iter:  57 09:56:23  -234.052464c -7.18  -6.13c
iter:  58 09:58:35  -234.052464c -7.10  -6.19c
iter:  59 10:00:51  -234.052464c -7.41c -6.34c

Converged after 59 iterations.

Dipole moment: (-2.419219, -3.267081, 0.074657) |e|*Ang

Energy contributions relative to reference atoms: (reference = -19867.801087)

Kinetic:        +95.794762
Potential:      -81.442583
External:        +0.000000
XC:            -248.190557
Entropy (-ST):   -0.152216
Local:           -0.137979
--------------------------
Free energy:   -234.128572
Extrapolated:  -234.052464

Dipole-layer corrected work functions: 3.382695, 3.239178 eV

Showing only first 2 kpts
 Kpt  Band  Eigenvalues  Occupancy
  0    20     -3.56457    1.98755
  0    21     -3.48024    1.93453
  0    22     -3.14584    0.07101
  0    23     -3.05817    0.01267

  1    20     -3.33186    1.20628
  1    21     -3.30718    0.96250
  1    22     -3.27158    0.62559
  1    23     -3.26032    0.53303


Fermi level: -3.31094

No gap
Writing to output.gpw (mode='')


Forces in eV/Ang:
  0 Li    0.00597    0.00000   -0.27121
  1 Li   -0.00465    0.00000   -0.27212
  2 Li   -0.00147    0.00000   -0.27229
  3 Li   -0.00254   -0.00066   -0.27214
  4 Li    0.00194   -0.00250   -0.27287
  5 Li    0.00067    0.00626   -0.27257
  6 Li   -0.00254    0.00066   -0.27214
  7 Li    0.00194    0.00250   -0.27287
  8 Li    0.00067   -0.00626   -0.27257
  9 Li   -0.00032   -0.00175    0.26342
 10 Li    0.00176    0.00344    0.25817
 11 Li   -0.00126   -0.00209    0.26116
 12 Li   -0.00032    0.00175    0.26342
 13 Li    0.00176   -0.00344    0.25817
 14 Li   -0.00126    0.00209    0.26116
 15 Li    0.00060   -0.00000    0.25304
 16 Li   -0.00243   -0.00000    0.26672
 17 Li    0.00177   -0.00000    0.25748
 18 Li   -0.00744   -0.00000    0.04419
 19 Li    0.00913   -0.00000    0.05446
 20 Li   -0.00125   -0.00000   -0.00755
 21 Li   -0.00218   -0.00294    0.03865
 22 Li    0.00107    0.00025    0.03542
 23 Li    0.00104   -0.00243    0.04043
 24 Li   -0.00218    0.00294    0.03866
 25 Li    0.00107   -0.00025    0.03542
 26 Li    0.00104    0.00243    0.04043
 27 Li    0.02126   -0.02852   -0.04373
 28 Li    0.00695    0.01351   -0.01418
 29 Li   -0.03391   -0.03584   -0.07867
 30 Li    0.02126    0.02852   -0.04372
 31 Li    0.00695   -0.01352   -0.01418
 32 Li   -0.03391    0.03584   -0.07867
 33 Li   -0.00488   -0.00000   -0.02370
 34 Li   -0.00042    0.00000   -0.01966
 35 Li    0.00524    0.00000   -0.02163
 36 Cl   11.34194   -0.00000    0.11984
 37 H   -11.32457    0.00000   -0.00827

System changes: positions 

Initializing position-dependent things.

Density initialized from wave functions
       .-----------------------.  
      /|                       |  
     / |                       |  
    /  |                       |  
   /   |                       |  
  /    |                       |  
 *     |                       |  
 |     |                       |  
 |     |                       |  
 |     |                       |  
 |     |                       |  
 |     |                       |  
 |     Li              Li      |  
 |     |           H  Cl       |  
 |     |     Li      Li      Li|  
 |     |  Li      Li      Li   |  
 | Li  |   Li      Li          |  
 |     |Li      Li      Li     |  
 |     | Li                    |  
 |   LLi     LLi     LLi       |  
 |     |  Li      Li      Li   |  
 | Li  |   Li      Li          |  
 |     |Li      Li      Li     |  
 Li    | Li      Li            |  
 |    Li      Li      Li       |  
 |     |                       |  
 |     |                       |  
 |     |                       |  
 |     |                       |  
 |     |                       |  
 |     |                       |  
 |     .-----------------------.  
 |    /                       /   
 |   /                       /    
 |  /                       /     
 | /                       /      
 |/                       /       
 *-----------------------*        

Positions:
   0 Li     1.617037    1.617037   10.000000    ( 0.0000,  0.0000,  0.0000)
   1 Li     4.851111    1.617037   10.000000    ( 0.0000,  0.0000,  0.0000)
   2 Li     8.085185    1.617037   10.000000    ( 0.0000,  0.0000,  0.0000)
   3 Li     1.617037    4.851111   10.000000    ( 0.0000,  0.0000,  0.0000)
   4 Li     4.851111    4.851111   10.000000    ( 0.0000,  0.0000,  0.0000)
   5 Li     8.085185    4.851111   10.000000    ( 0.0000,  0.0000,  0.0000)
   6 Li     1.617037    8.085185   10.000000    ( 0.0000,  0.0000,  0.0000)
   7 Li     4.851111    8.085185   10.000000    ( 0.0000,  0.0000,  0.0000)
   8 Li     8.085185    8.085185   10.000000    ( 0.0000,  0.0000,  0.0000)
   9 Li     0.000000    0.000000   11.617037    ( 0.0000,  0.0000,  0.0000)
  10 Li     3.234074    0.000000   11.617037    ( 0.0000,  0.0000,  0.0000)
  11 Li     6.468148    0.000000   11.617037    ( 0.0000,  0.0000,  0.0000)
  12 Li     0.000000    3.234074   11.617037    ( 0.0000,  0.0000,  0.0000)
  13 Li     3.234074    3.234074   11.617037    ( 0.0000,  0.0000,  0.0000)
  14 Li     6.468148    3.234074   11.617037    ( 0.0000,  0.0000,  0.0000)
  15 Li     0.000000    6.468148   11.617037    ( 0.0000,  0.0000,  0.0000)
  16 Li     3.234074    6.468148   11.617037    ( 0.0000,  0.0000,  0.0000)
  17 Li     6.468148    6.468148   11.617037    ( 0.0000,  0.0000,  0.0000)
  18 Li     1.616925    1.617038   13.470393    ( 0.0000,  0.0000,  0.0000)
  19 Li     4.851252    1.617038   13.470563    ( 0.0000,  0.0000,  0.0000)
  20 Li     8.085163    1.617038   13.469599    ( 0.0000,  0.0000,  0.0000)
  21 Li     1.617005    4.851065   13.470318    ( 0.0000,  0.0000,  0.0000)
  22 Li     4.851127    4.851117   13.470266    ( 0.0000,  0.0000,  0.0000)
  23 Li     8.085200    4.851075   13.470342    ( 0.0000,  0.0000,  0.0000)
  24 Li     1.617004    8.085230   13.470316    ( 0.0000,  0.0000,  0.0000)
  25 Li     4.851127    8.085178   13.470265    ( 0.0000,  0.0000,  0.0000)
  26 Li     8.085201    8.085220   13.470340    ( 0.0000,  0.0000,  0.0000)
  27 Li     0.000313   -0.000426   15.445307    ( 0.0000,  0.0000,  0.0000)
  28 Li     3.234188    0.000209   15.445731    ( 0.0000,  0.0000,  0.0000)
  29 Li     6.467623   -0.000542   15.444745    ( 0.0000,  0.0000,  0.0000)
  30 Li     0.000313    3.234500   15.445307    ( 0.0000,  0.0000,  0.0000)
  31 Li     3.234191    3.233867   15.445730    ( 0.0000,  0.0000,  0.0000)
  32 Li     6.467620    3.234618   15.444744    ( 0.0000,  0.0000,  0.0000)
  33 Li    -0.000074    6.468148   15.445578    ( 0.0000,  0.0000,  0.0000)
  34 Li     3.234069    6.468146   15.445640    ( 0.0000,  0.0000,  0.0000)
  35 Li     6.468225    6.468146   15.445610    ( 0.0000,  0.0000,  0.0000)
  36 Cl     8.165155    1.617037   18.447717    ( 0.0000,  0.0000,  0.0000)
  37 H      7.005448    1.617037   18.445705    ( 0.0000,  0.0000,  0.0000)

Unit cell:
           periodic     x           y           z      points  spacing
  1. axis:    yes    9.702222    0.000000    0.000000    60     0.1617
  2. axis:    yes    0.000000    9.702222    0.000000    60     0.1617
  3. axis:    no     0.000000    0.000000   24.851111   156     0.1593

  Lengths:   9.702222   9.702222  24.851111
  Angles:   90.000000  90.000000  90.000000

Effective grid spacing dv^(1/3) = 0.1609

     iter     time        total  log10-change:
                         energy  eigst   dens
iter:   1 10:03:48  -235.276859  -0.55
iter:   2 10:06:16  -234.875431  -0.08  -1.09
iter:   3 10:08:34  -234.775134  -1.08  -1.34
iter:   4 10:10:56  -234.742532  -0.42  -1.65
Writing to output.gpw (mode='')

iter:   5 10:13:12  -234.733690  -0.85  -1.61
iter:   6 10:15:25  -234.705673  -0.96  -1.68
iter:   7 10:17:55  -234.704087  -1.51  -2.21
iter:   8 10:20:09  -234.705239c -1.59  -2.28
iter:   9 10:22:29  -234.705013c -2.13  -2.36
Writing to output.gpw (mode='')

iter:  10 10:24:50  -234.705121c -2.38  -2.60
iter:  11 10:27:10  -234.705298c -2.36  -2.65
iter:  12 10:29:28  -234.705603c -2.40  -2.77
iter:  13 10:31:48  -234.705764c -2.74  -2.85
iter:  14 10:34:01  -234.705875c -3.00  -2.89
Writing to output.gpw (mode='')

iter:  15 10:36:23  -234.705973c -3.17  -2.99
iter:  16 10:38:46  -234.706067c -3.08  -3.07
iter:  17 10:41:23  -234.706098c -3.49  -3.38
iter:  18 10:43:50  -234.706126c -3.65  -3.43
iter:  19 10:46:01  -234.706144c -3.79  -3.52
Writing to output.gpw (mode='')

iter:  20 10:48:18  -234.706166c -4.08  -3.66
iter:  21 10:50:33  -234.706177c -4.17  -3.74
iter:  22 10:52:59  -234.706186c -4.19  -3.76
iter:  23 10:55:23  -234.706196c -4.13  -3.78
iter:  24 10:57:39  -234.706205c -4.28  -3.89
Writing to output.gpw (mode='')

iter:  25 10:59:55  -234.706207c -4.53  -3.77
iter:  26 11:02:26  -234.706207c -4.55  -3.86
iter:  27 11:04:45  -234.706210c -4.90  -3.92
iter:  28 11:07:05  -234.706209c -5.03  -3.98
iter:  29 11:09:20  -234.706210c -4.90  -4.11c
Writing to output.gpw (mode='')

iter:  30 11:11:28  -234.706212c -5.27  -4.13c
iter:  31 11:13:43  -234.706212c -5.35  -4.26c
iter:  32 11:16:04  -234.706212c -5.26  -4.29c
iter:  33 11:18:18  -234.706213c -4.95  -4.31c
iter:  34 11:20:32  -234.706213c -5.63  -4.42c
Writing to output.gpw (mode='')

iter:  35 11:22:55  -234.706213c -5.79  -4.59c
iter:  36 11:25:16  -234.706213c -5.62  -4.66c
iter:  37 11:27:38  -234.706213c -5.55  -4.79c
iter:  38 11:29:56  -234.706213c -5.63  -4.83c
iter:  39 11:32:10  -234.706213c -5.89  -4.82c
Writing to output.gpw (mode='')

iter:  40 11:34:32  -234.706213c -6.04  -4.86c
iter:  41 11:36:47  -234.706213c -6.15  -4.97c
iter:  42 11:39:04  -234.706213c -6.03  -5.05c
iter:  43 11:41:24  -234.706213c -6.20  -5.15c
iter:  44 11:43:44  -234.706213c -6.33  -5.16c
Writing to output.gpw (mode='')

iter:  45 11:46:11  -234.706212c -6.33  -5.17c
iter:  46 11:48:24  -234.706213c -6.51  -5.25c
iter:  47 11:50:39  -234.706212c -6.50  -5.19c
iter:  48 11:52:57  -234.706212c -6.66  -5.23c
iter:  49 11:55:14  -234.706212c -6.67  -5.16c
Writing to output.gpw (mode='')

iter:  50 11:57:40  -234.706212c -6.56  -5.22c
iter:  51 12:00:02  -234.706212c -6.65  -5.25c
iter:  52 12:02:24  -234.706212c -6.71  -5.18c
iter:  53 12:04:42  -234.706212c -6.77  -5.20c
iter:  54 12:07:08  -234.706212c -7.01  -5.13c
Writing to output.gpw (mode='')

iter:  55 12:09:32  -234.706212c -7.01  -5.17c
iter:  56 12:11:51  -234.706212c -6.93  -5.18c
iter:  57 12:14:12  -234.706212c -7.14  -5.40c
iter:  58 12:16:31  -234.706212c -7.06  -5.37c
iter:  59 12:19:00  -234.706212c -7.28  -5.53c
Writing to output.gpw (mode='')

iter:  60 12:21:14  -234.706212c -7.05  -5.45c
iter:  61 12:23:31  -234.706212c -7.18  -5.77c
iter:  62 12:25:47  -234.706212c -7.25  -6.00c
iter:  63 12:28:02  -234.706212c -7.12  -6.08c
iter:  64 12:30:29  -234.706212c -7.24  -6.16c
Writing to output.gpw (mode='')

iter:  65 12:32:54  -234.706212c -7.41c -6.24c

Converged after 65 iterations.

Dipole moment: (-2.387841, -3.250697, 0.067261) |e|*Ang

Energy contributions relative to reference atoms: (reference = -19867.801087)

Kinetic:        +89.616943
Potential:      -76.956662
External:        +0.000000
XC:            -247.158644
Entropy (-ST):   -0.152065
Local:           -0.131816
--------------------------
Free energy:   -234.782244
Extrapolated:  -234.706212

Dipole-layer corrected work functions: 3.381930, 3.252631 eV

Showing only first 2 kpts
 Kpt  Band  Eigenvalues  Occupancy
  0    20     -3.57100    1.98757
  0    21     -3.48682    1.93484
  0    22     -3.15122    0.06970
  0    23     -3.06460    0.01269

  1    20     -3.33837    1.20787
  1    21     -3.31328    0.96002
  1    22     -3.27790    0.62532
  1    23     -3.26647    0.53157


Fermi level: -3.31728

No gap

Forces in eV/Ang:
  0 Li    0.00615    0.00000   -0.27113
  1 Li   -0.00467    0.00000   -0.27208
  2 Li   -0.00165    0.00000   -0.27235
  3 Li   -0.00256   -0.00037   -0.27212
  4 Li    0.00181   -0.00248   -0.27284
  5 Li    0.00081    0.00647   -0.27253
  6 Li   -0.00257    0.00037   -0.27212
  7 Li    0.00181    0.00248   -0.27284
  8 Li    0.00081   -0.00647   -0.27253
  9 Li   -0.00033   -0.00193    0.26436
 10 Li    0.00200    0.00360    0.25874
 11 Li   -0.00147   -0.00227    0.26201
 12 Li   -0.00033    0.00193    0.26436
 13 Li    0.00200   -0.00359    0.25874
 14 Li   -0.00147    0.00227    0.26201
 15 Li    0.00085   -0.00000    0.25293
 16 Li   -0.00264   -0.00000    0.26700
 17 Li    0.00174   -0.00000    0.25788
 18 Li   -0.00723   -0.00000    0.04218
 19 Li    0.00901   -0.00000    0.05327
 20 Li   -0.00126   -0.00000   -0.00923
 21 Li   -0.00206   -0.00301    0.03776
 22 Li    0.00081    0.00069    0.03394
 23 Li    0.00117   -0.00211    0.03887
 24 Li   -0.00206    0.00301    0.03776
 25 Li    0.00081   -0.00069    0.03395
 26 Li    0.00117    0.00211    0.03887
 27 Li    0.01969   -0.02697   -0.03876
 28 Li    0.00786    0.01366   -0.01268
 29 Li   -0.03428   -0.03416   -0.07558
 30 Li    0.01969    0.02697   -0.03876
 31 Li    0.00786   -0.01366   -0.01268
 32 Li   -0.03428    0.03416   -0.07558
 33 Li   -0.00471   -0.00000   -0.02330
 34 Li   -0.00055    0.00000   -0.01915
 35 Li    0.00517    0.00000   -0.02111
 36 Cl    5.46479   -0.00000    0.12138
 37 H    -5.44814    0.00000   -0.01738

System changes: positions 

Initializing position-dependent things.

Density initialized from wave functions
       .-----------------------.  
      /|                       |  
     / |                       |  
    /  |                       |  
   /   |                       |  
  /    |                       |  
 *     |                       |  
 |     |                       |  
 |     |                       |  
 |     |                       |  
 |     |                       |  
 |     |                       |  
 |     Li              Li      |  
 |     |           H  Cl       |  
 |     |     Li      Li      Li|  
 |     |  Li      Li      Li   |  
 | Li  |   Li      Li          |  
 |     |Li      Li      Li     |  
 |     | Li                    |  
 |   LLi     LLi     LLi       |  
 |     |  Li      Li      Li   |  
 | Li  |   Li      Li          |  
 |     |Li      Li      Li     |  
 Li    | Li      Li            |  
 |    Li      Li      Li       |  
 |     |                       |  
 |     |                       |  
 |     |                       |  
 |     |                       |  
 |     |                       |  
 |     |                       |  
 |     .-----------------------.  
 |    /                       /   
 |   /                       /    
 |  /                       /     
 | /                       /      
 |/                       /       
 *-----------------------*        

Positions:
   0 Li     1.617037    1.617037   10.000000    ( 0.0000,  0.0000,  0.0000)
   1 Li     4.851111    1.617037   10.000000    ( 0.0000,  0.0000,  0.0000)
   2 Li     8.085185    1.617037   10.000000    ( 0.0000,  0.0000,  0.0000)
   3 Li     1.617037    4.851111   10.000000    ( 0.0000,  0.0000,  0.0000)
   4 Li     4.851111    4.851111   10.000000    ( 0.0000,  0.0000,  0.0000)
   5 Li     8.085185    4.851111   10.000000    ( 0.0000,  0.0000,  0.0000)
   6 Li     1.617037    8.085185   10.000000    ( 0.0000,  0.0000,  0.0000)
   7 Li     4.851111    8.085185   10.000000    ( 0.0000,  0.0000,  0.0000)
   8 Li     8.085185    8.085185   10.000000    ( 0.0000,  0.0000,  0.0000)
   9 Li     0.000000    0.000000   11.617037    ( 0.0000,  0.0000,  0.0000)
  10 Li     3.234074    0.000000   11.617037    ( 0.0000,  0.0000,  0.0000)
  11 Li     6.468148    0.000000   11.617037    ( 0.0000,  0.0000,  0.0000)
  12 Li     0.000000    3.234074   11.617037    ( 0.0000,  0.0000,  0.0000)
  13 Li     3.234074    3.234074   11.617037    ( 0.0000,  0.0000,  0.0000)
  14 Li     6.468148    3.234074   11.617037    ( 0.0000,  0.0000,  0.0000)
  15 Li     0.000000    6.468148   11.617037    ( 0.0000,  0.0000,  0.0000)
  16 Li     3.234074    6.468148   11.617037    ( 0.0000,  0.0000,  0.0000)
  17 Li     6.468148    6.468148   11.617037    ( 0.0000,  0.0000,  0.0000)
  18 Li     1.616733    1.617038   13.471505    ( 0.0000,  0.0000,  0.0000)
  19 Li     4.851494    1.617038   13.471984    ( 0.0000,  0.0000,  0.0000)
  20 Li     8.085128    1.617038   13.469336    ( 0.0000,  0.0000,  0.0000)
  21 Li     1.616949    4.850983   13.471322    ( 0.0000,  0.0000,  0.0000)
  22 Li     4.851148    4.851138   13.471164    ( 0.0000,  0.0000,  0.0000)
  23 Li     8.085233    4.851020   13.471371    ( 0.0000,  0.0000,  0.0000)
  24 Li     1.616949    8.085312   13.471320    ( 0.0000,  0.0000,  0.0000)
  25 Li     4.851148    8.085157   13.471163    ( 0.0000,  0.0000,  0.0000)
  26 Li     8.085233    8.085275   13.471370    ( 0.0000,  0.0000,  0.0000)
  27 Li     0.000824   -0.001134   15.444317    ( 0.0000,  0.0000,  0.0000)
  28 Li     3.234408    0.000577   15.445403    ( 0.0000,  0.0000,  0.0000)
  29 Li     6.466700   -0.001445   15.442740    ( 0.0000,  0.0000,  0.0000)
  30 Li     0.000824    3.235208   15.444317    ( 0.0000,  0.0000,  0.0000)
  31 Li     3.234410    3.233499   15.445402    ( 0.0000,  0.0000,  0.0000)
  32 Li     6.466698    3.235522   15.442739    ( 0.0000,  0.0000,  0.0000)
  33 Li    -0.000198    6.468148   15.444957    ( 0.0000,  0.0000,  0.0000)
  34 Li     3.234054    6.468146   15.445132    ( 0.0000,  0.0000,  0.0000)
  35 Li     6.468363    6.468146   15.445049    ( 0.0000,  0.0000,  0.0000)
  36 Cl     8.202437    1.617037   18.450898    ( 0.0000,  0.0000,  0.0000)
  37 H      6.968573    1.617037   18.445113    ( 0.0000,  0.0000,  0.0000)

Unit cell:
           periodic     x           y           z      points  spacing
  1. axis:    yes    9.702222    0.000000    0.000000    60     0.1617
  2. axis:    yes    0.000000    9.702222    0.000000    60     0.1617
  3. axis:    no     0.000000    0.000000   24.851111   156     0.1593

  Lengths:   9.702222   9.702222  24.851111
  Angles:   90.000000  90.000000  90.000000

Effective grid spacing dv^(1/3) = 0.1609

     iter     time        total  log10-change:
                         energy  eigst   dens
iter:   1 12:35:43  -235.406427  -0.43
iter:   2 12:37:56  -235.103254  -0.20  -1.16
iter:   3 12:40:13  -235.029922  -1.24  -1.40
iter:   4 12:42:36  -234.997768  -0.53  -1.69
Writing to output.gpw (mode='')

iter:   5 12:45:03  -234.992121  -0.98  -1.66
iter:   6 12:47:23  -234.975684  -0.96  -1.75
iter:   7 12:49:53  -234.969811  -1.47  -2.12
iter:   8 12:52:17  -234.971295c -1.57  -2.31
iter:   9 12:54:42  -234.970280c -2.41  -2.33
Writing to output.gpw (mode='')

iter:  10 12:57:09  -234.970436c -2.38  -2.63
iter:  11 12:59:31  -234.970504c -2.60  -2.71
iter:  12 13:01:58  -234.970614c -2.74  -2.74
iter:  13 13:04:16  -234.970689c -2.92  -2.79
iter:  14 13:06:36  -234.970771c -3.14  -2.88
Writing to output.gpw (mode='')

iter:  15 13:08:54  -234.970879c -3.10  -2.95
iter:  16 13:11:15  -234.970902c -3.37  -3.20
iter:  17 13:13:38  -234.970925c -3.43  -3.32
iter:  18 13:15:52  -234.970947c -3.86  -3.37
iter:  19 13:18:08  -234.970964c -3.78  -3.38
Writing to output.gpw (mode='')

iter:  20 13:20:29  -234.970981c -3.88  -3.38
iter:  21 13:22:46  -234.970990c -4.04  -3.41
iter:  22 13:25:01  -234.970997c -4.21  -3.45
iter:  23 13:27:18  -234.971003c -4.44  -3.76
iter:  24 13:29:28  -234.971004c -4.47  -3.80
Writing to output.gpw (mode='')

iter:  25 13:31:46  -234.971010c -4.54  -3.89
iter:  26 13:34:05  -234.971011c -4.83  -4.07c
iter:  27 13:36:22  -234.971009c -4.70  -4.12c
iter:  28 13:38:35  -234.971012c -5.08  -4.17c
iter:  29 13:40:53  -234.971013c -5.06  -4.31c
Writing to output.gpw (mode='')

iter:  30 13:43:07  -234.971012c -5.29  -4.38c
iter:  31 13:45:18  -234.971013c -5.16  -4.40c
iter:  32 13:47:28  -234.971013c -5.35  -4.48c
iter:  33 13:49:47  -234.971013c -5.40  -4.49c
iter:  34 13:51:58  -234.971012c -5.82  -4.53c
Writing to output.gpw (mode='')

iter:  35 13:54:11  -234.971013c -6.08  -4.54c
iter:  36 13:56:20  -234.971013c -6.12  -4.67c
iter:  37 13:58:38  -234.971013c -6.07  -4.76c
iter:  38 14:00:50  -234.971013c -6.21  -5.12c
iter:  39 14:03:06  -234.971013c -6.28  -5.13c
Writing to output.gpw (mode='')

iter:  40 14:05:27  -234.971013c -6.26  -5.15c
iter:  41 14:07:39  -234.971013c -6.17  -5.29c
iter:  42 14:09:50  -234.971013c -6.31  -5.31c
iter:  43 14:12:07  -234.971012c -6.66  -5.13c
iter:  44 14:14:29  -234.971012c -6.83  -5.44c
Writing to output.gpw (mode='')

iter:  45 14:16:44  -234.971012c -6.81  -5.44c
iter:  46 14:18:54  -234.971012c -6.76  -5.54c
iter:  47 14:21:08  -234.971012c -6.73  -5.71c
iter:  48 14:23:31  -234.971012c -6.86  -5.75c
iter:  49 14:25:56  -234.971012c -6.88  -5.77c
Writing to output.gpw (mode='')

iter:  50 14:28:15  -234.971012c -7.00  -5.82c
iter:  51 14:30:30  -234.971012c -7.18  -5.84c
iter:  52 14:32:43  -234.971012c -7.20  -5.76c
iter:  53 14:34:59  -234.971012c -7.23  -5.65c
iter:  54 14:37:15  -234.971012c -7.34  -5.62c
Writing to output.gpw (mode='')

iter:  55 14:39:41  -234.971012c -7.44c -5.61c

Converged after 55 iterations.

Dipole moment: (-2.362396, -3.217524, 0.054636) |e|*Ang

Energy contributions relative to reference atoms: (reference = -19867.801087)

Kinetic:        +85.215412
Potential:      -73.649034
External:        +0.000000
XC:            -246.335176
Entropy (-ST):   -0.151876
Local:           -0.126276
--------------------------
Free energy:   -235.046950
Extrapolated:  -234.971012

Dipole-layer corrected work functions: 3.380939, 3.275909 eV

Showing only first 2 kpts
 Kpt  Band  Eigenvalues  Occupancy
  0    20     -3.58222    1.98759
  0    21     -3.49829    1.93524
  0    22     -3.16107    0.06798
  0    23     -3.07581    0.01271

  1    20     -3.34976    1.21020
  1    21     -3.32402    0.95596
  1    22     -3.28907    0.62561
  1    23     -3.27740    0.52988


Fermi level: -3.32842

No gap

Forces in eV/Ang:
  0 Li    0.00632    0.00000   -0.27099
  1 Li   -0.00468    0.00000   -0.27205
  2 Li   -0.00184    0.00000   -0.27247
  3 Li   -0.00261    0.00005   -0.27213
  4 Li    0.00164   -0.00242   -0.27282
  5 Li    0.00100    0.00675   -0.27253
  6 Li   -0.00261   -0.00005   -0.27213
  7 Li    0.00164    0.00242   -0.27282
  8 Li    0.00100   -0.00675   -0.27253
  9 Li   -0.00027   -0.00225    0.26575
 10 Li    0.00231    0.00384    0.25992
 11 Li   -0.00183   -0.00255    0.26348
 12 Li   -0.00027    0.00225    0.26575
 13 Li    0.00230   -0.00384    0.25991
 14 Li   -0.00183    0.00255    0.26348
 15 Li    0.00128   -0.00000    0.25308
 16 Li   -0.00297   -0.00000    0.26752
 17 Li    0.00168   -0.00000    0.25869
 18 Li   -0.00680   -0.00000    0.03886
 19 Li    0.00847   -0.00000    0.05019
 20 Li   -0.00110   -0.00000   -0.01117
 21 Li   -0.00173   -0.00299    0.03589
 22 Li    0.00029    0.00137    0.03125
 23 Li    0.00134   -0.00156    0.03596
 24 Li   -0.00173    0.00300    0.03589
 25 Li    0.00029   -0.00136    0.03126
 26 Li    0.00134    0.00156    0.03597
 27 Li    0.01759   -0.02456   -0.03195
 28 Li    0.00877    0.01353   -0.01036
 29 Li   -0.03400   -0.03091   -0.06907
 30 Li    0.01759    0.02456   -0.03195
 31 Li    0.00877   -0.01353   -0.01036
 32 Li   -0.03400    0.03091   -0.06907
 33 Li   -0.00438   -0.00000   -0.02239
 34 Li   -0.00076    0.00000   -0.01822
 35 Li    0.00503    0.00000   -0.02013
 36 Cl    1.88278   -0.00000    0.11444
 37 H    -1.88691    0.00000   -0.02442

System changes: positions 

Initializing position-dependent things.

Density initialized from wave functions
       .-----------------------.  
      /|                       |  
     / |                       |  
    /  |                       |  
   /   |                       |  
  /    |                       |  
 *     |                       |  
 |     |                       |  
 |     |                       |  
 |     |                       |  
 |     |                       |  
 |     |                       |  
 |     Li              Li      |  
 |     |           H  Cl       |  
 |     |     Li      Li      Li|  
 |     |  Li      Li      Li   |  
 | Li  |   Li      Li          |  
 |     |Li      Li      Li     |  
 |     | Li                    |  
 |   LLi     LLi     LLi       |  
 |     |  Li      Li      Li   |  
 | Li  |   Li      Li          |  
 |     |Li      Li      Li     |  
 Li    | Li      Li            |  
 |    Li      Li      Li       |  
 |     |                       |  
 |     |                       |  
 |     |                       |  
 |     |                       |  
 |     |                       |  
 |     |                       |  
 |     .-----------------------.  
 |    /                       /   
 |   /                       /    
 |  /                       /     
 | /                       /      
 |/                       /       
 *-----------------------*        

Positions:
   0 Li     1.617037    1.617037   10.000000    ( 0.0000,  0.0000,  0.0000)
   1 Li     4.851111    1.617037   10.000000    ( 0.0000,  0.0000,  0.0000)
   2 Li     8.085185    1.617037   10.000000    ( 0.0000,  0.0000,  0.0000)
   3 Li     1.617037    4.851111   10.000000    ( 0.0000,  0.0000,  0.0000)
   4 Li     4.851111    4.851111   10.000000    ( 0.0000,  0.0000,  0.0000)
   5 Li     8.085185    4.851111   10.000000    ( 0.0000,  0.0000,  0.0000)
   6 Li     1.617037    8.085185   10.000000    ( 0.0000,  0.0000,  0.0000)
   7 Li     4.851111    8.085185   10.000000    ( 0.0000,  0.0000,  0.0000)
   8 Li     8.085185    8.085185   10.000000    ( 0.0000,  0.0000,  0.0000)
   9 Li     0.000000    0.000000   11.617037    ( 0.0000,  0.0000,  0.0000)
  10 Li     3.234074    0.000000   11.617037    ( 0.0000,  0.0000,  0.0000)
  11 Li     6.468148    0.000000   11.617037    ( 0.0000,  0.0000,  0.0000)
  12 Li     0.000000    3.234074   11.617037    ( 0.0000,  0.0000,  0.0000)
  13 Li     3.234074    3.234074   11.617037    ( 0.0000,  0.0000,  0.0000)
  14 Li     6.468148    3.234074   11.617037    ( 0.0000,  0.0000,  0.0000)
  15 Li     0.000000    6.468148   11.617037    ( 0.0000,  0.0000,  0.0000)
  16 Li     3.234074    6.468148   11.617037    ( 0.0000,  0.0000,  0.0000)
  17 Li     6.468148    6.468148   11.617037    ( 0.0000,  0.0000,  0.0000)
  18 Li     1.616537    1.617038   13.472628    ( 0.0000,  0.0000,  0.0000)
  19 Li     4.851741    1.617038   13.473436    ( 0.0000,  0.0000,  0.0000)
  20 Li     8.085095    1.617038   13.469021    ( 0.0000,  0.0000,  0.0000)
  21 Li     1.616898    4.850897   13.472356    ( 0.0000,  0.0000,  0.0000)
  22 Li     4.851159    4.851174   13.472069    ( 0.0000,  0.0000,  0.0000)
  23 Li     8.085270    4.850973   13.472412    ( 0.0000,  0.0000,  0.0000)
  24 Li     1.616897    8.085398   13.472355    ( 0.0000,  0.0000,  0.0000)
  25 Li     4.851159    8.085121   13.472068    ( 0.0000,  0.0000,  0.0000)
  26 Li     8.085270    8.085322   13.472411    ( 0.0000,  0.0000,  0.0000)
  27 Li     0.001331   -0.001844   15.443384    ( 0.0000,  0.0000,  0.0000)
  28 Li     3.234657    0.000965   15.445098    ( 0.0000,  0.0000,  0.0000)
  29 Li     6.465724   -0.002344   15.440733    ( 0.0000,  0.0000,  0.0000)
  30 Li     0.001331    3.235918   15.443384    ( 0.0000,  0.0000,  0.0000)
  31 Li     3.234660    3.233111   15.445097    ( 0.0000,  0.0000,  0.0000)
  32 Li     6.465722    3.236421   15.440733    ( 0.0000,  0.0000,  0.0000)
  33 Li    -0.000325    6.468148   15.444313    ( 0.0000,  0.0000,  0.0000)
  34 Li     3.234033    6.468146   15.444608    ( 0.0000,  0.0000,  0.0000)
  35 Li     6.468507    6.468146   15.444470    ( 0.0000,  0.0000,  0.0000)
  36 Cl     8.222170    1.617037   18.454177    ( 0.0000,  0.0000,  0.0000)
  37 H      6.948841    1.617037   18.444395    ( 0.0000,  0.0000,  0.0000)

Unit cell:
           periodic     x           y           z      points  spacing
  1. axis:    yes    9.702222    0.000000    0.000000    60     0.1617
  2. axis:    yes    0.000000    9.702222    0.000000    60     0.1617
  3. axis:    no     0.000000    0.000000   24.851111   156     0.1593

  Lengths:   9.702222   9.702222  24.851111
  Angles:   90.000000  90.000000  90.000000

Effective grid spacing dv^(1/3) = 0.1609

     iter     time        total  log10-change:
                         energy  eigst   dens
iter:   1 14:42:26  -235.116997  -0.87
iter:   2 14:44:37  -235.050879  -0.95  -1.50
iter:   3 14:46:53  -235.036009  -2.00  -1.72
iter:   4 14:49:09  -235.025961  -1.07  -1.97
Writing to output.gpw (mode='')

iter:   5 14:51:29  -235.023647c -1.56  -1.93
iter:   6 14:53:48  -235.024326c -1.32  -2.11
iter:   7 14:55:55  -235.018737c -1.80  -2.21
iter:   8 14:58:19  -235.019192c -2.16  -2.57
iter:   9 15:00:46  -235.018676c -3.00  -2.55
Writing to output.gpw (mode='')

iter:  10 15:03:09  -235.018701c -2.94  -2.90
iter:  11 15:05:26  -235.018653c -3.31  -2.98
iter:  12 15:07:43  -235.018669c -3.58  -3.03
iter:  13 15:09:59  -235.018669c -3.65  -3.08
iter:  14 15:12:21  -235.018686c -3.74  -3.17
Writing to output.gpw (mode='')

iter:  15 15:14:43  -235.018701c -3.75  -3.25
iter:  16 15:17:08  -235.018705c -4.06  -3.51
iter:  17 15:19:24  -235.018708c -4.29  -3.63
iter:  18 15:21:40  -235.018711c -4.37  -3.68
iter:  19 15:24:04  -235.018719c -4.47  -3.78
Writing to output.gpw (mode='')

iter:  20 15:26:28  -235.018723c -4.66  -3.83
iter:  21 15:28:42  -235.018729c -4.53  -3.80
iter:  22 15:30:49  -235.018732c -4.83  -3.80
iter:  23 15:33:02  -235.018735c -4.76  -3.75
iter:  24 15:35:16  -235.018735c -4.92  -3.72
Writing to output.gpw (mode='')

iter:  25 15:37:37  -235.018729c -5.26  -3.70
iter:  26 15:39:58  -235.018730c -5.31  -3.79
iter:  27 15:42:18  -235.018729c -5.19  -3.80
iter:  28 15:44:40  -235.018731c -5.63  -3.79
iter:  29 15:46:54  -235.018729c -5.69  -3.81
Writing to output.gpw (mode='')

iter:  30 15:49:23  -235.018727c -6.01  -3.84
iter:  31 15:51:45  -235.018725c -5.79  -3.82
iter:  32 15:54:07  -235.018724c -5.86  -3.84
iter:  33 15:56:30  -235.018722c -6.14  -3.90
iter:  34 15:58:51  -235.018723c -6.10  -3.91
Writing to output.gpw (mode='')

iter:  35 16:01:08  -235.018723c -6.00  -4.00c
iter:  36 16:03:32  -235.018724c -6.19  -4.16c
iter:  37 16:05:55  -235.018723c -6.46  -4.18c
iter:  38 16:08:14  -235.018722c -5.85  -4.24c
iter:  39 16:10:31  -235.018722c -6.53  -4.46c
Writing to output.gpw (mode='')

iter:  40 16:12:39  -235.018722c -6.78  -4.49c
iter:  41 16:14:52  -235.018722c -6.84  -4.69c
iter:  42 16:17:09  -235.018722c -6.94  -4.84c
iter:  43 16:19:27  -235.018722c -7.14  -4.86c
iter:  44 16:21:45  -235.018723c -7.16  -4.88c
Writing to output.gpw (mode='')

iter:  45 16:24:02  -235.018723c -7.36  -4.93c
iter:  46 16:26:22  -235.018723c -7.57c -5.00c

Converged after 46 iterations.

Dipole moment: (-2.354814, -3.186492, 0.044342) |e|*Ang

Energy contributions relative to reference atoms: (reference = -19867.801087)

Kinetic:        +83.322452
Potential:      -72.190737
External:        +0.000000
XC:            -245.949933
Entropy (-ST):   -0.151750
Local:           -0.124630
--------------------------
Free energy:   -235.094598
Extrapolated:  -235.018723

Dipole-layer corrected work functions: 3.380321, 3.295081 eV

Showing only first 2 kpts
 Kpt  Band  Eigenvalues  Occupancy
  0    20     -3.59150    1.98759
  0    21     -3.50779    1.93552
  0    22     -3.16940    0.06675
  0    23     -3.08508    0.01271

  1    20     -3.35924    1.21214
  1    21     -3.33292    0.95223
  1    22     -3.29845    0.62650
  1    23     -3.28656    0.52895


Fermi level: -3.33770

No gap
Writing to output.gpw (mode='')


Forces in eV/Ang:
  0 Li    0.00644    0.00000   -0.27088
  1 Li   -0.00465    0.00000   -0.27211
  2 Li   -0.00199    0.00000   -0.27261
  3 Li   -0.00264    0.00035   -0.27216
  4 Li    0.00151   -0.00235   -0.27283
  5 Li    0.00115    0.00694   -0.27256
  6 Li   -0.00264   -0.00035   -0.27216
  7 Li    0.00151    0.00235   -0.27283
  8 Li    0.00115   -0.00694   -0.27256
  9 Li   -0.00014   -0.00254    0.26685
 10 Li    0.00252    0.00406    0.26107
 11 Li   -0.00217   -0.00282    0.26477
 12 Li   -0.00014    0.00254    0.26685
 13 Li    0.00252   -0.00406    0.26107
 14 Li   -0.00217    0.00282    0.26477
 15 Li    0.00164   -0.00000    0.25344
 16 Li   -0.00327   -0.00000    0.26809
 17 Li    0.00164   -0.00000    0.25949
 18 Li   -0.00638   -0.00000    0.03582
 19 Li    0.00781   -0.00000    0.04679
 20 Li   -0.00088   -0.00000   -0.01230
 21 Li   -0.00136   -0.00290    0.03388
 22 Li   -0.00022    0.00193    0.02862
 23 Li    0.00145   -0.00110    0.03311
 24 Li   -0.00136    0.00290    0.03388
 25 Li   -0.00022   -0.00193    0.02863
 26 Li    0.00145    0.00110    0.03312
 27 Li    0.01591   -0.02253   -0.02678
 28 Li    0.00923    0.01321   -0.00840
 29 Li   -0.03320   -0.02798   -0.06309
 30 Li    0.01591    0.02253   -0.02678
 31 Li    0.00923   -0.01321   -0.00840
 32 Li   -0.03320    0.02798   -0.06309
 33 Li   -0.00411   -0.00000   -0.02136
 34 Li   -0.00089    0.00000   -0.01720
 35 Li    0.00489    0.00000   -0.01908
 36 Cl    0.52824   -0.00000    0.08496
 37 H    -0.51222    0.00000   -0.02892

System changes: positions 

Initializing position-dependent things.

Density initialized from wave functions
       .-----------------------.  
      /|                       |  
     / |                       |  
    /  |                       |  
   /   |                       |  
  /    |                       |  
 *     |                       |  
 |     |                       |  
 |     |                       |  
 |     |                       |  
 |     |                       |  
 |     |                       |  
 |     Li              Li      |  
 |     |           H  Cl       |  
 |     |     Li      Li      Li|  
 |     |  Li      Li      Li   |  
 | Li  |   Li      Li          |  
 |     |Li      Li      Li     |  
 |     | Li                    |  
 |   LLi     LLi     LLi       |  
 |     |  Li      Li      Li   |  
 | Li  |   Li      Li          |  
 |     |Li      Li      Li     |  
 Li    | Li      Li            |  
 |    Li      Li      Li       |  
 |     |                       |  
 |     |                       |  
 |     |                       |  
 |     |                       |  
 |     |                       |  
 |     |                       |  
 |     .-----------------------.  
 |    /                       /   
 |   /                       /    
 |  /                       /     
 | /                       /      
 |/                       /       
 *-----------------------*        

Positions:
   0 Li     1.617037    1.617037   10.000000    ( 0.0000,  0.0000,  0.0000)
   1 Li     4.851111    1.617037   10.000000    ( 0.0000,  0.0000,  0.0000)
   2 Li     8.085185    1.617037   10.000000    ( 0.0000,  0.0000,  0.0000)
   3 Li     1.617037    4.851111   10.000000    ( 0.0000,  0.0000,  0.0000)
   4 Li     4.851111    4.851111   10.000000    ( 0.0000,  0.0000,  0.0000)
   5 Li     8.085185    4.851111   10.000000    ( 0.0000,  0.0000,  0.0000)
   6 Li     1.617037    8.085185   10.000000    ( 0.0000,  0.0000,  0.0000)
   7 Li     4.851111    8.085185   10.000000    ( 0.0000,  0.0000,  0.0000)
   8 Li     8.085185    8.085185   10.000000    ( 0.0000,  0.0000,  0.0000)
   9 Li     0.000000    0.000000   11.617037    ( 0.0000,  0.0000,  0.0000)
  10 Li     3.234074    0.000000   11.617037    ( 0.0000,  0.0000,  0.0000)
  11 Li     6.468148    0.000000   11.617037    ( 0.0000,  0.0000,  0.0000)
  12 Li     0.000000    3.234074   11.617037    ( 0.0000,  0.0000,  0.0000)
  13 Li     3.234074    3.234074   11.617037    ( 0.0000,  0.0000,  0.0000)
  14 Li     6.468148    3.234074   11.617037    ( 0.0000,  0.0000,  0.0000)
  15 Li     0.000000    6.468148   11.617037    ( 0.0000,  0.0000,  0.0000)
  16 Li     3.234074    6.468148   11.617037    ( 0.0000,  0.0000,  0.0000)
  17 Li     6.468148    6.468148   11.617037    ( 0.0000,  0.0000,  0.0000)
  18 Li     1.616369    1.617038   13.473577    ( 0.0000,  0.0000,  0.0000)
  19 Li     4.851948    1.617038   13.474672    ( 0.0000,  0.0000,  0.0000)
  20 Li     8.085070    1.617038   13.468712    ( 0.0000,  0.0000,  0.0000)
  21 Li     1.616859    4.850821   13.473247    ( 0.0000,  0.0000,  0.0000)
  22 Li     4.851158    4.851219   13.472829    ( 0.0000,  0.0000,  0.0000)
  23 Li     8.085307    4.850941   13.473290    ( 0.0000,  0.0000,  0.0000)
  24 Li     1.616859    8.085474   13.473246    ( 0.0000,  0.0000,  0.0000)
  25 Li     4.851158    8.085075   13.472828    ( 0.0000,  0.0000,  0.0000)
  26 Li     8.085307    8.085354   13.473289    ( 0.0000,  0.0000,  0.0000)
  27 Li     0.001754   -0.002442   15.442654    ( 0.0000,  0.0000,  0.0000)
  28 Li     3.234892    0.001309   15.444865    ( 0.0000,  0.0000,  0.0000)
  29 Li     6.464860   -0.003091   15.439055    ( 0.0000,  0.0000,  0.0000)
  30 Li     0.001754    3.236516   15.442653    ( 0.0000,  0.0000,  0.0000)
  31 Li     3.234895    3.232767   15.444865    ( 0.0000,  0.0000,  0.0000)
  32 Li     6.464857    3.237167   15.439054    ( 0.0000,  0.0000,  0.0000)
  33 Li    -0.000433    6.468148   15.443754    ( 0.0000,  0.0000,  0.0000)
  34 Li     3.234011    6.468146   15.444156    ( 0.0000,  0.0000,  0.0000)
  35 Li     6.468634    6.468146   15.443969    ( 0.0000,  0.0000,  0.0000)
  36 Cl     8.230233    1.617037   18.456548    ( 0.0000,  0.0000,  0.0000)
  37 H      6.941122    1.617037   18.443666    ( 0.0000,  0.0000,  0.0000)

Unit cell:
           periodic     x           y           z      points  spacing
  1. axis:    yes    9.702222    0.000000    0.000000    60     0.1617
  2. axis:    yes    0.000000    9.702222    0.000000    60     0.1617
  3. axis:    no     0.000000    0.000000   24.851111   156     0.1593

  Lengths:   9.702222   9.702222  24.851111
  Angles:   90.000000  90.000000  90.000000

Effective grid spacing dv^(1/3) = 0.1609

     iter     time        total  log10-change:
                         energy  eigst   dens
iter:   1 16:29:15  -235.034944  -1.65
iter:   2 16:31:36  -235.028903  -2.22  -2.03
iter:   3 16:33:48  -235.027370c -3.22  -2.21
iter:   4 16:36:05  -235.026067c -1.78  -2.40
Writing to output.gpw (mode='')

iter:   5 16:38:30  -235.024632c -2.30  -2.28
iter:   6 16:40:48  -235.025312c -1.94  -2.69
iter:   7 16:43:16  -235.024152c -2.87  -2.62
iter:   8 16:45:32  -235.024202c -3.24  -3.04
iter:   9 16:47:49  -235.024167c -3.95  -3.05
Writing to output.gpw (mode='')

iter:  10 16:50:16  -235.024170c -3.90  -3.37
iter:  11 16:52:42  -235.024196c -3.70  -3.41
iter:  12 16:55:02  -235.024169c -4.11  -3.44
iter:  13 16:57:27  -235.024178c -4.64  -3.47
iter:  14 16:59:43  -235.024178c -4.48  -3.41
Writing to output.gpw (mode='')

iter:  15 17:01:57  -235.024166c -4.39  -3.48
iter:  16 17:04:18  -235.024170c -4.53  -3.78
iter:  17 17:06:43  -235.024166c -5.39  -3.78
iter:  18 17:08:58  -235.024166c -5.38  -3.88
iter:  19 17:11:11  -235.024166c -5.21  -4.01c
Writing to output.gpw (mode='')

iter:  20 17:13:31  -235.024166c -5.56  -4.12c
iter:  21 17:15:56  -235.024164c -5.74  -4.15c
iter:  22 17:18:11  -235.024164c -5.87  -4.24c
iter:  23 17:20:32  -235.024164c -6.28  -4.29c
iter:  24 17:22:52  -235.024164c -6.35  -4.33c
Writing to output.gpw (mode='')

iter:  25 17:25:09  -235.024164c -6.19  -4.42c
iter:  26 17:27:35  -235.024165c -6.43  -4.41c
iter:  27 17:29:56  -235.024165c -6.31  -4.61c
iter:  28 17:32:11  -235.024164c -6.95  -4.71c
iter:  29 17:34:29  -235.024164c -7.05  -4.77c
Writing to output.gpw (mode='')

iter:  30 17:36:47  -235.024164c -7.25  -5.02c
iter:  31 17:39:02  -235.024164c -7.14  -5.20c
iter:  32 17:41:19  -235.024164c -7.50c -5.28c

Converged after 32 iterations.

Dipole moment: (-2.357488, -3.165203, 0.038954) |e|*Ang

Energy contributions relative to reference atoms: (reference = -19867.801087)

Kinetic:        +82.647135
Potential:      -71.663200
External:        +0.000000
XC:            -245.808465
Entropy (-ST):   -0.151688
Local:           -0.123790
--------------------------
Free energy:   -235.100008
Extrapolated:  -235.024164

Dipole-layer corrected work functions: 3.380058, 3.305174 eV

Showing only first 2 kpts
 Kpt  Band  Eigenvalues  Occupancy
  0    20     -3.59635    1.98757
  0    21     -3.51283    1.93567
  0    22     -3.17381    0.06610
  0    23     -3.08993    0.01269

  1    20     -3.36422    1.21271
  1    21     -3.33758    0.94971
  1    22     -3.30353    0.62792
  1    23     -3.29148    0.52899


Fermi level: -3.34262

No gap
Writing to output.gpw (mode='')


Forces in eV/Ang:
  0 Li    0.00648    0.00000   -0.27089
  1 Li   -0.00464    0.00000   -0.27217
  2 Li   -0.00205    0.00000   -0.27275
  3 Li   -0.00268    0.00049   -0.27226
  4 Li    0.00147   -0.00232   -0.27291
  5 Li    0.00122    0.00705   -0.27265
  6 Li   -0.00268   -0.00049   -0.27226
  7 Li    0.00147    0.00232   -0.27291
  8 Li    0.00122   -0.00705   -0.27265
  9 Li    0.00002   -0.00278    0.26762
 10 Li    0.00267    0.00423    0.26203
 11 Li   -0.00247   -0.00303    0.26569
 12 Li    0.00002    0.00278    0.26762
 13 Li    0.00267   -0.00423    0.26203
 14 Li   -0.00247    0.00303    0.26568
 15 Li    0.00183   -0.00000    0.25399
 16 Li   -0.00347   -0.00000    0.26870
 17 Li    0.00167   -0.00000    0.26025
 18 Li   -0.00600   -0.00000    0.03359
 19 Li    0.00716   -0.00000    0.04381
 20 Li   -0.00069   -0.00000   -0.01260
 21 Li   -0.00106   -0.00278    0.03216
 22 Li   -0.00065    0.00230    0.02655
 23 Li    0.00153   -0.00076    0.03081
 24 Li   -0.00106    0.00278    0.03216
 25 Li   -0.00065   -0.00230    0.02655
 26 Li    0.00153    0.00076    0.03081
 27 Li    0.01481   -0.02120   -0.02387
 28 Li    0.00923    0.01279   -0.00726
 29 Li   -0.03223   -0.02616   -0.05937
 30 Li    0.01481    0.02120   -0.02387
 31 Li    0.00923   -0.01279   -0.00726
 32 Li   -0.03222    0.02616   -0.05937
 33 Li   -0.00390   -0.00000   -0.02045
 34 Li   -0.00094    0.00000   -0.01635
 35 Li    0.00473    0.00000   -0.01821
 36 Cl    0.07011    0.00000    0.08262
 37 H    -0.04993    0.00000   -0.03033

System changes: positions 

Initializing position-dependent things.

Density initialized from wave functions
       .-----------------------.  
      /|                       |  
     / |                       |  
    /  |                       |  
   /   |                       |  
  /    |                       |  
 *     |                       |  
 |     |                       |  
 |     |                       |  
 |     |                       |  
 |     |                       |  
 |     |                       |  
 |     Li              Li      |  
 |     |           H  Cl       |  
 |     |     Li      Li      Li|  
 |     |  Li      Li      Li   |  
 | Li  |   Li      Li          |  
 |     |Li      Li      Li     |  
 |     | Li                    |  
 |   LLi     LLi     LLi       |  
 |     |  Li      Li      Li   |  
 | Li  |   Li      Li          |  
 |     |Li      Li      Li     |  
 Li    | Li      Li            |  
 |    Li      Li      Li       |  
 |     |                       |  
 |     |                       |  
 |     |                       |  
 |     |                       |  
 |     |                       |  
 |     |                       |  
 |     .-----------------------.  
 |    /                       /   
 |   /                       /    
 |  /                       /     
 | /                       /      
 |/                       /       
 *-----------------------*        

Positions:
   0 Li     1.617037    1.617037   10.000000    ( 0.0000,  0.0000,  0.0000)
   1 Li     4.851111    1.617037   10.000000    ( 0.0000,  0.0000,  0.0000)
   2 Li     8.085185    1.617037   10.000000    ( 0.0000,  0.0000,  0.0000)
   3 Li     1.617037    4.851111   10.000000    ( 0.0000,  0.0000,  0.0000)
   4 Li     4.851111    4.851111   10.000000    ( 0.0000,  0.0000,  0.0000)
   5 Li     8.085185    4.851111   10.000000    ( 0.0000,  0.0000,  0.0000)
   6 Li     1.617037    8.085185   10.000000    ( 0.0000,  0.0000,  0.0000)
   7 Li     4.851111    8.085185   10.000000    ( 0.0000,  0.0000,  0.0000)
   8 Li     8.085185    8.085185   10.000000    ( 0.0000,  0.0000,  0.0000)
   9 Li     0.000000    0.000000   11.617037    ( 0.0000,  0.0000,  0.0000)
  10 Li     3.234074    0.000000   11.617037    ( 0.0000,  0.0000,  0.0000)
  11 Li     6.468148    0.000000   11.617037    ( 0.0000,  0.0000,  0.0000)
  12 Li     0.000000    3.234074   11.617037    ( 0.0000,  0.0000,  0.0000)
  13 Li     3.234074    3.234074   11.617037    ( 0.0000,  0.0000,  0.0000)
  14 Li     6.468148    3.234074   11.617037    ( 0.0000,  0.0000,  0.0000)
  15 Li     0.000000    6.468148   11.617037    ( 0.0000,  0.0000,  0.0000)
  16 Li     3.234074    6.468148   11.617037    ( 0.0000,  0.0000,  0.0000)
  17 Li     6.468148    6.468148   11.617037    ( 0.0000,  0.0000,  0.0000)
  18 Li     1.616237    1.617038   13.474316    ( 0.0000,  0.0000,  0.0000)
  19 Li     4.852106    1.617038   13.475635    ( 0.0000,  0.0000,  0.0000)
  20 Li     8.085054    1.617038   13.468443    ( 0.0000,  0.0000,  0.0000)
  21 Li     1.616835    4.850760   13.473951    ( 0.0000,  0.0000,  0.0000)
  22 Li     4.851147    4.851266   13.473414    ( 0.0000,  0.0000,  0.0000)
  23 Li     8.085339    4.850922   13.473969    ( 0.0000,  0.0000,  0.0000)
  24 Li     1.616834    8.085535   13.473950    ( 0.0000,  0.0000,  0.0000)
  25 Li     4.851147    8.085028   13.473414    ( 0.0000,  0.0000,  0.0000)
  26 Li     8.085339    8.085373   13.473967    ( 0.0000,  0.0000,  0.0000)
  27 Li     0.002081   -0.002908   15.442118    ( 0.0000,  0.0000,  0.0000)
  28 Li     3.235091    0.001587   15.444701    ( 0.0000,  0.0000,  0.0000)
  29 Li     6.464160   -0.003668   15.437748    ( 0.0000,  0.0000,  0.0000)
  30 Li     0.002081    3.236982   15.442117    ( 0.0000,  0.0000,  0.0000)
  31 Li     3.235093    3.232489   15.444700    ( 0.0000,  0.0000,  0.0000)
  32 Li     6.464157    3.237744   15.437747    ( 0.0000,  0.0000,  0.0000)
  33 Li    -0.000518    6.468148   15.443307    ( 0.0000,  0.0000,  0.0000)
  34 Li     3.233991    6.468146   15.443798    ( 0.0000,  0.0000,  0.0000)
  35 Li     6.468737    6.468146   15.443571    ( 0.0000,  0.0000,  0.0000)
  36 Cl     8.232379    1.617037   18.458385    ( 0.0000,  0.0000,  0.0000)
  37 H      6.939377    1.617037   18.443022    ( 0.0000,  0.0000,  0.0000)

Unit cell:
           periodic     x           y           z      points  spacing
  1. axis:    yes    9.702222    0.000000    0.000000    60     0.1617
  2. axis:    yes    0.000000    9.702222    0.000000    60     0.1617
  3. axis:    no     0.000000    0.000000   24.851111   156     0.1593

  Lengths:   9.702222   9.702222  24.851111
  Angles:   90.000000  90.000000  90.000000

Effective grid spacing dv^(1/3) = 0.1609

     iter     time        total  log10-change:
                         energy  eigst   dens
iter:   1 17:44:07  -235.025218  -3.05
iter:   2 17:46:24  -235.025163  -3.78  -2.92
iter:   3 17:48:38  -235.024927c -3.53  -2.98
iter:   4 17:50:53  -235.024913c -3.83  -3.22
Writing to output.gpw (mode='')

iter:   5 17:53:16  -235.024908c -4.73  -3.23
iter:   6 17:55:35  -235.024882c -4.38  -3.47
iter:   7 17:57:56  -235.024890c -4.01  -3.62
iter:   8 18:00:16  -235.024879c -4.85  -3.58
iter:   9 18:02:42  -235.024881c -5.50  -3.80
Writing to output.gpw (mode='')

iter:  10 18:05:12  -235.024884c -5.00  -3.87
iter:  11 18:07:30  -235.024885c -5.42  -3.99
iter:  12 18:09:54  -235.024884c -5.88  -4.12c
iter:  13 18:12:16  -235.024883c -6.32  -4.17c
iter:  14 18:14:24  -235.024883c -6.37  -4.20c
Writing to output.gpw (mode='')

iter:  15 18:16:42  -235.024883c -6.46  -4.28c
iter:  16 18:19:02  -235.024883c -6.66  -4.46c
iter:  17 18:21:14  -235.024883c -6.99  -4.49c
iter:  18 18:23:30  -235.024882c -6.92  -4.50c
iter:  19 18:25:51  -235.024881c -6.74  -4.62c
Writing to output.gpw (mode='')

iter:  20 18:28:10  -235.024882c -7.04  -4.77c
iter:  21 18:30:21  -235.024882c -7.53c -4.83c

Converged after 21 iterations.

Dipole moment: (-2.364023, -3.152160, 0.037040) |e|*Ang

Energy contributions relative to reference atoms: (reference = -19867.801087)

Kinetic:        +82.495340
Potential:      -71.542842
External:        +0.000000
XC:            -245.778082
Entropy (-ST):   -0.151667
Local:           -0.123465
--------------------------
Free energy:   -235.100715
Extrapolated:  -235.024882

Dipole-layer corrected work functions: 3.379936, 3.308733 eV

Showing only first 2 kpts
 Kpt  Band  Eigenvalues  Occupancy
  0    20     -3.59800    1.98755
  0    21     -3.51460    1.93574
  0    22     -3.17531    0.06582
  0    23     -3.09156    0.01267

  1    20     -3.36589    1.21224
  1    21     -3.33917    0.94842
  1    22     -3.30542    0.62939
  1    23     -3.29327    0.52954


Fermi level: -3.34433

No gap
Writing to output.gpw (mode='')


Forces in eV/Ang:
  0 Li    0.00652    0.00000   -0.27084
  1 Li   -0.00464    0.00000   -0.27220
  2 Li   -0.00209    0.00000   -0.27280
  3 Li   -0.00266    0.00054   -0.27223
  4 Li    0.00145   -0.00229   -0.27289
  5 Li    0.00122    0.00710   -0.27265
  6 Li   -0.00266   -0.00054   -0.27223
  7 Li    0.00145    0.00229   -0.27289
  8 Li    0.00122   -0.00710   -0.27265
  9 Li    0.00018   -0.00296    0.26807
 10 Li    0.00273    0.00431    0.26264
 11 Li   -0.00269   -0.00321    0.26622
 12 Li    0.00018    0.00296    0.26806
 13 Li    0.00273   -0.00431    0.26264
 14 Li   -0.00269    0.00321    0.26621
 15 Li    0.00196   -0.00000    0.25447
 16 Li   -0.00361   -0.00000    0.26914
 17 Li    0.00167   -0.00000    0.26076
 18 Li   -0.00571   -0.00000    0.03204
 19 Li    0.00666   -0.00000    0.04162
 20 Li   -0.00056   -0.00000   -0.01240
 21 Li   -0.00084   -0.00267    0.03077
 22 Li   -0.00096    0.00252    0.02501
 23 Li    0.00158   -0.00059    0.02914
 24 Li   -0.00084    0.00267    0.03077
 25 Li   -0.00096   -0.00252    0.02502
 26 Li    0.00158    0.00059    0.02914
 27 Li    0.01404   -0.02036   -0.02235
 28 Li    0.00911    0.01243   -0.00660
 29 Li   -0.03133   -0.02505   -0.05728
 30 Li    0.01404    0.02036   -0.02235
 31 Li    0.00911   -0.01243   -0.00659
 32 Li   -0.03132    0.02505   -0.05727
 33 Li   -0.00378   -0.00000   -0.01969
 34 Li   -0.00092    0.00000   -0.01562
 35 Li    0.00462    0.00000   -0.01747
 36 Cl   -0.03435    0.00000    0.08715
 37 H     0.05842    0.00000   -0.03098

System changes: positions 

Initializing position-dependent things.

Density initialized from wave functions
       .-----------------------.  
      /|                       |  
     / |                       |  
    /  |                       |  
   /   |                       |  
  /    |                       |  
 *     |                       |  
 |     |                       |  
 |     |                       |  
 |     |                       |  
 |     |                       |  
 |     |                       |  
 |     Li              Li      |  
 |     |           H  Cl       |  
 |     |     Li      Li      Li|  
 |     |  Li      Li      Li   |  
 | Li  |   Li      Li          |  
 |     |Li      Li      Li     |  
 |     | Li                    |  
 |   LLi     LLi     LLi       |  
 |     |  Li      Li      Li   |  
 | Li  |   Li      Li          |  
 |     |Li      Li      Li     |  
 Li    | Li      Li            |  
 |    Li      Li      Li       |  
 |     |                       |  
 |     |                       |  
 |     |                       |  
 |     |                       |  
 |     |                       |  
 |     |                       |  
 |     .-----------------------.  
 |    /                       /   
 |   /                       /    
 |  /                       /     
 | /                       /      
 |/                       /       
 *-----------------------*        

Positions:
   0 Li     1.617037    1.617037   10.000000    ( 0.0000,  0.0000,  0.0000)
   1 Li     4.851111    1.617037   10.000000    ( 0.0000,  0.0000,  0.0000)
   2 Li     8.085185    1.617037   10.000000    ( 0.0000,  0.0000,  0.0000)
   3 Li     1.617037    4.851111   10.000000    ( 0.0000,  0.0000,  0.0000)
   4 Li     4.851111    4.851111   10.000000    ( 0.0000,  0.0000,  0.0000)
   5 Li     8.085185    4.851111   10.000000    ( 0.0000,  0.0000,  0.0000)
   6 Li     1.617037    8.085185   10.000000    ( 0.0000,  0.0000,  0.0000)
   7 Li     4.851111    8.085185   10.000000    ( 0.0000,  0.0000,  0.0000)
   8 Li     8.085185    8.085185   10.000000    ( 0.0000,  0.0000,  0.0000)
   9 Li     0.000000    0.000000   11.617037    ( 0.0000,  0.0000,  0.0000)
  10 Li     3.234074    0.000000   11.617037    ( 0.0000,  0.0000,  0.0000)
  11 Li     6.468148    0.000000   11.617037    ( 0.0000,  0.0000,  0.0000)
[...]
  31 Li     3.298703    3.274577   15.435873    ( 0.0000,  0.0000,  0.0000)
  32 Li     6.642277    3.223894   15.701551    ( 0.0000,  0.0000,  0.0000)
  33 Li     0.008619    6.468139   15.523075    ( 0.0000,  0.0000,  0.0000)
  34 Li     3.238224    6.468134   15.286224    ( 0.0000,  0.0000,  0.0000)
  35 Li     6.470769    6.468137   15.455181    ( 0.0000,  0.0000,  0.0000)
  36 Cl     8.115810    1.612417   17.952545    ( 0.0000,  0.0000,  0.0000)
  37 H      8.324708    1.617298   16.246611    ( 0.0000,  0.0000,  0.0000)

Unit cell:
           periodic     x           y           z      points  spacing
  1. axis:    yes    9.702222    0.000000    0.000000    60     0.1617
  2. axis:    yes    0.000000    9.702222    0.000000    60     0.1617
  3. axis:    no     0.000000    0.000000   24.851111   156     0.1593

  Lengths:   9.702222   9.702222  24.851111
  Angles:   90.000000  90.000000  90.000000

Effective grid spacing dv^(1/3) = 0.1609

     iter     time        total  log10-change:
                         energy  eigst   dens
iter:   1 00:01:44  -235.486721  -1.45
iter:   2 00:04:02  -235.478807  -1.97  -1.87
iter:   3 00:06:15  -235.477341c -2.46  -2.26
iter:   4 00:08:25  -235.473783c -2.09  -2.34
Writing to output.gpw (mode='')

iter:   5 00:10:42  -235.473621c -3.11  -2.48
iter:   6 00:13:05  -235.473546c -3.46  -2.60
iter:   7 00:15:24  -235.472915c -2.51  -2.64
iter:   8 00:17:46  -235.472857c -3.55  -2.76
iter:   9 00:20:00  -235.472920c -3.37  -2.89
Writing to output.gpw (mode='')

iter:  10 00:22:13  -235.472887c -3.77  -3.13
iter:  11 00:24:18  -235.472908c -4.13  -3.14
iter:  12 00:25:10  -235.472973c -3.82  -3.32
iter:  13 00:27:24  -235.472935c -4.86  -3.46
iter:  14 00:29:36  -235.472899c -4.63  -3.55
Writing to output.gpw (mode='')

iter:  15 00:31:52  -235.472935c -4.68  -3.67
iter:  16 00:34:13  -235.472944c -4.94  -3.77
iter:  17 00:36:31  -235.472925c -5.15  -3.76
iter:  18 00:38:48  -235.472927c -5.36  -3.88
iter:  19 00:41:04  -235.472942c -5.40  -3.94
Writing to output.gpw (mode='')

iter:  20 00:43:25  -235.472934c -5.49  -4.12c
iter:  21 00:45:44  -235.472933c -5.86  -4.15c
iter:  22 00:47:58  -235.472930c -6.06  -4.35c
iter:  23 00:50:18  -235.472932c -6.21  -4.57c
iter:  24 00:52:42  -235.472932c -6.28  -4.66c
Writing to output.gpw (mode='')

iter:  25 00:54:57  -235.472934c -6.39  -4.69c
iter:  26 00:57:16  -235.472934c -6.70  -4.81c
iter:  27 00:59:33  -235.472932c -6.54  -4.84c
iter:  28 01:01:51  -235.472934c -6.70  -4.80c
iter:  29 01:04:07  -235.472934c -7.21  -5.10c
Writing to output.gpw (mode='')

iter:  30 01:06:20  -235.472934c -7.14  -5.16c
iter:  31 01:08:36  -235.472935c -7.14  -5.40c
iter:  32 01:10:48  -235.472934c -7.36  -5.54c
iter:  33 01:13:14  -235.472935c -7.53c -5.54c

Converged after 33 iterations.

Dipole moment: (-6.342725, -2.270616, -0.376240) |e|*Ang

Energy contributions relative to reference atoms: (reference = -19867.801087)

Kinetic:        +78.509362
Potential:      -68.047423
External:        +0.000000
XC:            -245.753964
Entropy (-ST):   -0.138249
Local:           -0.111785
--------------------------
Free energy:   -235.542059
Extrapolated:  -235.472935

Dipole-layer corrected work functions: 3.413997, 4.137259 eV

Showing only first 2 kpts
 Kpt  Band  Eigenvalues  Occupancy
  0    20     -3.98475    1.96994
  0    21     -3.94665    1.93668
  0    22     -3.65153    0.15428
  0    23     -3.51931    0.01181

  1    20     -3.90501    1.86012
  1    21     -3.74543    0.70692
  1    22     -3.72219    0.51130
  1    23     -3.69474    0.33100


Fermi level: -3.77563

No gap
Writing to output.gpw (mode='')


Forces in eV/Ang:
  0 Li   -0.01461    0.00000   -0.27181
  1 Li    0.00575    0.00000   -0.26697
  2 Li   -0.00008    0.00005   -0.26982
  3 Li    0.00239    0.01157   -0.28384
  4 Li   -0.01327    0.00987   -0.28657
  5 Li   -0.00216   -0.01133   -0.26969
  6 Li    0.00240   -0.01160   -0.28379
  7 Li   -0.01329   -0.00990   -0.28655
  8 Li   -0.00216    0.01127   -0.26972
  9 Li   -0.02907    0.04378    0.28103
 10 Li    0.01915    0.01263    0.31761
 11 Li    0.06003    0.04771    0.30383
 12 Li   -0.02899   -0.04371    0.28082
 13 Li    0.01912   -0.01270    0.31772
 14 Li    0.05995   -0.04763    0.30365
 15 Li   -0.03747   -0.00008    0.29405
 16 Li    0.03025    0.00012    0.37364
 17 Li    0.04858   -0.00007    0.30750
 18 Li    0.03550   -0.00007   -0.05420
 19 Li   -0.00072   -0.00005   -0.04909
 20 Li    0.01985    0.00019    0.06829
 21 Li    0.03046    0.00060   -0.00008
 22 Li    0.01416   -0.01832   -0.00613
 23 Li   -0.01887    0.05811   -0.05621
 24 Li    0.03035   -0.00044    0.00007
 25 Li    0.01421    0.01842   -0.00608
 26 Li   -0.01889   -0.05807   -0.05635
 27 Li   -0.19852    0.15216    0.15251
 28 Li    0.01164    0.00843    0.01029
 29 Li    0.15939    0.20136    0.16752
 30 Li   -0.19804   -0.15159    0.15092
 31 Li    0.01167   -0.00841    0.01030
 32 Li    0.15874   -0.20079    0.16511
 33 Li    0.02388   -0.00003   -0.03205
 34 Li   -0.01727   -0.00004    0.07410
 35 Li   -0.02589   -0.00006   -0.00086
 36 Cl   -0.19849   -0.00860    0.40069
 37 H     0.05864    0.00263   -1.24913

System changes: positions 

Initializing position-dependent things.

Density initialized from wave functions
       .-----------------------.  
      /|                       |  
     / |                       |  
    /  |                       |  
   /   |                       |  
  /    |                       |  
 *     |                       |  
 |     |                       |  
 |     |                       |  
 |     |                       |  
 |     |                       |  
 |     |                       |  
 |     |       Li              |  
 |     |                       |  
 |   Li|     Li      LCl       |  
 |     |  Li      LLi     Li   |  
 | Li  |   Li          H       |  
 |     |Li      LLi     Li     |  
 Li    |                       |  
 |   LLi     LLi     LLi       |  
 |     |  Li      Li      Li   |  
 | Li  |   Li      Li          |  
 |     |Li      Li      Li     |  
 Li    | Li      Li            |  
 |    Li      Li      Li       |  
 |     |                       |  
 |     |                       |  
 |     |                       |  
 |     |                       |  
 |     |                       |  
 |     |                       |  
 |     .-----------------------.  
 |    /                       /   
 |   /                       /    
 |  /                       /     
 | /                       /      
 |/                       /       
 *-----------------------*        

Positions:
   0 Li     1.617037    1.617037   10.000000    ( 0.0000,  0.0000,  0.0000)
   1 Li     4.851111    1.617037   10.000000    ( 0.0000,  0.0000,  0.0000)
   2 Li     8.085185    1.617037   10.000000    ( 0.0000,  0.0000,  0.0000)
   3 Li     1.617037    4.851111   10.000000    ( 0.0000,  0.0000,  0.0000)
   4 Li     4.851111    4.851111   10.000000    ( 0.0000,  0.0000,  0.0000)
   5 Li     8.085185    4.851111   10.000000    ( 0.0000,  0.0000,  0.0000)
   6 Li     1.617037    8.085185   10.000000    ( 0.0000,  0.0000,  0.0000)
   7 Li     4.851111    8.085185   10.000000    ( 0.0000,  0.0000,  0.0000)
   8 Li     8.085185    8.085185   10.000000    ( 0.0000,  0.0000,  0.0000)
   9 Li     0.000000    0.000000   11.617037    ( 0.0000,  0.0000,  0.0000)
  10 Li     3.234074    0.000000   11.617037    ( 0.0000,  0.0000,  0.0000)
  11 Li     6.468148    0.000000   11.617037    ( 0.0000,  0.0000,  0.0000)
  12 Li     0.000000    3.234074   11.617037    ( 0.0000,  0.0000,  0.0000)
  13 Li     3.234074    3.234074   11.617037    ( 0.0000,  0.0000,  0.0000)
  14 Li     6.468148    3.234074   11.617037    ( 0.0000,  0.0000,  0.0000)
  15 Li     0.000000    6.468148   11.617037    ( 0.0000,  0.0000,  0.0000)
  16 Li     3.234074    6.468148   11.617037    ( 0.0000,  0.0000,  0.0000)
  17 Li     6.468148    6.468148   11.617037    ( 0.0000,  0.0000,  0.0000)
  18 Li     1.641406    1.617017   13.524040    ( 0.0000,  0.0000,  0.0000)
  19 Li     4.931367    1.617017   13.576498    ( 0.0000,  0.0000,  0.0000)
  20 Li     8.134327    1.617134   13.690941    ( 0.0000,  0.0000,  0.0000)
  21 Li     1.565406    4.820172   13.500525    ( 0.0000,  0.0000,  0.0000)
  22 Li     4.931948    4.809840   13.518326    ( 0.0000,  0.0000,  0.0000)
  23 Li     8.116493    4.801502   13.568206    ( 0.0000,  0.0000,  0.0000)
  24 Li     1.565373    8.116159   13.500568    ( 0.0000,  0.0000,  0.0000)
  25 Li     4.931980    8.126488   13.518356    ( 0.0000,  0.0000,  0.0000)
  26 Li     8.116486    8.134742   13.568104    ( 0.0000,  0.0000,  0.0000)
  27 Li     0.113366    0.058162   15.574640    ( 0.0000,  0.0000,  0.0000)
  28 Li     3.303499   -0.041779   15.435707    ( 0.0000,  0.0000,  0.0000)
  29 Li     6.643106    0.011590   15.705326    ( 0.0000,  0.0000,  0.0000)
  30 Li     0.113418    3.176076   15.574267    ( 0.0000,  0.0000,  0.0000)
  31 Li     3.303508    3.275865   15.435715    ( 0.0000,  0.0000,  0.0000)
  32 Li     6.643015    3.222644   15.704806    ( 0.0000,  0.0000,  0.0000)
  33 Li     0.009367    6.468138   15.520797    ( 0.0000,  0.0000,  0.0000)
  34 Li     3.239284    6.468134   15.286611    ( 0.0000,  0.0000,  0.0000)
  35 Li     6.469274    6.468136   15.456025    ( 0.0000,  0.0000,  0.0000)
  36 Cl     8.104325    1.612220   17.947523    ( 0.0000,  0.0000,  0.0000)
  37 H      8.328540    1.617356   16.206795    ( 0.0000,  0.0000,  0.0000)

Unit cell:
           periodic     x           y           z      points  spacing
  1. axis:    yes    9.702222    0.000000    0.000000    60     0.1617
  2. axis:    yes    0.000000    9.702222    0.000000    60     0.1617
  3. axis:    no     0.000000    0.000000   24.851111   156     0.1593

  Lengths:   9.702222   9.702222  24.851111
  Angles:   90.000000  90.000000  90.000000

Effective grid spacing dv^(1/3) = 0.1609

     iter     time        total  log10-change:
                         energy  eigst   dens
iter:   1 01:16:08  -235.544345  -1.44
iter:   2 01:18:28  -235.535644  -1.98  -1.86
iter:   3 01:20:50  -235.534126c -2.49  -2.25
iter:   4 01:23:15  -235.530766c -2.07  -2.34
Writing to output.gpw (mode='')

iter:   5 01:24:49  -235.530541c -3.08  -2.47
iter:   6 01:27:21  -235.530497c -3.49  -2.60
iter:   7 01:29:43  -235.529864c -2.50  -2.63
iter:   8 01:32:05  -235.529790c -3.42  -2.75
iter:   9 01:34:22  -235.529820c -3.38  -2.85
Writing to output.gpw (mode='')

iter:  10 01:36:44  -235.529804c -3.91  -3.10
iter:  11 01:39:00  -235.529822c -4.13  -3.18
iter:  12 01:41:24  -235.529908c -3.80  -3.28
iter:  13 01:43:46  -235.529872c -4.80  -3.43
iter:  14 01:46:06  -235.529830c -4.70  -3.51
Writing to output.gpw (mode='')

iter:  15 01:48:32  -235.529843c -4.78  -3.62
iter:  16 01:50:58  -235.529853c -5.25  -3.78
iter:  17 01:53:19  -235.529852c -5.40  -3.78
iter:  18 01:55:37  -235.529858c -5.13  -3.86
iter:  19 01:58:01  -235.529858c -5.59  -4.00
Writing to output.gpw (mode='')

iter:  20 02:00:17  -235.529857c -5.73  -4.15c
iter:  21 02:02:32  -235.529852c -5.70  -4.20c
iter:  22 02:04:48  -235.529849c -5.81  -4.40c
iter:  23 02:06:39  -235.529849c -5.91  -4.50c
iter:  24 02:08:53  -235.529849c -6.48  -4.49c
Writing to output.gpw (mode='')

iter:  25 02:11:09  -235.529845c -6.23  -4.50c
iter:  26 02:13:37  -235.529845c -6.45  -4.46c
iter:  27 02:15:49  -235.529846c -6.64  -4.45c
iter:  28 02:17:11  -235.529846c -6.54  -4.43c
iter:  29 02:19:26  -235.529841c -6.44  -4.45c
Writing to output.gpw (mode='')

iter:  30 02:21:40  -235.529846c -7.09  -4.26c
iter:  31 02:23:52  -235.529854c -6.39  -4.41c
iter:  32 02:26:10  -235.529854c -6.98  -4.79c
iter:  33 02:28:24  -235.529852c -7.10  -4.84c
iter:  34 02:30:45  -235.529853c -7.10  -5.16c
Writing to output.gpw (mode='')

iter:  35 02:33:08  -235.529854c -7.40c -5.20c

Converged after 35 iterations.

Dipole moment: (-6.447364, -2.267734, -0.401079) |e|*Ang

Energy contributions relative to reference atoms: (reference = -19867.801087)

Kinetic:        +78.379774
Potential:      -67.930614
External:        +0.000000
XC:            -245.798554
Entropy (-ST):   -0.137850
Local:           -0.111535
--------------------------
Free energy:   -235.598778
Extrapolated:  -235.529854

Dipole-layer corrected work functions: 3.414802, 4.185813 eV

Showing only first 2 kpts
 Kpt  Band  Eigenvalues  Occupancy
  0    20     -4.00895    1.96965
  0    21     -3.97193    1.93740
  0    22     -3.68171    0.17067
  0    23     -3.54315    0.01161

  1    20     -3.93945    1.88349
  1    21     -3.76784    0.68623
  1    22     -3.74596    0.50436
  1    23     -3.71700    0.31787


Fermi level: -3.80031

No gap

Forces in eV/Ang:
  0 Li   -0.01480    0.00000   -0.27206
  1 Li    0.00560    0.00000   -0.26739
  2 Li   -0.00013    0.00005   -0.27028
  3 Li    0.00272    0.01209   -0.28436
  4 Li   -0.01388    0.01040   -0.28694
  5 Li   -0.00236   -0.01137   -0.27023
  6 Li    0.00273   -0.01212   -0.28431
  7 Li   -0.01390   -0.01043   -0.28692
  8 Li   -0.00236    0.01131   -0.27025
  9 Li   -0.03013    0.04407    0.28435
 10 Li    0.02045    0.01171    0.31733
 11 Li    0.06044    0.04885    0.30689
 12 Li   -0.03004   -0.04399    0.28414
 13 Li    0.02041   -0.01178    0.31745
 14 Li    0.06036   -0.04877    0.30671
 15 Li   -0.03725   -0.00008    0.29543
 16 Li    0.03130    0.00012    0.37396
 17 Li    0.04844   -0.00007    0.30661
 18 Li    0.03617   -0.00008   -0.05477
 19 Li   -0.00181   -0.00005   -0.05755
 20 Li    0.02706    0.00020    0.07775
 21 Li    0.02881   -0.00232   -0.00085
 22 Li    0.01566   -0.01951   -0.00783
 23 Li   -0.01756    0.05898   -0.06155
 24 Li    0.02871    0.00249   -0.00070
 25 Li    0.01571    0.01960   -0.00778
 26 Li   -0.01757   -0.05893   -0.06170
 27 Li   -0.21654    0.16714    0.16730
 28 Li    0.00757    0.00885    0.01172
 29 Li    0.18004    0.22090    0.19440
 30 Li   -0.21599   -0.16653    0.16556
 31 Li    0.00760   -0.00883    0.01174
 32 Li    0.17933   -0.22031    0.19173
 33 Li    0.02420   -0.00004   -0.02876
 34 Li   -0.01773   -0.00005    0.07507
 35 Li   -0.02614   -0.00007    0.00074
 36 Cl   -0.21168   -0.00334    0.45293
 37 H     0.07568    0.00296   -1.36943

System changes: positions 

Initializing position-dependent things.

Density initialized from wave functions
       .-----------------------.  
      /|                       |  
     / |                       |  
    /  |                       |  
   /   |                       |  
  /    |                       |  
 *     |                       |  
 |     |                       |  
 |     |                       |  
 |     |                       |  
 |     |                       |  
 |     |                       |  
 |     |       Li              |  
 |     |                       |  
 |   Li|     Li      LCl       |  
 |     |  Li      LLi     Li   |  
 | Li  |   Li          H       |  
 |     |Li      LLi     Li     |  
 Li    |                       |  
 |   LLi     LLi     LLi       |  
 |     |  Li      Li      Li   |  
 | Li  |   Li      Li          |  
 |     |Li      Li      Li     |  
 Li    | Li      Li            |  
 |    Li      Li      Li       |  
 |     |                       |  
 |     |                       |  
 |     |                       |  
 |     |                       |  
 |     |                       |  
 |     |                       |  
 |     .-----------------------.  
 |    /                       /   
 |   /                       /    
 |  /                       /     
 | /                       /      
 |/                       /       
 *-----------------------*        

Positions:
   0 Li     1.617037    1.617037   10.000000    ( 0.0000,  0.0000,  0.0000)
   1 Li     4.851111    1.617037   10.000000    ( 0.0000,  0.0000,  0.0000)
   2 Li     8.085185    1.617037   10.000000    ( 0.0000,  0.0000,  0.0000)
   3 Li     1.617037    4.851111   10.000000    ( 0.0000,  0.0000,  0.0000)
   4 Li     4.851111    4.851111   10.000000    ( 0.0000,  0.0000,  0.0000)
   5 Li     8.085185    4.851111   10.000000    ( 0.0000,  0.0000,  0.0000)
   6 Li     1.617037    8.085185   10.000000    ( 0.0000,  0.0000,  0.0000)
   7 Li     4.851111    8.085185   10.000000    ( 0.0000,  0.0000,  0.0000)
   8 Li     8.085185    8.085185   10.000000    ( 0.0000,  0.0000,  0.0000)
   9 Li     0.000000    0.000000   11.617037    ( 0.0000,  0.0000,  0.0000)
  10 Li     3.234074    0.000000   11.617037    ( 0.0000,  0.0000,  0.0000)
  11 Li     6.468148    0.000000   11.617037    ( 0.0000,  0.0000,  0.0000)
  12 Li     0.000000    3.234074   11.617037    ( 0.0000,  0.0000,  0.0000)
  13 Li     3.234074    3.234074   11.617037    ( 0.0000,  0.0000,  0.0000)
  14 Li     6.468148    3.234074   11.617037    ( 0.0000,  0.0000,  0.0000)
  15 Li     0.000000    6.468148   11.617037    ( 0.0000,  0.0000,  0.0000)
  16 Li     3.234074    6.468148   11.617037    ( 0.0000,  0.0000,  0.0000)
  17 Li     6.468148    6.468148   11.617037    ( 0.0000,  0.0000,  0.0000)
  18 Li     1.644823    1.617015   13.522746    ( 0.0000,  0.0000,  0.0000)
  19 Li     4.931491    1.617016   13.579029    ( 0.0000,  0.0000,  0.0000)
  20 Li     8.132358    1.617139   13.696727    ( 0.0000,  0.0000,  0.0000)
  21 Li     1.566609    4.820783   13.501750    ( 0.0000,  0.0000,  0.0000)
  22 Li     4.932837    4.810283   13.519348    ( 0.0000,  0.0000,  0.0000)
  23 Li     8.115200    4.802702   13.569734    ( 0.0000,  0.0000,  0.0000)
  24 Li     1.566574    8.115551   13.501795    ( 0.0000,  0.0000,  0.0000)
  25 Li     4.932870    8.126046   13.519379    ( 0.0000,  0.0000,  0.0000)
  26 Li     8.115192    8.133542   13.569627    ( 0.0000,  0.0000,  0.0000)
  27 Li     0.114119    0.062044   15.576904    ( 0.0000,  0.0000,  0.0000)
  28 Li     3.308337   -0.042912   15.435587    ( 0.0000,  0.0000,  0.0000)
  29 Li     6.643690    0.012889   15.708386    ( 0.0000,  0.0000,  0.0000)
  30 Li     0.114181    3.172205   15.576498    ( 0.0000,  0.0000,  0.0000)
  31 Li     3.308347    3.276998   15.435595    ( 0.0000,  0.0000,  0.0000)
  32 Li     6.643587    3.221356   15.707816    ( 0.0000,  0.0000,  0.0000)
  33 Li     0.010056    6.468138   15.518287    ( 0.0000,  0.0000,  0.0000)
  34 Li     3.240327    6.468133   15.287133    ( 0.0000,  0.0000,  0.0000)
  35 Li     6.467826    6.468135   15.456901    ( 0.0000,  0.0000,  0.0000)
  36 Cl     8.092510    1.612104   17.943486    ( 0.0000,  0.0000,  0.0000)
  37 H      8.332267    1.617418   16.166969    ( 0.0000,  0.0000,  0.0000)

Unit cell:
           periodic     x           y           z      points  spacing
  1. axis:    yes    9.702222    0.000000    0.000000    60     0.1617
  2. axis:    yes    0.000000    9.702222    0.000000    60     0.1617
  3. axis:    no     0.000000    0.000000   24.851111   156     0.1593

  Lengths:   9.702222   9.702222  24.851111
  Angles:   90.000000  90.000000  90.000000

Effective grid spacing dv^(1/3) = 0.1609

     iter     time        total  log10-change:
                         energy  eigst   dens
iter:   1 02:35:36  -235.607835  -1.43
iter:   2 02:37:55  -235.597932  -1.99  -1.84
iter:   3 02:40:14  -235.596358c -2.52  -2.24
iter:   4 02:42:32  -235.593229c -2.08  -2.35
Writing to output.gpw (mode='')

iter:   5 02:44:47  -235.592996c -3.08  -2.47
iter:   6 02:47:02  -235.592975c -3.51  -2.60
iter:   7 02:49:16  -235.592369c -2.52  -2.62
iter:   8 02:51:32  -235.592280c -3.30  -2.77
iter:   9 02:53:53  -235.592285c -3.42  -2.84
Writing to output.gpw (mode='')

iter:  10 02:56:07  -235.592273c -3.77  -3.07
iter:  11 02:57:40  -235.592297c -4.19  -3.18
iter:  12 02:59:58  -235.592382c -3.87  -3.32
iter:  13 03:02:16  -235.592350c -4.80  -3.46
iter:  14 03:04:36  -235.592329c -5.00  -3.52
Writing to output.gpw (mode='')

iter:  15 03:06:58  -235.592320c -4.80  -3.62
iter:  16 03:09:21  -235.592332c -5.16  -3.79
