
  ___ ___ ___ _ _ _  
 |   |   |_  | | | | 
 | | | | | . | | | | 
 |__ |  _|___|_____|  22.8.0
 |___|_|             

User:   vazumah@c08.hercules
Date:   Wed Apr  5 10:31:07 2023
Arch:   x86_64
Pid:    3000
CWD:    /home/vazumah/Python_projects/LiNRR/Li_adsorb_studies/proton_donors/N2_with_proton_donor/Li_BCC_100/adsorbates/CH3CH2OH_z_recalcs/bridge/0.0_1.617/N2_y/C2H6O-1_0.06_1.56_18.99
Python: 3.10.8
gpaw:   /home/vazumah/.conda/envs/GPAW/lib/python3.10/site-packages/gpaw
_gpaw:  /home/vazumah/.conda/envs/GPAW/lib/python3.10/site-packages/
        _gpaw.cpython-310-x86_64-linux-gnu.so
ase:    /home/vazumah/.conda/envs/GPAW/lib/python3.10/site-packages/ase (version 3.22.1)
numpy:  /home/vazumah/.conda/envs/GPAW/lib/python3.10/site-packages/numpy (version 1.24.1)
scipy:  /home/vazumah/.conda/envs/GPAW/lib/python3.10/site-packages/scipy (version 1.10.0)
libxc:  5.2.3
units:  Angstrom and eV
cores: 24
OpenMP: True
OMP_NUM_THREADS: 1

Input parameters:
  convergence: {bands: -10}
  h: 0.16
  kpts: {size: [4, 4, 1]}
  occupations: {name: fermi-dirac,
                width: 0.05}
  poissonsolver: {dipolelayer: xy}
  xc: BEEF-vdW

System changes: positions, numbers, cell, pbc, initial_charges, initial_magmoms 

Initialize ...

species:
  Li:
    name: Lithium
    id: 830b4218f175192f93f959cfc0aad614
    Z: 3.0
    valence: 1
    core: 2
    charge: 0.0
    file: /home/vazumah/.conda/envs/GPAW/share/gpaw/Li.PBE.gz
    compensation charges: {type: gauss,
                           rc: 0.33,
                           lmax: 2}
    cutoffs: {filter: 1.91,
              core: 2.55}
    valence states:
      #              energy  rcut
      - 2s(1.00)    -2.874   1.058
      - 2p(0.00)    -1.090   1.058
      -  s          24.337   1.058
  
    # Using partial waves for Li as LCAO basis

  O:
    name: Oxygen
    id: 32ecd46bf208036f09c70b0ec9a88b78
    Z: 8.0
    valence: 6
    core: 2
    charge: 0.0
    file: /home/vazumah/.conda/envs/GPAW/share/gpaw/O.PBE.gz
    compensation charges: {type: gauss,
                           rc: 0.21,
                           lmax: 2}
    cutoffs: {filter: 1.17,
              core: 0.83}
    valence states:
      #              energy  rcut
      - 2s(2.00)   -23.961   0.688
      - 2p(4.00)    -9.029   0.598
      -  s           3.251   0.688
      -  p          18.182   0.598
      -  d           0.000   0.619
  
    # Using partial waves for O as LCAO basis

  C:
    name: Carbon
    id: 4aa54d4b901d75f77cc0ea3eec22967b
    Z: 6.0
    valence: 4
    core: 2
    charge: 0.0
    file: /home/vazumah/.conda/envs/GPAW/share/gpaw/C.PBE.gz
    compensation charges: {type: gauss,
                           rc: 0.20,
                           lmax: 2}
    cutoffs: {filter: 1.14,
              core: 1.14}
    valence states:
      #              energy  rcut
      - 2s(2.00)   -13.751   0.635
      - 2p(2.00)    -5.284   0.635
      -  s          13.461   0.635
      -  p          21.927   0.635
      -  d           0.000   0.635
  
    # Using partial waves for C as LCAO basis

  H:
    name: Hydrogen
    id: d65de229564ff8ea4db303e23b6d1ecf
    Z: 1.0
    valence: 1
    core: 0
    charge: 0.0
    file: /home/vazumah/.conda/envs/GPAW/share/gpaw/H.PBE.gz
    compensation charges: {type: gauss,
                           rc: 0.15,
                           lmax: 2}
    cutoffs: {filter: 0.85,
              core: 0.53}
    valence states:
      #              energy  rcut
      - 1s(1.00)    -6.494   0.476
      -  s          20.717   0.476
      -  p           0.000   0.476
  
    # Using partial waves for H as LCAO basis

  N:
    name: Nitrogen
    id: f7500608b86eaa90eef8b1d9a670dc53
    Z: 7.0
    valence: 5
    core: 2
    charge: 0.0
    file: /home/vazumah/.conda/envs/GPAW/share/gpaw/N.PBE.gz
    compensation charges: {type: gauss,
                           rc: 0.18,
                           lmax: 2}
    cutoffs: {filter: 1.11,
              core: 0.96}
    valence states:
      #              energy  rcut
      - 2s(2.00)   -18.583   0.603
      - 2p(3.00)    -7.089   0.529
      -  s           8.629   0.603
      -  p          20.123   0.529
      -  d           0.000   0.577
  
    # Using partial waves for N as LCAO basis

Reference energy: -14434.854043  # eV

Spin-paired calculation

Convergence criteria:
 Maximum [total energy] change in last 3 cyles: 0.0005 eV / electron
 Maximum integral of absolute [dens]ity change: 0.0001 electrons / valence electron
 Maximum integral of absolute [eigenst]ate change: 4e-08 eV^2 / valence electron
 Maximum number of scf [iter]ations: 333
 (Square brackets indicate name in SCF output, whereas a 'c' in
 the SCF output indicates the quantity has converged.)

Symmetries present (total): 1

  ( 1  0  0)
  ( 0  1  0)
  ( 0  0  1)

16 k-points: 4 x 4 x 1 Monkhorst-Pack grid
8 k-points in the irreducible part of the Brillouin zone
       k-points in crystal coordinates                weights
   0:     0.12500000   -0.37500000    0.00000000          2/16
   1:     0.12500000   -0.12500000    0.00000000          2/16
   2:     0.12500000    0.12500000    0.00000000          2/16
   3:     0.12500000    0.37500000    0.00000000          2/16
   4:     0.37500000   -0.37500000    0.00000000          2/16
   5:     0.37500000   -0.12500000    0.00000000          2/16
   6:     0.37500000    0.12500000    0.00000000          2/16
   7:     0.37500000    0.37500000    0.00000000          2/16

Wave functions: Uniform real-space grid
  Kinetic energy operator: 6*3+1=19 point O(h^6) finite-difference Laplacian
  ScaLapack parameters: grid=1x1, blocksize=None
  Wavefunction extrapolation:
    Improved wavefunction reuse through dual PAW basis 

Occupation numbers: Fermi-Dirac:
  width: 0.0500  # eV
 

Eigensolver
   Davidson(niter=2) 

Densities:
  Coarse grid: 60*60*164 grid
  Fine grid: 120*120*328 grid
  Total Charge: 0.000000 

Density mixing:
  Method: separate
  Backend: pulay
  Linear mixing parameter: 0.05
  old densities: 5
  Damping of long wavelength oscillations: 50 

Hamiltonian:
  XC and Coulomb potentials evaluated on a 120*120*328 grid
  Using the BEEF-vdW Exchange-Correlation functional
  Interpolation: tri-quintic (5. degree polynomial)
  Poisson solver: FastPoissonSolver using
    Stencil: 6*3+1=19 point O(h^6) finite-difference Laplacian
    FFT axes: [0, 1]
    FST axes: [2]

Dipole correction along z-axis 

XC parameters: BEEF-vdW with 2 nearest neighbor stencil

Memory estimate:
  Process memory now: 240.77 MiB
  Calculator: 430.76 MiB
    Density: 120.39 MiB
      Arrays: 38.89 MiB
      Localized functions: 66.67 MiB
      Mixer: 14.83 MiB
    Hamiltonian: 30.70 MiB
      Arrays: 25.43 MiB
      XC: 0.00 MiB
      Poisson: 0.00 MiB
      vbar: 5.27 MiB
    Wavefunctions: 279.67 MiB
      Arrays psit_nG: 130.52 MiB
      Eigensolver: 145.65 MiB
      Projections: 0.06 MiB
      Projectors: 3.44 MiB

Total number of cores used: 24
Parallelization over k-points: 8
Domain decomposition: 1 x 1 x 3

Number of atoms: 47
Number of atomic orbitals: 170
Number of bands in calculation: 44
Number of valence electrons: 66
Bands to converge: 34

... initialized

Initializing position-dependent things.

Density initialized from atomic densities
Creating initial wave functions:
  44 bands from LCAO basis set

       .-----------------------.  
      /|                       |  
     / |                       |  
    /  |                       |  
   /   |                       |  
  /    |                       |  
 *     |                       |  
 |     |                     H |  
 |     |                       |  
 |     |                       |  
 |H  H |                H      |  
 |C    |                       |  
 |     |                       |  
 | H   |       Li      LHC     |  
 |     |                 O     |  
 |     |     Li      Li      Li|  
 |  N  |                       |  
 | N   |  LLi     LLi     Li   |  
 |     |                   Li  |  
 |     |Li      Li      LLi    |  
 |   Li|     Li      Li        |  
 |    Li  Li  Li  Li  Li  Li   |  
 | Li  |   Li      Li          |  
 |     |Li      Li      Li     |  
 Li    | Li      Li            |  
 |    Li      Li      Li       |  
 |     |                       |  
 |     |                       |  
 |     |                       |  
 |     |                       |  
 |     |                       |  
 |     |                       |  
 |     .-----------------------.  
 |    /                       /   
 |   /                       /    
 |  /                       /     
 | /                       /      
 |/                       /       
 *-----------------------*        

Positions:
   0 Li     1.617037    1.617037   10.000000    ( 0.0000,  0.0000,  0.0000)
   1 Li     4.851111    1.617037   10.000000    ( 0.0000,  0.0000,  0.0000)
   2 Li     8.085185    1.617037   10.000000    ( 0.0000,  0.0000,  0.0000)
   3 Li     1.617037    4.851111   10.000000    ( 0.0000,  0.0000,  0.0000)
   4 Li     4.851111    4.851111   10.000000    ( 0.0000,  0.0000,  0.0000)
   5 Li     8.085185    4.851111   10.000000    ( 0.0000,  0.0000,  0.0000)
   6 Li     1.617037    8.085185   10.000000    ( 0.0000,  0.0000,  0.0000)
   7 Li     4.851111    8.085185   10.000000    ( 0.0000,  0.0000,  0.0000)
   8 Li     8.085185    8.085185   10.000000    ( 0.0000,  0.0000,  0.0000)
   9 Li     0.000000    0.000000   11.617037    ( 0.0000,  0.0000,  0.0000)
  10 Li     3.234074    0.000000   11.617037    ( 0.0000,  0.0000,  0.0000)
  11 Li     6.468148    0.000000   11.617037    ( 0.0000,  0.0000,  0.0000)
  12 Li     0.000000    3.234074   11.617037    ( 0.0000,  0.0000,  0.0000)
  13 Li     3.234074    3.234074   11.617037    ( 0.0000,  0.0000,  0.0000)
  14 Li     6.468148    3.234074   11.617037    ( 0.0000,  0.0000,  0.0000)
  15 Li     0.000000    6.468148   11.617037    ( 0.0000,  0.0000,  0.0000)
  16 Li     3.234074    6.468148   11.617037    ( 0.0000,  0.0000,  0.0000)
  17 Li     6.468148    6.468148   11.617037    ( 0.0000,  0.0000,  0.0000)
  18 Li     1.635430    1.569765   13.374203    ( 0.0000,  0.0000,  0.0000)
  19 Li     4.817921    1.612823   13.475541    ( 0.0000,  0.0000,  0.0000)
  20 Li     8.018580    1.567118   13.370818    ( 0.0000,  0.0000,  0.0000)
  21 Li     1.708594    4.958992   13.339612    ( 0.0000,  0.0000,  0.0000)
  22 Li     4.838623    4.899347   13.465364    ( 0.0000,  0.0000,  0.0000)
  23 Li     7.971657    4.963863   13.331187    ( 0.0000,  0.0000,  0.0000)
  24 Li     1.610431    8.098595   13.474422    ( 0.0000,  0.0000,  0.0000)
  25 Li     4.847987    8.044793   13.438161    ( 0.0000,  0.0000,  0.0000)
  26 Li     8.072153    8.093922   13.469847    ( 0.0000,  0.0000,  0.0000)
  27 Li    -0.065989    0.046151   15.405943    ( 0.0000,  0.0000,  0.0000)
  28 Li     3.280398   -0.085714   15.398827    ( 0.0000,  0.0000,  0.0000)
  29 Li     6.381722   -0.040447   15.377692    ( 0.0000,  0.0000,  0.0000)
  30 Li    -0.101736    3.401331   15.021838    ( 0.0000,  0.0000,  0.0000)
  31 Li     3.273466    3.309862   15.375597    ( 0.0000,  0.0000,  0.0000)
  32 Li     6.407592    3.263953   15.313099    ( 0.0000,  0.0000,  0.0000)
  33 Li    -0.003412    6.507202   15.376582    ( 0.0000,  0.0000,  0.0000)
  34 Li     3.234679    6.483762   15.413811    ( 0.0000,  0.0000,  0.0000)
  35 Li     6.486387    6.473274   15.423091    ( 0.0000,  0.0000,  0.0000)
  36 O     -0.157625    1.398361   19.396116    ( 0.0000,  0.0000,  0.0000)
  37 C     -0.072891    0.665964   20.619236    ( 0.0000,  0.0000,  0.0000)
  38 C      0.009873    1.537970   21.859000    ( 0.0000,  0.0000,  0.0000)
  39 H     -0.913978   -0.031211   20.696138    ( 0.0000,  0.0000,  0.0000)
  40 H      0.832635    0.070015   20.506854    ( 0.0000,  0.0000,  0.0000)
  41 H      0.079898    0.895663   22.737050    ( 0.0000,  0.0000,  0.0000)
  42 H      0.879856    2.193152   21.831775    ( 0.0000,  0.0000,  0.0000)
  43 H     -0.879584    2.161652   21.967769    ( 0.0000,  0.0000,  0.0000)
  44 H     -0.921520    1.983809   19.424630    ( 0.0000,  0.0000,  0.0000)
  45 N      0.364014    1.695928   16.391514    ( 0.0000,  0.0000,  0.0000)
  46 N      0.551292    2.680438   16.925213    ( 0.0000,  0.0000,  0.0000)

Unit cell:
           periodic     x           y           z      points  spacing
  1. axis:    yes    9.702222    0.000000    0.000000    60     0.1617
  2. axis:    yes    0.000000    9.702222    0.000000    60     0.1617
  3. axis:    no     0.000000    0.000000   26.351111   164     0.1607

  Lengths:   9.702222   9.702222  26.351111
  Angles:   90.000000  90.000000  90.000000

Effective grid spacing dv^(1/3) = 0.1614

     iter     time        total  log10-change:
                         energy  eigst   dens
iter:   1 10:34:39  -564.170030  +1.27
iter:   2 10:37:21   -59.473341  +2.53  -0.01
iter:   3 10:40:00     5.092010  +3.28  -0.16
iter:   4 10:42:44  -181.680427  +3.14  -0.23
iter:   5 10:45:17  -216.690189  +2.67  -0.26
iter:   6 10:47:50  -283.778352  +2.51  -0.57
iter:   7 10:50:31  -300.448362  +2.17  -0.60
iter:   8 10:53:12  -313.914775  +1.95  -0.58
iter:   9 10:55:53  -336.230751  +2.10  -0.57
iter:  10 10:58:35  -320.779350  +1.60  -0.59
iter:  11 11:01:20  -332.737191  +1.24  -0.69
iter:  12 11:04:13  -322.918121  +0.95  -0.67
iter:  13 11:06:49  -321.288118  +0.83  -0.75
iter:  14 11:09:33  -338.362746  +1.30  -0.73
iter:  15 11:12:07  -320.835519  +0.62  -0.57
iter:  16 11:14:44  -318.368447  +0.74  -0.71
iter:  17 11:17:30  -317.206956  +0.52  -0.77
iter:  18 11:20:17  -314.072651  +0.93  -0.78
iter:  19 11:22:54  -311.713511  +0.22  -0.85
iter:  20 11:25:37  -311.118531  +0.09  -0.88
iter:  21 11:28:18  -312.859962  +0.50  -0.90
iter:  22 11:30:55  -308.677611  +0.74  -0.90
iter:  23 11:33:30  -308.865635  +0.41  -1.12
iter:  24 11:36:06  -309.328763  -0.09  -1.14
iter:  25 11:38:44  -308.939036  +0.28  -1.17
iter:  26 11:41:27  -308.833480  +0.44  -1.21
iter:  27 11:44:11  -308.694048  -0.51  -1.31
iter:  28 11:46:49  -308.681893  +0.26  -1.37
iter:  29 11:49:25  -308.546364  -0.39  -1.54
iter:  30 11:52:09  -308.577726  -0.60  -1.80
iter:  31 11:54:58  -308.569823c -0.97  -1.83
iter:  32 11:57:36  -308.557841c -1.18  -1.87
iter:  33 12:00:16  -308.553554c -1.16  -1.95
iter:  34 12:02:55  -308.558454c -1.26  -2.19
iter:  35 12:05:49  -308.560343c -1.58  -2.27
iter:  36 12:08:27  -308.561619c -1.59  -2.29
iter:  37 12:11:12  -308.563683c -1.80  -2.45
iter:  38 12:13:49  -308.565839c -1.88  -2.48
iter:  39 12:16:30  -308.566780c -2.13  -2.60
iter:  40 12:19:07  -308.567916c -1.98  -2.63
iter:  41 12:21:48  -308.569258c -2.06  -2.55
iter:  42 12:24:24  -308.570070c -2.13  -2.59
iter:  43 12:27:10  -308.571316c -2.26  -2.56
iter:  44 12:29:53  -308.571233c -2.23  -2.50
iter:  45 12:32:32  -308.571456c -2.26  -2.56
iter:  46 12:35:15  -308.571233c -2.43  -2.61
iter:  47 12:37:50  -308.571414c -2.63  -2.77
iter:  48 12:40:31  -308.571605c -2.66  -2.87
iter:  49 12:43:17  -308.571743c -2.95  -2.92
iter:  50 12:45:57  -308.571950c -2.84  -2.97
iter:  51 12:48:40  -308.572076c -3.00  -3.14
iter:  52 12:51:23  -308.572145c -3.17  -3.22
iter:  53 12:53:59  -308.572167c -3.30  -3.32
iter:  54 12:56:44  -308.572213c -3.11  -3.37
iter:  55 12:59:24  -308.572252c -3.33  -3.45
iter:  56 13:02:04  -308.572290c -3.43  -3.53
iter:  57 13:04:55  -308.572352c -3.41  -3.55
iter:  58 13:07:43  -308.572391c -3.65  -3.79
iter:  59 13:10:23  -308.572426c -3.60  -3.86
iter:  60 13:12:53  -308.572448c -3.64  -3.90
iter:  61 13:15:32  -308.572470c -3.69  -3.95
iter:  62 13:18:10  -308.572488c -3.73  -4.07c
iter:  63 13:20:47  -308.572500c -3.86  -4.06c
iter:  64 13:23:24  -308.572508c -3.90  -4.18c
iter:  65 13:26:08  -308.572516c -3.87  -4.30c
iter:  66 13:28:44  -308.572521c -4.09  -4.34c
iter:  67 13:31:21  -308.572527c -4.13  -4.36c
iter:  68 13:34:00  -308.572531c -4.30  -4.30c
iter:  69 13:36:34  -308.572535c -4.44  -4.28c
iter:  70 13:39:16  -308.572539c -4.24  -4.26c
iter:  71 13:41:54  -308.572540c -4.58  -4.17c
iter:  72 13:44:35  -308.572541c -4.35  -4.24c
iter:  73 13:47:15  -308.572543c -4.56  -4.18c
iter:  74 13:49:50  -308.572548c -4.80  -4.18c
iter:  75 13:52:29  -308.572545c -4.69  -4.10c
iter:  76 13:55:08  -308.572547c -5.02  -4.03c
iter:  77 13:57:50  -308.572552c -4.90  -4.08c
iter:  78 14:00:28  -308.572565c -4.86  -4.11c
iter:  79 14:03:05  -308.572566c -4.95  -4.30c
iter:  80 14:05:49  -308.572563c -4.76  -4.43c
iter:  81 14:08:23  -308.572564c -4.96  -4.49c
iter:  82 14:11:01  -308.572567c -5.27  -4.52c
iter:  83 14:13:38  -308.572567c -5.35  -4.56c
iter:  84 14:16:21  -308.572566c -5.18  -4.63c
iter:  85 14:19:00  -308.572565c -5.56  -4.66c
iter:  86 14:21:35  -308.572565c -5.50  -4.76c
iter:  87 14:24:12  -308.572569c -5.54  -4.82c
iter:  88 14:26:48  -308.572567c -5.74  -4.89c
iter:  89 14:29:22  -308.572567c -5.72  -5.14c
iter:  90 14:31:57  -308.572567c -5.85  -5.20c
iter:  91 14:34:34  -308.572567c -5.88  -5.21c
iter:  92 14:37:13  -308.572567c -5.87  -5.18c
iter:  93 14:39:48  -308.572567c -5.96  -5.31c
iter:  94 14:42:36  -308.572567c -5.96  -5.32c
iter:  95 14:45:12  -308.572568c -5.98  -5.36c
iter:  96 14:47:50  -308.572568c -6.01  -5.40c
iter:  97 14:50:28  -308.572568c -6.14  -5.45c
iter:  98 14:53:08  -308.572568c -6.11  -5.46c
iter:  99 14:55:40  -308.572568c -6.17  -5.51c
iter: 100 14:58:18  -308.572568c -6.41  -5.54c
iter: 101 15:00:51  -308.572568c -6.30  -5.60c
iter: 102 15:03:33  -308.572568c -6.37  -5.74c
iter: 103 15:06:16  -308.572568c -6.34  -5.81c
iter: 104 15:08:49  -308.572568c -6.62  -5.91c
iter: 105 15:11:31  -308.572568c -6.68  -6.13c
iter: 106 15:14:20  -308.572568c -6.73  -6.14c
iter: 107 15:16:58  -308.572568c -6.87  -6.20c
iter: 108 15:19:39  -308.572568c -6.84  -6.01c
iter: 109 15:22:18  -308.572568c -6.70  -5.97c
iter: 110 15:24:57  -308.572568c -6.89  -5.91c
iter: 111 15:27:34  -308.572568c -6.98  -5.83c
iter: 112 15:30:12  -308.572568c -7.04  -5.88c
iter: 113 15:32:49  -308.572568c -7.00  -5.79c
iter: 114 15:35:34  -308.572568c -7.09  -5.76c
iter: 115 15:38:13  -308.572568c -7.23  -5.76c
iter: 116 15:40:58  -308.572568c -7.00  -5.71c
iter: 117 15:43:34  -308.572568c -7.40  -5.73c
iter: 118 15:46:16  -308.572568c -7.34  -5.58c
iter: 119 15:48:51  -308.572569c -7.29  -5.79c
iter: 120 15:51:34  -308.572569c -7.35  -5.85c
iter: 121 15:54:14  -308.572569c -7.49c -5.92c

Converged after 121 iterations.

Dipole moment: (-5.994126, -7.330860, 0.250739) |e|*Ang

Energy contributions relative to reference atoms: (reference = -14434.854043)

Kinetic:       +155.570121
Potential:     -148.507146
External:        +0.000000
XC:            -316.321199
Entropy (-ST):   -0.145109
Local:           +0.758210
--------------------------
Free energy:   -308.645123
Extrapolated:  -308.572569

Dipole-layer corrected work functions: 3.386025, 2.904020 eV

Showing only first 2 kpts
 Kpt  Band  Eigenvalues  Occupancy
  0    31     -3.39796    1.98737
  0    32     -3.29445    1.90411
  0    33     -3.02962    0.18091
  0    34     -2.92996    0.02674

  1    31     -3.20232    1.51755
  1    32     -3.15513    1.10078
  1    33     -3.06804    0.35318
  1    34     -2.97296    0.06206


Fermi level: -3.14502

No gap
Writing to top.gpw (mode='all')

Timing:                              incl.     excl.
-----------------------------------------------------------
Hamiltonian:                       121.050     0.000   0.0% |
 Atomic:                             0.186     0.001   0.0% |
  XC Correction:                     0.185     0.185   0.0% |
 Calculate atomic Hamiltonians:      0.541     0.541   0.0% |
 Communicate:                        0.357     0.357   0.0% |
 Hartree integrate/restrict:         0.194     0.194   0.0% |
 Initialize Hamiltonian:             0.000     0.000   0.0% |
 Poisson:                            4.283     1.751   0.0% |
  Communicate from 1D:               0.458     0.458   0.0% |
  Communicate from 2D:               0.461     0.461   0.0% |
  Communicate to 1D:                 0.128     0.128   0.0% |
  Communicate to 2D:                 0.463     0.463   0.0% |
  FFT 1D:                            0.493     0.493   0.0% |
  FFT 2D:                            0.529     0.529   0.0% |
 XC 3D grid:                       115.426    10.485   0.0% |
  VdW-DF integral:                 104.941     0.146   0.0% |
   Convolution:                      5.556     5.556   0.0% |
   FFT:                              0.919     0.919   0.0% |
   gather:                          73.982    73.982   0.3% |
   hmm1:                             1.049     1.049   0.0% |
   hmm2:                             1.084     1.084   0.0% |
   iFFT:                             0.916     0.916   0.0% |
   potential:                        7.408     0.102   0.0% |
    collect:                         0.835     0.835   0.0% |
    p1:                              2.967     2.967   0.0% |
    p2:                              2.167     2.167   0.0% |
    sum:                             1.336     1.336   0.0% |
   splines:                         13.883    13.883   0.1% |
 vbar:                               0.063     0.063   0.0% |
LCAO initialization:                13.491     0.755   0.0% |
 LCAO eigensolver:                   4.137     0.001   0.0% |
  Calculate projections:             0.000     0.000   0.0% |
  DenseAtomicCorrection:             0.000     0.000   0.0% |
  Distribute overlap matrix:         3.901     3.901   0.0% |
  Orbital Layouts:                   0.130     0.130   0.0% |
  Potential matrix:                  0.100     0.100   0.0% |
  Sum over cells:                    0.005     0.005   0.0% |
 LCAO to grid:                       6.072     6.072   0.0% |
 Set positions (LCAO WFS):           2.527     2.022   0.0% |
  Basic WFS set positions:           0.004     0.004   0.0% |
  Basis functions set positions:     0.001     0.001   0.0% |
  P tci:                             0.001     0.001   0.0% |
  ST tci:                            0.339     0.339   0.0% |
  mktci:                             0.161     0.161   0.0% |
SCF-cycle:                       19232.750   194.154   0.7% |
 Davidson:                        5916.864  2369.313   8.6% |--|
  Apply hamiltonian:               368.172   368.172   1.3% ||
  Subspace diag:                   829.587     0.053   0.0% |
   calc_h_matrix:                  510.692   147.158   0.5% |
    Apply hamiltonian:             363.533   363.533   1.3% ||
   diagonalize:                     27.741    27.741   0.1% |
   rotate_psi:                     291.101   291.101   1.1% |
  calc. matrices:                 1777.567  1111.382   4.0% |-|
   Apply hamiltonian:              666.185   666.185   2.4% ||
  diagonalize:                       2.632     2.632   0.0% |
  rotate_psi:                      569.593   569.593   2.1% ||
 Density:                          132.257     0.005   0.0% |
  Atomic density matrices:          38.178    38.178   0.1% |
  Mix:                              38.693    38.693   0.1% |
  Multipole moments:                 0.481     0.481   0.0% |
  Pseudo density:                   54.900    54.896   0.2% |
   Symmetrize density:               0.004     0.004   0.0% |
 Hamiltonian:                    12983.756     0.036   0.0% |
  Atomic:                           19.485     0.306   0.0% |
   XC Correction:                   19.178    19.178   0.1% |
  Calculate atomic Hamiltonians:    60.931    60.931   0.2% |
  Communicate:                      64.035    64.035   0.2% |
  Hartree integrate/restrict:       23.280    23.280   0.1% |
  Poisson:                         506.567   223.410   0.8% |
   Communicate from 1D:             36.016    36.016   0.1% |
   Communicate from 2D:             61.905    61.905   0.2% |
   Communicate to 1D:               14.591    14.591   0.1% |
   Communicate to 2D:               58.415    58.415   0.2% |
   FFT 1D:                          63.090    63.090   0.2% |
   FFT 2D:                          49.140    49.140   0.2% |
  XC 3D grid:                    12304.126  1209.099   4.4% |-|
   VdW-DF integral:              11095.027    25.077   0.1% |
    Convolution:                   679.428   679.428   2.5% ||
    FFT:                           118.560   118.560   0.4% |
    gather:                       8954.008  8954.008  32.5% |------------|
    hmm1:                          120.782   120.782   0.4% |
    hmm2:                          168.220   168.220   0.6% |
    iFFT:                          122.887   122.887   0.4% |
    potential:                     906.065    10.161   0.0% |
     collect:                       83.539    83.539   0.3% |
     p1:                           362.828   362.828   1.3% ||
     p2:                           232.705   232.705   0.8% |
     sum:                          216.832   216.832   0.8% |
    splines:                         0.001     0.001   0.0% |
  vbar:                              5.296     5.296   0.0% |
 Orthonormalize:                     5.720     0.000   0.0% |
  calc_s_matrix:                     0.511     0.511   0.0% |
  inverse-cholesky:                  0.233     0.233   0.0% |
  projections:                       3.949     3.949   0.0% |
  rotate_psi_s:                      1.026     1.026   0.0% |
Set symmetry:                        0.016     0.016   0.0% |
Other:                            8155.254  8155.254  29.6% |-----------|
-----------------------------------------------------------
Total:                                     27522.562 100.0%

Memory usage: 1.91 GiB
Date: Wed Apr  5 18:09:50 2023
