
  ___ ___ ___ _ _ _  
 |   |   |_  | | | | 
 | | | | | . | | | | 
 |__ |  _|___|_____|  22.8.0
 |___|_|             

User:   vazumah@d002
Date:   Fri Mar  3 11:16:31 2023
Arch:   x86_64
Pid:    35441
CWD:    /home/vazumah/Research_Projects/LiMEAS/LiNRR_proton_donors/on_pure_surface/Li_BCC100/adsorbates/butanol_x/bridge/0.0_1.617
Python: 3.10.6
gpaw:   /home/vazumah/anaconda3/envs/NAME/lib/python3.10/site-packages/gpaw
_gpaw:  /home/vazumah/anaconda3/envs/NAME/lib/python3.10/site-packages/
        _gpaw.cpython-310-x86_64-linux-gnu.so
ase:    /home/vazumah/anaconda3/envs/NAME/lib/python3.10/site-packages/ase (version 3.22.1)
numpy:  /home/vazumah/anaconda3/envs/NAME/lib/python3.10/site-packages/numpy (version 1.23.3)
scipy:  /home/vazumah/anaconda3/envs/NAME/lib/python3.10/site-packages/scipy (version 1.9.1)
libxc:  5.2.3
units:  Angstrom and eV
cores: 32
OpenMP: True
OMP_NUM_THREADS: 1

Reading from output.gpw
Reading input parameters:
  h: 0.16
  kpts: {size: [4, 4, 1]}
  occupations: {name: fermi-dirac,
                width: 0.05}
  poissonsolver: {dipolelayer: xy}
  xc: BEEF-vdW

Initialize ...

species:
  Li:
    name: Lithium
    id: 830b4218f175192f93f959cfc0aad614
    Z: 3.0
    valence: 1
    core: 2
    charge: 0.0
    file: /home/vazumah/anaconda3/envs/NAME/share/gpaw/Li.PBE.gz
    compensation charges: {type: gauss,
                           rc: 0.33,
                           lmax: 2}
    cutoffs: {filter: 1.91,
              core: 2.55}
    valence states:
      #              energy  rcut
      - 2s(1.00)    -2.874   1.058
      - 2p(0.00)    -1.090   1.058
      -  s          24.337   1.058
  
    # Using partial waves for Li as LCAO basis

  O:
    name: Oxygen
    id: 32ecd46bf208036f09c70b0ec9a88b78
    Z: 8.0
    valence: 6
    core: 2
    charge: 0.0
    file: /home/vazumah/anaconda3/envs/NAME/share/gpaw/O.PBE.gz
    compensation charges: {type: gauss,
                           rc: 0.21,
                           lmax: 2}
    cutoffs: {filter: 1.17,
              core: 0.83}
    valence states:
      #              energy  rcut
      - 2s(2.00)   -23.961   0.688
      - 2p(4.00)    -9.029   0.598
      -  s           3.251   0.688
      -  p          18.182   0.598
      -  d           0.000   0.619
  
    # Using partial waves for O as LCAO basis

  C:
    name: Carbon
    id: 4aa54d4b901d75f77cc0ea3eec22967b
    Z: 6.0
    valence: 4
    core: 2
    charge: 0.0
    file: /home/vazumah/anaconda3/envs/NAME/share/gpaw/C.PBE.gz
    compensation charges: {type: gauss,
                           rc: 0.20,
                           lmax: 2}
    cutoffs: {filter: 1.14,
              core: 1.14}
    valence states:
      #              energy  rcut
      - 2s(2.00)   -13.751   0.635
      - 2p(2.00)    -5.284   0.635
      -  s          13.461   0.635
      -  p          21.927   0.635
      -  d           0.000   0.635
  
    # Using partial waves for C as LCAO basis

  H:
    name: Hydrogen
    id: d65de229564ff8ea4db303e23b6d1ecf
    Z: 1.0
    valence: 1
    core: 0
    charge: 0.0
    file: /home/vazumah/anaconda3/envs/NAME/share/gpaw/H.PBE.gz
    compensation charges: {type: gauss,
                           rc: 0.15,
                           lmax: 2}
    cutoffs: {filter: 0.85,
              core: 0.53}
    valence states:
      #              energy  rcut
      - 1s(1.00)    -6.494   0.476
      -  s          20.717   0.476
      -  p           0.000   0.476
  
    # Using partial waves for H as LCAO basis

Reference energy: -13576.627914  # eV

Spin-paired calculation

Convergence criteria:
 Maximum [total energy] change in last 3 cyles: 0.0005 eV / electron
 Maximum integral of absolute [dens]ity change: 0.0001 electrons / valence electron
 Maximum integral of absolute [eigenst]ate change: 4e-08 eV^2 / valence electron
 Maximum number of scf [iter]ations: 333
 (Square brackets indicate name in SCF output, whereas a 'c' in
 the SCF output indicates the quantity has converged.)

Symmetries present (total): 1

  ( 1  0  0)
  ( 0  1  0)
  ( 0  0  1)

16 k-points: 4 x 4 x 1 Monkhorst-Pack grid
8 k-points in the irreducible part of the Brillouin zone
       k-points in crystal coordinates                weights
   0:     0.12500000   -0.37500000    0.00000000          2/16
   1:     0.12500000   -0.12500000    0.00000000          2/16
   2:     0.12500000    0.12500000    0.00000000          2/16
   3:     0.12500000    0.37500000    0.00000000          2/16
   4:     0.37500000   -0.37500000    0.00000000          2/16
   5:     0.37500000   -0.12500000    0.00000000          2/16
   6:     0.37500000    0.12500000    0.00000000          2/16
   7:     0.37500000    0.37500000    0.00000000          2/16

Wave functions: Uniform real-space grid
  Kinetic energy operator: 6*3+1=19 point O(h^6) finite-difference Laplacian
  ScaLapack parameters: grid=1x1, blocksize=None
  Wavefunction extrapolation:
    Improved wavefunction reuse through dual PAW basis 

Occupation numbers: Fermi-Dirac:
  width: 0.0500  # eV
 

Eigensolver
   Davidson(niter=2) 

Densities:
  Coarse grid: 60*60*156 grid
  Fine grid: 120*120*312 grid
  Total Charge: 0.000000 

Density mixing:
  Method: separate
  Backend: pulay
  Linear mixing parameter: 0.05
  old densities: 5
  Damping of long wavelength oscillations: 50 

Hamiltonian:
  XC and Coulomb potentials evaluated on a 120*120*312 grid
  Using the BEEF-vdW Exchange-Correlation functional
  Interpolation: tri-quintic (5. degree polynomial)
  Poisson solver: FastPoissonSolver using
    Stencil: 6*3+1=19 point O(h^6) finite-difference Laplacian
    FFT axes: [0, 1]
    FST axes: [2]

Dipole correction along z-axis 

XC parameters: BEEF-vdW with 2 nearest neighbor stencil

Memory estimate:
  Process memory now: 213.42 MiB
  Calculator: 312.18 MiB
    Density: 88.90 MiB
      Arrays: 27.47 MiB
      Localized functions: 50.99 MiB
      Mixer: 10.44 MiB
    Hamiltonian: 21.99 MiB
      Arrays: 17.96 MiB
      XC: 0.00 MiB
      Poisson: 0.00 MiB
      vbar: 4.03 MiB
    Wavefunctions: 201.30 MiB
      Arrays psit_nG: 93.93 MiB
      Eigensolver: 104.68 MiB
      Projections: 0.05 MiB
      Projectors: 2.63 MiB

Total number of cores used: 32
Parallelization over k-points: 8
Domain decomposition: 1 x 1 x 4

Number of atoms: 51
Number of atomic orbitals: 174
Number of bands in calculation: 45
Number of valence electrons: 68
Bands to converge: occupied

... initialized

Initializing position-dependent things.

Creating initial wave functions:
  45 bands from LCAO basis set

       .-----------------------.  
      /|                       |  
     / |                       |  
    /  |                       |  
   /   |                       |  
  /    |                       |  
 *     |                       |  
 |     |                       |  
 |     |                       |  
 |     |                       |  
 |     |                       |  
 |     |          H     H      |  
 |     |    HH LiC  H  LC      Li 
 |O    |      C   H C   H      |  
 |H  Li|     Hi     HLi        |  
 |     |  Li      Li      Li   |  
 | Li  |   Li      Li          |  
 |     |Li      Li      Li     |  
 |     |                       |  
 |   LLi     LLi     LLi       |  
 |     |  Li      Li      Li   |  
 | Li  |   Li      Li          |  
 |     |Li      Li      Li     |  
 Li    | Li      Li            |  
 |    Li      Li      Li       |  
 |     |                       |  
 |     |                       |  
 |     |                       |  
 |     |                       |  
 |     |                       |  
 |     |                       |  
 |     .-----------------------.  
 |    /                       /   
 |   /                       /    
 |  /                       /     
 | /                       /      
 |/                       /       
 *-----------------------*        

Positions:
   0 Li     1.617037    1.617037   10.000000    ( 0.0000,  0.0000,  0.0000)
   1 Li     4.851111    1.617037   10.000000    ( 0.0000,  0.0000,  0.0000)
   2 Li     8.085185    1.617037   10.000000    ( 0.0000,  0.0000,  0.0000)
   3 Li     1.617037    4.851111   10.000000    ( 0.0000,  0.0000,  0.0000)
   4 Li     4.851111    4.851111   10.000000    ( 0.0000,  0.0000,  0.0000)
   5 Li     8.085185    4.851111   10.000000    ( 0.0000,  0.0000,  0.0000)
   6 Li     1.617037    8.085185   10.000000    ( 0.0000,  0.0000,  0.0000)
   7 Li     4.851111    8.085185   10.000000    ( 0.0000,  0.0000,  0.0000)
   8 Li     8.085185    8.085185   10.000000    ( 0.0000,  0.0000,  0.0000)
   9 Li     0.000000    0.000000   11.617037    ( 0.0000,  0.0000,  0.0000)
  10 Li     3.234074    0.000000   11.617037    ( 0.0000,  0.0000,  0.0000)
  11 Li     6.468148    0.000000   11.617037    ( 0.0000,  0.0000,  0.0000)
  12 Li     0.000000    3.234074   11.617037    ( 0.0000,  0.0000,  0.0000)
  13 Li     3.234074    3.234074   11.617037    ( 0.0000,  0.0000,  0.0000)
  14 Li     6.468148    3.234074   11.617037    ( 0.0000,  0.0000,  0.0000)
  15 Li     0.000000    6.468148   11.617037    ( 0.0000,  0.0000,  0.0000)
  16 Li     3.234074    6.468148   11.617037    ( 0.0000,  0.0000,  0.0000)
  17 Li     6.468148    6.468148   11.617037    ( 0.0000,  0.0000,  0.0000)
  18 Li     1.645498    1.627770   13.417692    ( 0.0000,  0.0000,  0.0000)
  19 Li     4.830909    1.605268   13.421885    ( 0.0000,  0.0000,  0.0000)
  20 Li     8.096744    1.632391   13.385271    ( 0.0000,  0.0000,  0.0000)
  21 Li     1.623833    4.855678   13.458456    ( 0.0000,  0.0000,  0.0000)
  22 Li     4.829339    4.890848   13.431325    ( 0.0000,  0.0000,  0.0000)
  23 Li     8.124403    4.861633   13.439511    ( 0.0000,  0.0000,  0.0000)
  24 Li     1.638156    8.021041   13.427064    ( 0.0000,  0.0000,  0.0000)
  25 Li     4.825982    8.061979   13.448309    ( 0.0000,  0.0000,  0.0000)
  26 Li     8.078240    8.014102   13.403554    ( 0.0000,  0.0000,  0.0000)
  27 Li    -0.006253   -0.067918   15.173930    ( 0.0000,  0.0000,  0.0000)
  28 Li     3.168786   -0.018737   15.345472    ( 0.0000,  0.0000,  0.0000)
  29 Li     6.507241   -0.023445   15.243675    ( 0.0000,  0.0000,  0.0000)
  30 Li     0.039812    3.173979   15.331977    ( 0.0000,  0.0000,  0.0000)
  31 Li     3.261694    3.251704   15.355569    ( 0.0000,  0.0000,  0.0000)
  32 Li     6.482831    3.258740   15.242504    ( 0.0000,  0.0000,  0.0000)
  33 Li     0.006111    6.461596   15.404464    ( 0.0000,  0.0000,  0.0000)
  34 Li     3.233222    6.458369   15.438790    ( 0.0000,  0.0000,  0.0000)
  35 Li     6.460577    6.455774   15.373269    ( 0.0000,  0.0000,  0.0000)
  36 O      0.016647    1.717135   18.647072    ( 0.0000,  0.0000,  0.0000)
  37 C     -2.476666    1.599966   18.648841    ( 0.0000,  0.0000,  0.0000)
  38 C     -3.754832    2.438551   18.650522    ( 0.0000,  0.0000,  0.0000)
  39 C     -1.209892    2.456947   18.617583    ( 0.0000,  0.0000,  0.0000)
  40 C     -5.031095    1.602246   18.643942    ( 0.0000,  0.0000,  0.0000)
  41 H     -2.455853    0.953233   19.527157    ( 0.0000,  0.0000,  0.0000)
  42 H     -2.453851    0.939665   17.769163    ( 0.0000,  0.0000,  0.0000)
  43 H     -3.761775    3.103160   17.769057    ( 0.0000,  0.0000,  0.0000)
  44 H     -3.740767    3.101668   19.522512    ( 0.0000,  0.0000,  0.0000)
  45 H     -1.243574    3.105904   17.720891    ( 0.0000,  0.0000,  0.0000)
  46 H     -1.170351    3.126302   19.479820    ( 0.0000,  0.0000,  0.0000)
  47 H     -5.066603    0.958326   17.755484    ( 0.0000,  0.0000,  0.0000)
  48 H     -5.097035    0.967626   19.529479    ( 0.0000,  0.0000,  0.0000)
  49 H     -5.921450    2.234813   18.621982    ( 0.0000,  0.0000,  0.0000)
  50 H      0.093226    1.218652   17.816263    ( 0.0000,  0.0000,  0.0000)

Unit cell:
           periodic     x           y           z      points  spacing
  1. axis:    yes    9.702222    0.000000    0.000000    60     0.1617
  2. axis:    yes    0.000000    9.702222    0.000000    60     0.1617
  3. axis:    no     0.000000    0.000000   24.851111   156     0.1593

  Lengths:   9.702222   9.702222  24.851111
  Angles:   90.000000  90.000000  90.000000

Effective grid spacing dv^(1/3) = 0.1609

     iter     time        total  log10-change:
                         energy  eigst   dens
iter:   1 11:17:20  -322.410799  +1.11
iter:   2 11:17:47  -323.104606  +0.41  -1.74
iter:   3 11:18:15  -323.263348  -0.10  -2.07
iter:   4 11:18:42  -323.322317  -0.51  -2.35
                                                                                                                                                                                                                                                                                                                                                                                                                                                                                                                                                                                                                                                                                                                                                                                                                                                                                                                                                                                                                                                                                                                                                                                                                                                                                                                                                                                                                                                                                                                                                                                                                                                                                                                                                                                                                                                                                                                                                                                                                                                                                                                                                                                                                                                                                                                                                                                                                                                                                                                                                                                                                                                                                                                                                                                                                                                                                                                                                                                                                                                                                                                                                                                                                                                                                                                                                                                                                                                                                                                                                                                                                                                                                                                                                                                                                                                                                                                                                                                                                                                                                                                                                                                                                                                                                                                                                                                                                                                                                                                                                                                                                                                                                                                                                                                                                                                                                                                                                                                                                                                                                                                                                                                                                                                                                                                                                                                                                                                                                                                                                                                                                                                                                                                                                                                                                                                                                                                                                                                                                                                                                                                                                                                                                                                                                                                                                                                                                                                                                                                                                                                                                                                                                                                                                                                                                                                                                                                                                                                                                                                                                                                                                                                                                                                                                                                                                                                                                                                                                                                                                                                                                                                                                                                                                                                                                                                                                                                                                                                                                                                                                                                                                                                                                                                                                                                                                                                                                                                                                                                                                                                                                                                                                                                                                                                                                                                                                                                                                                                                                                                                                                                                                                                                                                                                                                                                                                                                                                                                                                                                                                                                                                                                                                                                                                                                                                                                                                                                                                                                                                                                                                                                                                                                                                                                                                                                                                                                                                                                                                                                                                                                                                                                                                                                                                                                                                                                                                                                                                                                                                                                                                                                                                                                                                                                                                                                                                                                                                                                                                                                                                                                                                                                                                                                                                                                                                                                                                                                                                                                                                                                                                                                                                                                                                                                                                                                                                                                                                                                                                                                                                                                                                                                                                                                                                                                                                                                                                                                                                                                                                                                                                                                                                                                                                                                                                                                                                                                                                                                                                                                                                                                                                                                                                                                                                                                                                                                                                                                                                                                                                                                                                                                                                                                                                                                                                                                                                                                                                                                                                                                                                                                                                                                                                                                                                                                                                                                                                                                                                                                                                                                                                                                                                                                                                                                                                                                                                                                                                                                                                                                                                                                                                                                                                                                                                                                                                                                                                                                                                                                                                                                                                                                                                                                                                                                                                                                                                                                                                                                                                                                                                                                                                                                                                                                                                                                                                                                                                                                                                                                                                                                                                                                                                                                                                                                                                                                                                                                                                                                                                                                                                                                                                                                                                                                                                                                                                                                                                                                                                                                                                                                                                                                                                                                                                                                                                                                                                                                                                                                                                                                                                                                                                                                                                                                                                                                                                                                                                                                                                                                                                                                                                                                                                                                                                                                                                                                                                                                                                                                                                                                                                                                                                                                                                                                                                                                                                                                                                                                                                                                                                                                                                                                                                                                                                                                                                                                                                                                                                                                                                                                                                                                                                                                                                                                                                                                                                                                                                                                                                                                                                                                                                                                                                                                                                                                                                                                                                                                                                                                                                                                                                                                                                                                                                                                                                                                                                                                                                                                                                                                                                                                                                                                                                                                                                                                                                                                                                                                                                                                                                                                                                                                                                                                                                                                                                                                                                                                                                                                                                                                                                                                                                                                                                                                                                                                                                                                                                                                                                                                                                                                                                                                                                                                                                                                                                                                                                                                                                                                                                                                                                                                                                                                                                                                                                                                                                                                                                                                                                                                                                                                                                                                                                                                                                                                                                                                                                                                                                                                                                                                                                                                                                                                                                                                                                                                                                                                                                                                                                                                                                                                                                                                                                                                                                                                                                                                                                                                                                                                                                                                                                                                                                                                                                                                                                                                                                                                                                                                                                                                                                                                                                                                                                                                                                                                                                                                                                                                                                                                                                                                                                                                                                                                                                                                                                                                                                                                                                                                                                                                                                                                                                                                                                                                                                                                                                                                                                                                                                                                                                                                                                                                                                                                                                                                                                                                                                                                                                                                                                                                                                                                                                                                                                                                                                                                                                                                                                                                                                                                                                                                                                                                                                                                                                                                                                                                                                                                                                                                                                                                                                                                                                                                                                                                                                                                                                                                                                                                                                                                                                                                                                                                                                                                                                                                                                                                                                                                                                                                                                                                                                                                                                                                                                                                                                                                                                                                                                                                                                                                                                                                                                                                                                                                                                                                                                                                                                                                                                                                                                                                                                                                                                                                                                                                                                                                                                                                                                                                                                                                                                                                                                                                                                                                                                                                                                                                                                                                                                                                                                                                                                                                                                                                                                                                                                                                                                                                                                                                                                                                                                                                                                                                                                                                                                                                                                                                                                                                                                                                                                                                                                                                                                                                                                                                                                                                                                                                                                                                                                                                                                                                                                                                                                                                                                                                                                                                                                                                                                                                                                                                                                                                                                                                                                                                                                                                                                                                                                                                                                                                                                                                                                                                                                                                                                                                                                                                                                                                                                                                                                                                                                                                                                                                                                                                                                                                                                                                                                                                                                                                                                                                                                                                                                                                                                                                                                                                                                                                                                                                                                                                                                                                                                                                                                                                                                                                                                                                                                                                                                                                                                                                                                                                                                                                                                                                                                                                                                                                                                                                                                                                                                                                                                                                                                                                                                                                                                                                                                                                                                                                                                                                                                                                                                                                                                                                                                                                                                                                                                                                                                                                                                                                                                                                                                                                                                                                                                                                                                                                                                                                                                                                                                                                                                                                                                                                                                                                                                                                                                                                                                                                                                                                                                                                                                                                                                                                                                                                                                                                                                                                                                                                                                                                                                                                                                                                                                                                                                                                                                                                                                                                                                                                                                                                                                                                                                                                                                                                                                                                                                                                                                                                                                                                                                                                                                                                                                                                                                                                                                                                                                                                                                                                                                                                                                                                                                                                                                                                                                                                                                                                                                                                                                                                                                                                                                                                                                                                                                                                                                                                                                                                                                                                                                                                                                                                                                                                                                                                                                                                                                                                                                                                                                                                                                                                                                                                                                                                                                                                                                                                                                                                                                                                                                                                                                                                                                                                                                                                                                                                                                                                                                                                                                                                                                                                                                                                                                                                                                                                                                                                                                                                                                                                                                                                                                                                                                                                                                                                                                                                                                                                                                                                                                                                                                                                                                                                                                                                                                                                                                                                                                                                                                                                                                                                                                                                                                                                                                                                                                                                                                                                                                                                                                                                                                                                                                                                                                                                                                                                                                                                                                                                                                                                                                                                                                                                                                                                                                                                                                                                                                                                                                                                                                                                                                                                                                                                                                                                                                                                                                                                                                                                                                                                                                                                                                                                                                                                                                                                                                                                                                                                                                                                                                                                                                                                                                                                                                                                                                                                                                                                                                                                                                                                                                                                                                                                                                                                                                                                                                                                                                                                                                                                                                                                                                                                                                                                                                                                                                                                                                                                                                                                                                                                                                                                                                                                                                                                                                                                                                                                                                                                                                                                                                                                                                                                                                                                                                                                                                                                                                                                                                                                                                                                                                                                                                                                                                                                                                                                                                                                                                                                                                                                                                                                                                                                                                                                                                                                                                                                                                                                                                                                                                                                                                                                                                                                                                                                                                                                                                                                                                                                                                                                                                                                                                                                                                                                                                                                                                                                                                                                                                                                                                                                                                                                                                                                                                                                                                                                                                                                                                                                                                                                                                                                                                                                                                                                                                                                                                                                                                                                                                                                                                                                                                                                                                                                                                                                                                                                                                                                                                                                                                                                                                                                                                                                                                                                                                                                                                                                                                                                                                                                                                                                                                                                                                                                                                                                                                                                                                                                                                                                                                                                                                                                                                                                                                                                                                                                                                                                                                                                                                                                                                                                                                                                                                                                                                                                                                                                                                                                                                                                                                                                                                                                                                                                                                                                                                                                                                                                                                                                                                                                                                                                                                                                                                                                                                                                                                                                                                                                                                                                                                                                                                                                                                                                                                                                                                                                                                                                                                                                                                                                                                                                                                                                                                                                                                                                                                                                                                                                                                                                                                                                                                                                                                                                                                                                                                                                                                                                                                                                                                                                                                                                                                                                                                                                                                                                                                                                                                                                                                                                                                                                                                                                                                                                                                                                                                                                                                                                                                                                                                                                                                                                                                                                                                                                                                                                                                                                                                                                                                                                                                                                                                                                                                                                                                                                                                                                                                                                                                                                                                                                                                                                                                                                                                                                                                                                                                                                                                                                                                                                                                                                                                                                                                                                                                                                                                                                                                                                                                                                                                                                                                                                                                                                                                                                                                                                                                                                                                                                                                                                                                                                                                                                                                                                                                                                                                                                                                                                                                                                                                                                                                                                                                                                                                                                                                                                                                                                                                                                                                                                                                                                                                                                                                                                                                                                                                                                                                                                                                                                                                                                                                                                                                                                                                                                                                                                                                                                                                                                                                                                                                                                                                                                                                                                                                                                                                                                                                                                                                                                                                                                                                                                                                                                                                                                                                                                                                                                                                                                                                                                                                                                                                                                                                                                                                                                                                                                                                                                                                                                                                                                                                                                                                                                                                                                                                                                                                                                                                                                                                                                                                                                                                                                                                                                                                                                                                                                                                                                                                                                                                                                                                                                                                                                                                                                                                                                                                                                                                                                                                                                                                                                                                                                                                                                                                                                                                                                                                                                                                                                                                                                                                                                                                                                                                                                                                                                                                                                                                                                                                                                                                                                                                                                                                                                                                                                                                                                                                                                                                                                                                                                                                                                                                                                                                                                                                                                                                                                                                                                                                                                                                                                                                                                                                                                                                                                                                                                                                                                                                                                                                                                                                                                                                                                                                                                                                                                                                                                                                                                                                                                                                                                                                                                                                                                                                                                                                                                                                                                                       
[...]
  0    34     -3.30496    0.06258
  0    35     -3.22508    0.01299

  1    32     -3.48952    1.12859
  1    33     -3.46792    0.91351
  1    34     -3.43999    0.64949
  1    35     -3.43541    0.61002


Fermi level: -3.47659

No gap
Writing to output.gpw (mode='')


Forces in eV/Ang:
  0 Li   -0.00271   -0.00048   -0.27644
  1 Li   -0.00085    0.00103   -0.27427
  2 Li    0.00413   -0.00053   -0.27829
  3 Li    0.00196   -0.00088   -0.27319
  4 Li    0.00065    0.00250   -0.27759
  5 Li   -0.00201    0.00140   -0.27356
  6 Li    0.00009    0.00194   -0.27724
  7 Li    0.00109   -0.00279   -0.27256
  8 Li   -0.00054   -0.00003   -0.27719
  9 Li    0.00072   -0.00330    0.28261
 10 Li   -0.00225    0.00047    0.26996
 11 Li   -0.00393   -0.00161    0.28212
 12 Li    0.00371    0.00012    0.27926
 13 Li   -0.00008   -0.00001    0.27517
 14 Li   -0.00756    0.00456    0.28747
 15 Li    0.00368   -0.00408    0.26266
 16 Li    0.01573   -0.00491    0.25244
 17 Li   -0.02307   -0.00694    0.26009
 18 Li    0.00143   -0.00017   -0.00816
 19 Li   -0.00262    0.00116   -0.00696
 20 Li    0.00204    0.00166   -0.00798
 21 Li   -0.00035    0.00466   -0.00477
 22 Li   -0.00348    0.00043   -0.00932
 23 Li    0.00462   -0.00060   -0.00527
 24 Li   -0.00141    0.00089    0.00835
 25 Li   -0.00111   -0.00332   -0.00763
 26 Li    0.00316    0.00193    0.00062
 27 Li    0.00037   -0.00214   -0.01057
 28 Li    0.01199    0.01780    0.00014
 29 Li   -0.00866    0.00956   -0.00293
 30 Li    0.00149   -0.00133    0.00393
 31 Li   -0.00904   -0.01487    0.00372
 32 Li    0.01408   -0.01613   -0.00154
 33 Li   -0.00830   -0.00239    0.00047
 34 Li    0.00754   -0.00192   -0.00200
 35 Li   -0.00016    0.00578    0.00184
 36 O     0.03141   -0.00976    0.02449
 37 C    -0.02638   -0.00957   -0.01358
 38 C    -0.01847    0.02567   -0.01055
 39 C    -0.02260   -0.00269   -0.00589
 40 C     0.00763    0.01566   -0.02163
 41 H     0.02369   -0.01213    0.00440
 42 H     0.03485    0.01366   -0.00481
 43 H     0.02443   -0.00560    0.00204
 44 H    -0.01250   -0.00749   -0.00138
 45 H    -0.03992    0.03987    0.00170
 46 H    -0.00434   -0.01343   -0.02751
 47 H     0.02610    0.00314    0.03182
 48 H    -0.03070   -0.00361   -0.00468
 49 H     0.00542   -0.01835    0.02412
 50 H     0.00926   -0.02072    0.00802

System changes: positions 

Initializing position-dependent things.

Density initialized from wave functions
       .-----------------------.  
      /|                       |  
     / |                       |  
    /  |                       |  
   /   |                       |  
  /    |                       |  
 *     |                       |  
 |     |                       |  
 |     |                       |  
 |     |                       |  
 |     |          H     H      |  
 |     |     H                 |  
 |     |    H CLiC  H  CH O    Li 
 |     |                       |  
 |H  Li|     Hi     HLi        |  
 |     |  Li      Li      Li   |  
 | Li  |   Li      Li          |  
 |     |Li      Li      Li     |  
 |     |                       |  
 |   LLi     LLi     LLi       |  
 |     |  Li      Li      Li   |  
 | Li  |   Li      Li          |  
 |     |Li      Li      Li     |  
 Li    | Li      Li            |  
 |    Li      Li      Li       |  
 |     |                       |  
 |     |                       |  
 |     |                       |  
 |     |                       |  
 |     |                       |  
 |     |                       |  
 |     .-----------------------.  
 |    /                       /   
 |   /                       /    
 |  /                       /     
 | /                       /      
 |/                       /       
 *-----------------------*        

Positions:
   0 Li     1.617037    1.617037   10.000000    ( 0.0000,  0.0000,  0.0000)
   1 Li     4.851111    1.617037   10.000000    ( 0.0000,  0.0000,  0.0000)
   2 Li     8.085185    1.617037   10.000000    ( 0.0000,  0.0000,  0.0000)
   3 Li     1.617037    4.851111   10.000000    ( 0.0000,  0.0000,  0.0000)
   4 Li     4.851111    4.851111   10.000000    ( 0.0000,  0.0000,  0.0000)
   5 Li     8.085185    4.851111   10.000000    ( 0.0000,  0.0000,  0.0000)
   6 Li     1.617037    8.085185   10.000000    ( 0.0000,  0.0000,  0.0000)
   7 Li     4.851111    8.085185   10.000000    ( 0.0000,  0.0000,  0.0000)
   8 Li     8.085185    8.085185   10.000000    ( 0.0000,  0.0000,  0.0000)
   9 Li     0.000000    0.000000   11.617037    ( 0.0000,  0.0000,  0.0000)
  10 Li     3.234074    0.000000   11.617037    ( 0.0000,  0.0000,  0.0000)
  11 Li     6.468148    0.000000   11.617037    ( 0.0000,  0.0000,  0.0000)
  12 Li     0.000000    3.234074   11.617037    ( 0.0000,  0.0000,  0.0000)
  13 Li     3.234074    3.234074   11.617037    ( 0.0000,  0.0000,  0.0000)
  14 Li     6.468148    3.234074   11.617037    ( 0.0000,  0.0000,  0.0000)
  15 Li     0.000000    6.468148   11.617037    ( 0.0000,  0.0000,  0.0000)
  16 Li     3.234074    6.468148   11.617037    ( 0.0000,  0.0000,  0.0000)
  17 Li     6.468148    6.468148   11.617037    ( 0.0000,  0.0000,  0.0000)
  18 Li     1.626004    1.617697   13.486741    ( 0.0000,  0.0000,  0.0000)
  19 Li     4.839016    1.609218   13.492390    ( 0.0000,  0.0000,  0.0000)
  20 Li     8.078082    1.620160   13.478465    ( 0.0000,  0.0000,  0.0000)
  21 Li     1.623098    4.855881   13.480672    ( 0.0000,  0.0000,  0.0000)
  22 Li     4.840985    4.861356   13.487290    ( 0.0000,  0.0000,  0.0000)
  23 Li     8.087916    4.861119   13.478391    ( 0.0000,  0.0000,  0.0000)
  24 Li     1.629929    8.063441   13.462113    ( 0.0000,  0.0000,  0.0000)
  25 Li     4.840817    8.085187   13.495525    ( 0.0000,  0.0000,  0.0000)
  26 Li     8.073644    8.059968   13.462138    ( 0.0000,  0.0000,  0.0000)
  27 Li    -0.005491   -0.037701   15.341537    ( 0.0000,  0.0000,  0.0000)
  28 Li     3.187244   -0.024280   15.444471    ( 0.0000,  0.0000,  0.0000)
  29 Li     6.485958   -0.025842   15.398780    ( 0.0000,  0.0000,  0.0000)
  30 Li     0.011568    3.230115   15.391441    ( 0.0000,  0.0000,  0.0000)
  31 Li     3.226257    3.253951   15.440091    ( 0.0000,  0.0000,  0.0000)
  32 Li     6.457151    3.265791   15.380812    ( 0.0000,  0.0000,  0.0000)
  33 Li     0.008115    6.471463   15.433617    ( 0.0000,  0.0000,  0.0000)
  34 Li     3.230772    6.465465   15.451210    ( 0.0000,  0.0000,  0.0000)
  35 Li     6.465768    6.463623   15.434528    ( 0.0000,  0.0000,  0.0000)
  36 O     -0.007732    1.848435   18.930856    ( 0.0000,  0.0000,  0.0000)
  37 C     -2.478336    1.656782   19.055213    ( 0.0000,  0.0000,  0.0000)
  38 C     -3.798795    2.434323   19.079323    ( 0.0000,  0.0000,  0.0000)
  39 C     -1.248876    2.563184   19.002443    ( 0.0000,  0.0000,  0.0000)
  40 C     -5.029316    1.527019   19.141721    ( 0.0000,  0.0000,  0.0000)
  41 H     -2.407175    1.009353   19.934872    ( 0.0000,  0.0000,  0.0000)
  42 H     -2.467531    0.993296   18.179195    ( 0.0000,  0.0000,  0.0000)
  43 H     -3.869521    3.071549   18.185718    ( 0.0000,  0.0000,  0.0000)
  44 H     -3.806130    3.120674   19.933126    ( 0.0000,  0.0000,  0.0000)
  45 H     -1.331490    3.257357   18.152149    ( 0.0000,  0.0000,  0.0000)
  46 H     -1.183438    3.167512   19.911233    ( 0.0000,  0.0000,  0.0000)
  47 H     -5.062403    0.854006   18.277403    ( 0.0000,  0.0000,  0.0000)
  48 H     -5.011404    0.909525   20.043481    ( 0.0000,  0.0000,  0.0000)
  49 H     -5.958748    2.103746   19.142981    ( 0.0000,  0.0000,  0.0000)
  50 H      0.062786    1.454637   18.048459    ( 0.0000,  0.0000,  0.0000)

Unit cell:
           periodic     x           y           z      points  spacing
  1. axis:    yes    9.702222    0.000000    0.000000    60     0.1617
  2. axis:    yes    0.000000    9.702222    0.000000    60     0.1617
  3. axis:    no     0.000000    0.000000   24.851111   156     0.1593

  Lengths:   9.702222   9.702222  24.851111
  Angles:   90.000000  90.000000  90.000000

Effective grid spacing dv^(1/3) = 0.1609

     iter     time        total  log10-change:
                         energy  eigst   dens
iter:   1 22:32:49  -323.465452  -1.62
iter:   2 22:33:14  -323.449371  -2.23  -1.95
iter:   3 22:33:40  -323.446205c -3.47  -2.27
iter:   4 22:34:06  -323.444861c -2.83  -2.55
Writing to output.gpw (mode='')

iter:   5 22:34:32  -323.444998c -3.59  -3.02
iter:   6 22:34:57  -323.444758c -3.25  -2.87
iter:   7 22:35:23  -323.444814c -2.81  -3.11
iter:   8 22:35:49  -323.444754c -4.01  -3.20
iter:   9 22:36:14  -323.444747c -4.32  -3.53
Writing to output.gpw (mode='')

iter:  10 22:36:40  -323.444829c -3.57  -3.47
iter:  11 22:37:06  -323.444792c -4.48  -3.31
iter:  12 22:37:31  -323.444745c -4.37  -3.43
iter:  13 22:37:57  -323.444745c -5.01  -3.88
iter:  14 22:38:23  -323.444746c -5.11  -3.94
Writing to output.gpw (mode='')

iter:  15 22:38:49  -323.444744c -5.31  -4.00c
iter:  16 22:39:15  -323.444740c -5.31  -4.13c
iter:  17 22:39:40  -323.444741c -6.00  -4.18c
iter:  18 22:40:06  -323.444744c -5.98  -4.23c
iter:  19 22:40:32  -323.444743c -6.52  -4.36c
Writing to output.gpw (mode='')

iter:  20 22:40:58  -323.444742c -6.46  -4.42c
iter:  21 22:41:23  -323.444744c -6.41  -4.50c
iter:  22 22:41:49  -323.444744c -6.88  -4.64c
iter:  23 22:42:15  -323.444744c -6.70  -4.81c
iter:  24 22:42:40  -323.444744c -7.11  -4.89c
Writing to output.gpw (mode='')

iter:  25 22:43:06  -323.444745c -7.11  -5.10c
iter:  26 22:43:32  -323.444744c -7.36  -5.15c
iter:  27 22:43:58  -323.444745c -7.24  -5.27c
iter:  28 22:44:24  -323.444745c -7.74c -5.29c

Converged after 28 iterations.

Dipole moment: (-6.439703, -2.686273, -0.086666) |e|*Ang

Energy contributions relative to reference atoms: (reference = -13576.627914)

Kinetic:       +162.031627
Potential:     -156.351622
External:        +0.000000
XC:            -329.375002
Entropy (-ST):   -0.151894
Local:           +0.326199
--------------------------
Free energy:   -323.520692
Extrapolated:  -323.444745

Dipole-layer corrected work functions: 3.392795, 3.559398 eV

Showing only first 2 kpts
 Kpt  Band  Eigenvalues  Occupancy
  0    32     -3.73189    1.98807
  0    33     -3.65070    1.94092
  0    34     -3.30394    0.06195
  0    35     -3.22600    0.01336

  1    32     -3.48848    1.12325
  1    33     -3.46694    0.90870
  1    34     -3.43941    0.64872
  1    35     -3.43486    0.60949


Fermi level: -3.47610

No gap
Writing to output.gpw (mode='')


Forces in eV/Ang:
  0 Li   -0.00271   -0.00047   -0.27643
  1 Li   -0.00089    0.00106   -0.27413
  2 Li    0.00413   -0.00048   -0.27834
  3 Li    0.00199   -0.00086   -0.27304
  4 Li    0.00058    0.00257   -0.27764
  5 Li   -0.00202    0.00138   -0.27338
  6 Li   -0.00000    0.00198   -0.27738
  7 Li    0.00107   -0.00285   -0.27247
  8 Li   -0.00045   -0.00001   -0.27734
  9 Li    0.00132   -0.00406    0.28224
 10 Li   -0.00269   -0.00053    0.26899
 11 Li   -0.00392   -0.00238    0.28175
 12 Li    0.00454    0.00059    0.27752
 13 Li    0.00004    0.00070    0.27350
 14 Li   -0.00808    0.00544    0.28651
 15 Li    0.00437   -0.00439    0.26108
 16 Li    0.01492   -0.00488    0.25057
 17 Li   -0.02279   -0.00730    0.25887
 18 Li    0.00054   -0.00048   -0.00718
 19 Li   -0.00199    0.00189   -0.00653
 20 Li    0.00214    0.00072   -0.00665
 21 Li   -0.00029    0.00471   -0.00396
 22 Li   -0.00241   -0.00142   -0.00682
 23 Li    0.00339   -0.00025   -0.00443
 24 Li   -0.00041    0.00145    0.00767
 25 Li   -0.00096   -0.00262   -0.00666
 26 Li    0.00217    0.00268    0.00075
 27 Li    0.00055   -0.00203   -0.00888
 28 Li    0.01219    0.01651    0.00076
 29 Li   -0.00923    0.00809   -0.00186
 30 Li    0.00207   -0.00024    0.00494
 31 Li   -0.00944   -0.01408    0.00355
 32 Li    0.01324   -0.01453   -0.00173
 33 Li   -0.00821   -0.00293    0.00078
 34 Li    0.00711   -0.00142   -0.00281
 35 Li    0.00020    0.00584    0.00169
 36 O     0.02486   -0.00473    0.02094
 37 C    -0.01415   -0.01036   -0.03518
 38 C    -0.02604    0.03258   -0.01720
 39 C    -0.00531    0.02480   -0.00437
 40 C    -0.00936   -0.01754   -0.00146
 41 H     0.01254   -0.01483    0.01150
 42 H     0.02713   -0.00021   -0.00344
 43 H     0.02859   -0.00856    0.00500
 44 H     0.00479    0.00824    0.01539
 45 H    -0.03166    0.02706    0.00340
 46 H    -0.00656   -0.00556   -0.01499
 47 H     0.02535   -0.00290    0.03623
 48 H    -0.03549   -0.01062   -0.00774
 49 H     0.01774   -0.01285    0.02128
 50 H    -0.00006   -0.01703    0.00306

Timing:                                      incl.     excl.
-------------------------------------------------------------------
Density initialized from wave functions:    18.319    18.317   0.0% |
 Symmetrize density:                         0.002     0.002   0.0% |
Forces:                                    209.015   209.015   0.3% |
Hamiltonian:                              1204.496     0.016   0.0% |
 Atomic:                                     6.192     0.063   0.0% |
  XC Correction:                             6.129     6.129   0.0% |
 Calculate atomic Hamiltonians:              4.449     4.449   0.0% |
 Communicate:                                9.123     9.123   0.0% |
 Hartree integrate/restrict:                 4.985     4.985   0.0% |
 Initialize Hamiltonian:                     0.000     0.000   0.0% |
 Poisson:                                  115.550    55.660   0.1% |
  Communicate from 1D:                       6.869     6.869   0.0% |
  Communicate from 2D:                      11.633    11.633   0.0% |
  Communicate to 1D:                         2.616     2.616   0.0% |
  Communicate to 2D:                        12.468    12.468   0.0% |
  FFT 1D:                                   12.048    12.048   0.0% |
  FFT 2D:                                   14.257    14.257   0.0% |
 XC 3D grid:                              1063.219   273.050   0.4% |
  VdW-DF integral:                         790.169     7.903   0.0% |
   Convolution:                            106.252   106.252   0.2% |
   FFT:                                     38.589    38.589   0.1% |
   gather:                                 301.000   301.000   0.4% |
   hmm1:                                    27.681    27.681   0.0% |
   hmm2:                                    36.757    36.757   0.1% |
   iFFT:                                    38.735    38.735   0.1% |
   potential:                              225.777     5.243   0.0% |
    collect:                                20.334    20.334   0.0% |
    p1:                                    104.750   104.750   0.2% |
    p2:                                     51.737    51.737   0.1% |
    sum:                                    43.713    43.713   0.1% |
   splines:                                  7.475     7.475   0.0% |
 vbar:                                       0.961     0.961   0.0% |
LCAO initialization:                         4.875     0.235   0.0% |
 LCAO eigensolver:                           1.622     0.001   0.0% |
  Calculate projections:                     0.000     0.000   0.0% |
  DenseAtomicCorrection:                     0.000     0.000   0.0% |
  Distribute overlap matrix:                 1.576     1.576   0.0% |
  Orbital Layouts:                           0.043     0.043   0.0% |
  Potential matrix:                          0.001     0.001   0.0% |
  Sum over cells:                            0.001     0.001   0.0% |
 LCAO to grid:                               2.343     2.343   0.0% |
 Set positions (LCAO WFS):                   0.675     0.483   0.0% |
  Basic WFS set positions:                   0.003     0.003   0.0% |
  Basis functions set positions:             0.000     0.000   0.0% |
  P tci:                                     0.001     0.001   0.0% |
  ST tci:                                    0.112     0.112   0.0% |
  mktci:                                     0.076     0.076   0.0% |
Redistribute:                                0.062     0.062   0.0% |
SCF-cycle:                               66135.430   607.911   0.9% |
 Davidson:                               28370.202 10769.689  15.8% |-----|
  Apply hamiltonian:                      2305.712  2305.712   3.4% ||
  Subspace diag:                          4413.897     0.574   0.0% |
   calc_h_matrix:                         2798.919   419.068   0.6% |
    Apply hamiltonian:                    2379.851  2379.851   3.5% ||
   diagonalize:                             37.491    37.491   0.1% |
   rotate_psi:                            1576.912  1576.912   2.3% ||
  calc. matrices:                         8436.910  3251.986   4.8% |-|
   Apply hamiltonian:                     5184.924  5184.924   7.6% |--|
  diagonalize:                              18.347    18.347   0.0% |
  rotate_psi:                             2425.647  2425.647   3.6% ||
 Density:                                  491.009     0.103   0.0% |
  Atomic density matrices:                  18.305    18.305   0.0% |
  Mix:                                     252.562   252.562   0.4% |
  Multipole moments:                         2.235     2.235   0.0% |
  Pseudo density:                          217.804   217.703   0.3% |
   Symmetrize density:                       0.100     0.100   0.0% |
 Hamiltonian:                            36609.588     0.486   0.0% |
  Atomic:                                  184.190     1.985   0.0% |
   XC Correction:                          182.205   182.205   0.3% |
  Calculate atomic Hamiltonians:           128.346   128.346   0.2% |
  Communicate:                             267.567   267.567   0.4% |
  Hartree integrate/restrict:              146.011   146.011   0.2% |
  Poisson:                                3420.022  1640.010   2.4% ||
   Communicate from 1D:                    203.395   203.395   0.3% |
   Communicate from 2D:                    346.850   346.850   0.5% |
   Communicate to 1D:                       77.675    77.675   0.1% |
   Communicate to 2D:                      368.739   368.739   0.5% |
   FFT 1D:                                 355.495   355.495   0.5% |
   FFT 2D:                                 427.859   427.859   0.6% |
  XC 3D grid:                            32433.375  8069.208  11.8% |----|
   VdW-DF integral:                      24364.167   234.207   0.3% |
    Convolution:                          3154.263  3154.263   4.6% |-|
    FFT:                                  1140.361  1140.361   1.7% ||
    gather:                              10061.724 10061.724  14.8% |-----|
    hmm1:                                  823.135   823.135   1.2% |
    hmm2:                                 1092.432  1092.432   1.6% ||
    iFFT:                                 1149.988  1149.988   1.7% ||
    potential:                            6708.027   155.379   0.2% |
     collect:                              597.921   597.921   0.9% |
     p1:                                  3101.263  3101.263   4.6% |-|
     p2:                                  1528.931  1528.931   2.2% ||
     sum:                                 1324.533  1324.533   1.9% ||
    splines:                                 0.030     0.030   0.0% |
  vbar:                                     29.591    29.591   0.0% |
 Orthonormalize:                            56.720     0.023   0.0% |
  calc_s_matrix:                             7.085     7.085   0.0% |
  inverse-cholesky:                         20.021    20.021   0.0% |
  projections:                               0.008     0.008   0.0% |
  rotate_psi_s:                             29.582    29.582   0.0% |
Set symmetry:                                0.004     0.004   0.0% |
Other:                                     526.750   526.750   0.8% |
-------------------------------------------------------------------
Total:                                             68098.953 100.0%

Memory usage: 1.42 GiB
Date: Fri Mar  3 22:44:27 2023
