
  ___ ___ ___ _ _ _  
 |   |   |_  | | | | 
 | | | | | . | | | | 
 |__ |  _|___|_____|  22.8.0
 |___|_|             

User:   vazumah@c19.hercules
Date:   Tue Feb  7 07:19:05 2023
Arch:   x86_64
Pid:    732
CWD:    /home/vazumah/Python_projects/LiNRR/Li_adsorb_studies/proton_donors/ethanol_N2/Li_BCC_100/adsorbates/CH3CH2OH_y/bridge/8.085_1.617/N2_z
Python: 3.10.8
gpaw:   /home/vazumah/.conda/envs/GPAW/lib/python3.10/site-packages/gpaw
_gpaw:  /home/vazumah/.conda/envs/GPAW/lib/python3.10/site-packages/
        _gpaw.cpython-310-x86_64-linux-gnu.so
ase:    /home/vazumah/.conda/envs/GPAW/lib/python3.10/site-packages/ase (version 3.22.1)
numpy:  /home/vazumah/.conda/envs/GPAW/lib/python3.10/site-packages/numpy (version 1.24.1)
scipy:  /home/vazumah/.conda/envs/GPAW/lib/python3.10/site-packages/scipy (version 1.10.0)
libxc:  5.2.3
units:  Angstrom and eV
cores: 24
OpenMP: True
OMP_NUM_THREADS: 1

Input parameters:
  h: 0.16
  kpts: {size: [4, 4, 1]}
  occupations: {name: fermi-dirac,
                width: 0.05}
  poissonsolver: {dipolelayer: xy}
  xc: BEEF-vdW

System changes: positions, numbers, cell, pbc, initial_charges, initial_magmoms 

Initialize ...

species:
  Li:
    name: Lithium
    id: 830b4218f175192f93f959cfc0aad614
    Z: 3.0
    valence: 1
    core: 2
    charge: 0.0
    file: /home/vazumah/.conda/envs/GPAW/share/gpaw/Li.PBE.gz
    compensation charges: {type: gauss,
                           rc: 0.33,
                           lmax: 2}
    cutoffs: {filter: 1.91,
              core: 2.55}
    valence states:
      #              energy  rcut
      - 2s(1.00)    -2.874   1.058
      - 2p(0.00)    -1.090   1.058
      -  s          24.337   1.058
  
    # Using partial waves for Li as LCAO basis

  O:
    name: Oxygen
    id: 32ecd46bf208036f09c70b0ec9a88b78
    Z: 8.0
    valence: 6
    core: 2
    charge: 0.0
    file: /home/vazumah/.conda/envs/GPAW/share/gpaw/O.PBE.gz
    compensation charges: {type: gauss,
                           rc: 0.21,
                           lmax: 2}
    cutoffs: {filter: 1.17,
              core: 0.83}
    valence states:
      #              energy  rcut
      - 2s(2.00)   -23.961   0.688
      - 2p(4.00)    -9.029   0.598
      -  s           3.251   0.688
      -  p          18.182   0.598
      -  d           0.000   0.619
  
    # Using partial waves for O as LCAO basis

  C:
    name: Carbon
    id: 4aa54d4b901d75f77cc0ea3eec22967b
    Z: 6.0
    valence: 4
    core: 2
    charge: 0.0
    file: /home/vazumah/.conda/envs/GPAW/share/gpaw/C.PBE.gz
    compensation charges: {type: gauss,
                           rc: 0.20,
                           lmax: 2}
    cutoffs: {filter: 1.14,
              core: 1.14}
    valence states:
      #              energy  rcut
      - 2s(2.00)   -13.751   0.635
      - 2p(2.00)    -5.284   0.635
      -  s          13.461   0.635
      -  p          21.927   0.635
      -  d           0.000   0.635
  
    # Using partial waves for C as LCAO basis

  H:
    name: Hydrogen
    id: d65de229564ff8ea4db303e23b6d1ecf
    Z: 1.0
    valence: 1
    core: 0
    charge: 0.0
    file: /home/vazumah/.conda/envs/GPAW/share/gpaw/H.PBE.gz
    compensation charges: {type: gauss,
                           rc: 0.15,
                           lmax: 2}
    cutoffs: {filter: 0.85,
              core: 0.53}
    valence states:
      #              energy  rcut
      - 1s(1.00)    -6.494   0.476
      -  s          20.717   0.476
      -  p           0.000   0.476
  
    # Using partial waves for H as LCAO basis

  N:
    name: Nitrogen
    id: f7500608b86eaa90eef8b1d9a670dc53
    Z: 7.0
    valence: 5
    core: 2
    charge: 0.0
    file: /home/vazumah/.conda/envs/GPAW/share/gpaw/N.PBE.gz
    compensation charges: {type: gauss,
                           rc: 0.18,
                           lmax: 2}
    cutoffs: {filter: 1.11,
              core: 0.96}
    valence states:
      #              energy  rcut
      - 2s(2.00)   -18.583   0.603
      - 2p(3.00)    -7.089   0.529
      -  s           8.629   0.603
      -  p          20.123   0.529
      -  d           0.000   0.577
  
    # Using partial waves for N as LCAO basis

Reference energy: -14434.854043  # eV

Spin-paired calculation

Convergence criteria:
 Maximum [total energy] change in last 3 cyles: 0.0005 eV / electron
 Maximum integral of absolute [dens]ity change: 0.0001 electrons / valence electron
 Maximum integral of absolute [eigenst]ate change: 4e-08 eV^2 / valence electron
 Maximum number of scf [iter]ations: 333
 (Square brackets indicate name in SCF output, whereas a 'c' in
 the SCF output indicates the quantity has converged.)

Symmetries present (total): 1

  ( 1  0  0)
  ( 0  1  0)
  ( 0  0  1)

16 k-points: 4 x 4 x 1 Monkhorst-Pack grid
8 k-points in the irreducible part of the Brillouin zone
       k-points in crystal coordinates                weights
   0:     0.12500000   -0.37500000    0.00000000          2/16
   1:     0.12500000   -0.12500000    0.00000000          2/16
   2:     0.12500000    0.12500000    0.00000000          2/16
   3:     0.12500000    0.37500000    0.00000000          2/16
   4:     0.37500000   -0.37500000    0.00000000          2/16
   5:     0.37500000   -0.12500000    0.00000000          2/16
   6:     0.37500000    0.12500000    0.00000000          2/16
   7:     0.37500000    0.37500000    0.00000000          2/16

Wave functions: Uniform real-space grid
  Kinetic energy operator: 6*3+1=19 point O(h^6) finite-difference Laplacian
  ScaLapack parameters: grid=1x1, blocksize=None
  Wavefunction extrapolation:
    Improved wavefunction reuse through dual PAW basis 

Occupation numbers: Fermi-Dirac:
  width: 0.0500  # eV
 

Eigensolver
   Davidson(niter=2) 

Densities:
  Coarse grid: 60*60*156 grid
  Fine grid: 120*120*312 grid
  Total Charge: 0.000000 

Density mixing:
  Method: separate
  Backend: pulay
  Linear mixing parameter: 0.05
  old densities: 5
  Damping of long wavelength oscillations: 50 

Hamiltonian:
  XC and Coulomb potentials evaluated on a 120*120*312 grid
  Using the BEEF-vdW Exchange-Correlation functional
  Interpolation: tri-quintic (5. degree polynomial)
  Poisson solver: FastPoissonSolver using
    Stencil: 6*3+1=19 point O(h^6) finite-difference Laplacian
    FFT axes: [0, 1]
    FST axes: [2]

Dipole correction along z-axis 

XC parameters: BEEF-vdW with 2 nearest neighbor stencil

Memory estimate:
  Process memory now: 219.22 MiB
  Calculator: 411.72 MiB
    Density: 118.00 MiB
      Arrays: 36.75 MiB
      Localized functions: 67.24 MiB
      Mixer: 14.01 MiB
    Hamiltonian: 29.35 MiB
      Arrays: 24.03 MiB
      XC: 0.00 MiB
      Poisson: 0.00 MiB
      vbar: 5.32 MiB
    Wavefunctions: 264.37 MiB
      Arrays psit_nG: 123.27 MiB
      Eigensolver: 137.57 MiB
      Projections: 0.06 MiB
      Projectors: 3.47 MiB

Total number of cores used: 24
Parallelization over k-points: 8
Domain decomposition: 1 x 1 x 3

Number of atoms: 47
Number of atomic orbitals: 170
Number of bands in calculation: 44
Number of valence electrons: 66
Bands to converge: occupied

... initialized

Initializing position-dependent things.

Density initialized from atomic densities
Creating initial wave functions:
  44 bands from LCAO basis set

       .-----------------------.  
      /|                       |  
     / |                       |  
    /  |                       |  
   /   |                       |  
  /    |                       |  
 *     |                       |  
 |     |                       |  
 |     |                       |  
 |   H |              H        |  
 |     |              O H      |  
 |  CHH|                C      |  
 |     |              N H      |  
 |     |                       |  
 |   Li|     Li      LN        |  
 |     |  Li      Li      Li   |  
 | Li  |   Li      Li          |  
 |     |Li      Li      Li     |  
 Li    | Li      Li            |  
 |   LLi     LLi     LLi       |  
 |     |  Li      Li      Li   |  
 | Li  |   Li      Li          |  
 |     |Li      Li      Li     |  
 Li    | Li      Li            |  
 |    Li      Li      Li       |  
 |     |                       |  
 |     |                       |  
 |     |                       |  
 |     |                       |  
 |     |                       |  
 |     |                       |  
 |     .-----------------------.  
 |    /                       /   
 |   /                       /    
 |  /                       /     
 | /                       /      
 |/                       /       
 *-----------------------*        

Positions:
   0 Li     1.617037    1.617037   10.000000    ( 0.0000,  0.0000,  0.0000)
   1 Li     4.851111    1.617037   10.000000    ( 0.0000,  0.0000,  0.0000)
   2 Li     8.085185    1.617037   10.000000    ( 0.0000,  0.0000,  0.0000)
   3 Li     1.617037    4.851111   10.000000    ( 0.0000,  0.0000,  0.0000)
   4 Li     4.851111    4.851111   10.000000    ( 0.0000,  0.0000,  0.0000)
   5 Li     8.085185    4.851111   10.000000    ( 0.0000,  0.0000,  0.0000)
   6 Li     1.617037    8.085185   10.000000    ( 0.0000,  0.0000,  0.0000)
   7 Li     4.851111    8.085185   10.000000    ( 0.0000,  0.0000,  0.0000)
   8 Li     8.085185    8.085185   10.000000    ( 0.0000,  0.0000,  0.0000)
   9 Li     0.000000    0.000000   11.617037    ( 0.0000,  0.0000,  0.0000)
  10 Li     3.234074    0.000000   11.617037    ( 0.0000,  0.0000,  0.0000)
  11 Li     6.468148    0.000000   11.617037    ( 0.0000,  0.0000,  0.0000)
  12 Li     0.000000    3.234074   11.617037    ( 0.0000,  0.0000,  0.0000)
  13 Li     3.234074    3.234074   11.617037    ( 0.0000,  0.0000,  0.0000)
  14 Li     6.468148    3.234074   11.617037    ( 0.0000,  0.0000,  0.0000)
  15 Li     0.000000    6.468148   11.617037    ( 0.0000,  0.0000,  0.0000)
  16 Li     3.234074    6.468148   11.617037    ( 0.0000,  0.0000,  0.0000)
  17 Li     6.468148    6.468148   11.617037    ( 0.0000,  0.0000,  0.0000)
  18 Li     1.617038    1.617038   13.469728    ( 0.0000,  0.0000,  0.0000)
  19 Li     4.851111    1.617038   13.469729    ( 0.0000,  0.0000,  0.0000)
  20 Li     8.085184    1.617038   13.469728    ( 0.0000,  0.0000,  0.0000)
  21 Li     1.617038    4.851111   13.469729    ( 0.0000,  0.0000,  0.0000)
  22 Li     4.851111    4.851111   13.469730    ( 0.0000,  0.0000,  0.0000)
  23 Li     8.085184    4.851111   13.469729    ( 0.0000,  0.0000,  0.0000)
  24 Li     1.617038    8.085184   13.469728    ( 0.0000,  0.0000,  0.0000)
  25 Li     4.851111    8.085184   13.469729    ( 0.0000,  0.0000,  0.0000)
  26 Li     8.085184    8.085184   13.469728    ( 0.0000,  0.0000,  0.0000)
  27 Li    -0.000000   -0.000000   15.445939    ( 0.0000,  0.0000,  0.0000)
  28 Li     3.234074    0.000000   15.445939    ( 0.0000,  0.0000,  0.0000)
  29 Li     6.468148    0.000000   15.445939    ( 0.0000,  0.0000,  0.0000)
  30 Li     0.000000    3.234074   15.445939    ( 0.0000,  0.0000,  0.0000)
  31 Li     3.234076    3.234076   15.445938    ( 0.0000,  0.0000,  0.0000)
  32 Li     6.468146    3.234076   15.445938    ( 0.0000,  0.0000,  0.0000)
  33 Li     0.000000    6.468148   15.445939    ( 0.0000,  0.0000,  0.0000)
  34 Li     3.234076    6.468146   15.445938    ( 0.0000,  0.0000,  0.0000)
  35 Li     6.468146    6.468146   15.445938    ( 0.0000,  0.0000,  0.0000)
  36 O      8.085185    1.617037   20.445939    ( 0.0000,  0.0000,  0.0000)
  37 C      9.267593    0.800279   20.450238    ( 0.0000,  0.0000,  0.0000)
  38 C     10.551807    1.619898   20.435704    ( 0.0000,  0.0000,  0.0000)
  39 H      9.258969    0.116744   21.310398    ( 0.0000,  0.0000,  0.0000)
  40 H      9.192204    0.190554   19.547442    ( 0.0000,  0.0000,  0.0000)
  41 H     11.428734    0.965951   20.420269    ( 0.0000,  0.0000,  0.0000)
  42 H     10.586519    2.268921   19.558886    ( 0.0000,  0.0000,  0.0000)
  43 H     10.621995    2.248385   21.328265    ( 0.0000,  0.0000,  0.0000)
  44 H      8.124352    2.200014   21.214164    ( 0.0000,  0.0000,  0.0000)
  45 N      8.085000    1.617000   17.945939    ( 0.0000,  0.0000,  0.0000)
  46 N      8.085000    1.617000   19.042561    ( 0.0000,  0.0000,  0.0000)

Unit cell:
           periodic     x           y           z      points  spacing
  1. axis:    yes    9.702222    0.000000    0.000000    60     0.1617
  2. axis:    yes    0.000000    9.702222    0.000000    60     0.1617
  3. axis:    no     0.000000    0.000000   24.851111   156     0.1593

  Lengths:   9.702222   9.702222  24.851111
  Angles:   90.000000  90.000000  90.000000

Effective grid spacing dv^(1/3) = 0.1609

     iter     time        total  log10-change:
                         energy  eigst   dens
iter:   1 07:22:24  -645.891036
iter:   2 07:24:52   -15.328780  +2.61  +0.03
iter:   3 07:27:28   120.499591  +3.23  -0.13
iter:   4 07:30:11  -186.411127  +3.43  -0.17
Writing to output.gpw (mode='')

iter:   5 07:32:44  -246.384389  +2.96  -0.13
iter:   6 07:35:16  -277.105828  +2.61  -0.38
iter:   7 07:37:42  -310.791500  +2.33  -0.58
iter:   8 07:40:10  -346.413963  +2.03  -0.59
iter:   9 07:42:46  -431.000217  +2.30  -0.44
Writing to output.gpw (mode='')

iter:  10 07:45:26  -320.642083  +1.44  -0.34
iter:  11 07:47:53  -301.231796  +1.71  -0.63
iter:  12 07:50:23  -302.979709  +1.39  -0.73
iter:  13 07:52:52  -307.011727  +1.21  -0.70
iter:  14 07:55:22  -309.455092  +0.89  -0.68
Writing to output.gpw (mode='')

iter:  15 07:58:02  -305.274665  +0.98  -0.70
iter:  16 08:00:38  -302.621845  +0.99  -0.82
iter:  17 08:03:17  -302.463875  +0.37  -0.85
iter:  18 08:05:54  -300.437680  +0.66  -0.85
iter:  19 08:08:30  -300.398094  +0.52  -1.04
Writing to output.gpw (mode='')

iter:  20 08:10:57  -299.972528  +0.05  -1.13
iter:  21 08:13:28  -299.485871  +0.38  -1.13
iter:  22 08:16:02  -299.477891  +0.13  -1.40
iter:  23 08:18:39  -299.780659  +0.32  -1.47
iter:  24 08:21:11  -299.515814  -0.15  -1.39
Writing to output.gpw (mode='')

iter:  25 08:23:47  -299.505721  -0.54  -1.58
iter:  26 08:26:19  -299.414462  -0.37  -1.61
iter:  27 08:28:53  -299.400190  -0.50  -1.71
iter:  28 08:31:24  -299.397542c -0.80  -1.88
iter:  29 08:33:57  -299.407148c -1.11  -2.00
Writing to output.gpw (mode='')

iter:  30 08:36:29  -299.415969c -1.07  -2.03
iter:  31 08:38:56  -299.421744c -1.24  -2.03
iter:  32 08:41:29  -299.431390c -1.29  -2.07
iter:  33 08:44:01  -299.435718c -1.47  -2.15
iter:  34 08:46:27  -299.440826c -1.49  -2.30
Writing to output.gpw (mode='')

iter:  35 08:48:57  -299.446011c -1.53  -2.44
iter:  36 08:51:21  -299.449992c -1.77  -2.48
iter:  37 08:53:58  -299.455146c -1.41  -2.52
iter:  38 08:56:42  -299.459492c -1.58  -2.64
iter:  39 08:59:13  -299.463381c -1.81  -2.65
Writing to output.gpw (mode='')

iter:  40 09:01:50  -299.465000c -2.01  -2.71
iter:  41 09:04:23  -299.466558c -2.05  -2.84
iter:  42 09:07:05  -299.467989c -2.03  -2.91
iter:  43 09:09:51  -299.469532c -1.98  -3.00
iter:  44 09:12:29  -299.470708c -2.13  -3.07
Writing to output.gpw (mode='')

iter:  45 09:15:03  -299.471895c -2.13  -3.13
iter:  46 09:17:44  -299.472760c -2.40  -3.25
iter:  47 09:20:16  -299.473420c -2.47  -3.21
iter:  48 09:22:51  -299.474177c -2.31  -3.25
iter:  49 09:25:23  -299.474750c -2.52  -3.52
Writing to output.gpw (mode='')

iter:  50 09:27:49  -299.475185c -2.62  -3.47
iter:  51 09:30:20  -299.475588c -2.74  -3.49
iter:  52 09:32:57  -299.475892c -2.82  -3.29
iter:  53 09:35:31  -299.476202c -2.86  -3.34
iter:  54 09:38:00  -299.476431c -2.80  -3.15
Writing to output.gpw (mode='')

iter:  55 09:40:36  -299.476637c -2.83  -3.22
iter:  56 09:43:15  -299.476836c -3.14  -3.31
iter:  57 09:45:45  -299.476997c -3.00  -3.15
iter:  58 09:48:17  -299.477120c -3.05  -3.14
iter:  59 09:50:48  -299.477237c -3.26  -3.15
Writing to output.gpw (mode='')

iter:  60 09:53:15  -299.477327c -3.31  -3.12
iter:  61 09:55:47  -299.477373c -3.01  -3.17
iter:  62 09:58:16  -299.477440c -3.62  -3.37
iter:  63 10:00:56  -299.477480c -3.62  -3.53
iter:  64 10:03:22  -299.477517c -3.59  -3.57
Writing to output.gpw (mode='')

iter:  65 10:05:59  -299.477567c -3.63  -3.68
iter:  66 10:08:28  -299.477594c -3.71  -3.71
iter:  67 10:11:02  -299.477621c -3.65  -3.77
iter:  68 10:13:34  -299.477644c -3.76  -3.82
iter:  69 10:16:10  -299.477670c -4.09  -3.88
Writing to output.gpw (mode='')

iter:  70 10:18:39  -299.477682c -3.92  -3.93
iter:  71 10:21:04  -299.477697c -4.01  -4.05c
iter:  72 10:23:42  -299.477708c -4.01  -4.20c
iter:  73 10:26:06  -299.477720c -4.16  -4.33c
iter:  74 10:28:36  -299.477728c -4.33  -4.45c
Writing to output.gpw (mode='')

iter:  75 10:31:06  -299.477735c -4.26  -4.47c
iter:  76 10:33:36  -299.477742c -4.32  -4.53c
iter:  77 10:36:07  -299.477748c -4.41  -4.70c
iter:  78 10:38:49  -299.477753c -4.34  -4.73c
iter:  79 10:41:11  -299.477757c -4.49  -4.71c
Writing to output.gpw (mode='')

iter:  80 10:43:45  -299.477761c -4.58  -4.74c
iter:  81 10:46:16  -299.477763c -4.75  -4.76c
iter:  82 10:48:49  -299.477766c -4.80  -4.76c
iter:  83 10:51:20  -299.477768c -4.76  -4.62c
iter:  84 10:53:48  -299.477770c -4.70  -4.67c
Writing to output.gpw (mode='')

iter:  85 10:56:23  -299.477771c -4.76  -4.67c
iter:  86 10:58:51  -299.477772c -4.98  -4.63c
iter:  87 11:01:26  -299.477773c -5.05  -4.69c
iter:  88 11:04:02  -299.477774c -5.08  -4.63c
iter:  89 11:06:40  -299.477775c -4.95  -4.63c
Writing to output.gpw (mode='')

iter:  90 11:09:13  -299.477776c -5.12  -4.59c
iter:  91 11:11:51  -299.477776c -5.17  -4.55c
iter:  92 11:14:26  -299.477777c -5.19  -4.58c
iter:  93 11:17:03  -299.477777c -5.30  -4.61c
iter:  94 11:19:34  -299.477777c -5.33  -4.70c
Writing to output.gpw (mode='')

iter:  95 11:22:10  -299.477776c -5.37  -4.84c
iter:  96 11:24:51  -299.477777c -5.53  -5.12c
iter:  97 11:27:26  -299.477777c -5.56  -5.20c
iter:  98 11:29:59  -299.477777c -5.46  -5.33c
iter:  99 11:32:30  -299.477777c -5.47  -5.44c
Writing to output.gpw (mode='')

iter: 100 11:35:03  -299.477777c -5.58  -5.58c
iter: 101 11:37:38  -299.477778c -5.52  -5.60c
iter: 102 11:40:15  -299.477778c -5.55  -5.66c
iter: 103 11:42:40  -299.477778c -5.73  -5.77c
iter: 104 11:45:15  -299.477778c -5.73  -5.85c
Writing to output.gpw (mode='')

iter: 105 11:47:53  -299.477778c -5.66  -5.96c
iter: 106 11:50:37  -299.477778c -5.76  -6.01c
iter: 107 11:53:11  -299.477778c -5.94  -5.94c
iter: 108 11:55:41  -299.477778c -6.06  -5.78c
iter: 109 11:58:15  -299.477778c -6.04  -5.71c
Writing to output.gpw (mode='')

iter: 110 12:00:43  -299.477778c -6.09  -5.59c
iter: 111 12:03:16  -299.477778c -6.09  -5.56c
iter: 112 12:05:49  -299.477778c -6.28  -5.54c
iter: 113 12:08:19  -299.477778c -6.24  -5.50c
iter: 114 12:11:02  -299.477778c -6.23  -5.49c
Writing to output.gpw (mode='')

iter: 115 12:13:47  -299.477778c -6.28  -5.50c
iter: 116 12:16:22  -299.477778c -6.38  -5.44c
iter: 117 12:19:02  -299.477778c -6.38  -5.47c
iter: 118 12:21:31  -299.477777c -6.49  -5.49c
iter: 119 12:24:22  -299.477777c -6.43  -5.64c
Writing to output.gpw (mode='')

iter: 120 12:26:59  -299.477777c -6.58  -5.70c
iter: 121 12:29:35  -299.477777c -6.49  -5.94c
iter: 122 12:32:05  -299.477777c -6.33  -6.01c
iter: 123 12:34:44  -299.477777c -6.32  -6.07c
iter: 124 12:37:15  -299.477777c -6.67  -6.11c
Writing to output.gpw (mode='')

iter: 125 12:39:51  -299.477777c -6.77  -6.17c
iter: 126 12:42:25  -299.477777c -6.93  -6.24c
iter: 127 12:44:55  -299.477777c -6.87  -6.31c
iter: 128 12:47:28  -299.477777c -6.96  -6.45c
iter: 129 12:50:08  -299.477777c -6.63  -6.55c
Writing to output.gpw (mode='')

iter: 130 12:52:47  -299.477777c -6.98  -6.54c
iter: 131 12:55:20  -299.477777c -6.96  -6.62c
iter: 132 12:58:00  -299.477777c -7.15  -6.72c
iter: 133 13:00:46  -299.477777c -7.21  -6.86c
iter: 134 13:03:24  -299.477777c -7.12  -6.84c
Writing to output.gpw (mode='')

iter: 135 13:05:51  -299.477777c -7.07  -6.91c
iter: 136 13:08:19  -299.477777c -7.37  -6.86c
iter: 137 13:10:56  -299.477777c -7.46c -6.51c

Converged after 137 iterations.

Dipole moment: (6.699934, -10.035700, 0.261420) |e|*Ang

Energy contributions relative to reference atoms: (reference = -14434.854043)

Kinetic:       +184.893186
Potential:     -168.346300
External:        +0.000000
XC:            -316.635385
Entropy (-ST):   -0.153056
Local:           +0.687250
--------------------------
Free energy:   -299.554305
Extrapolated:  -299.477777

Dipole-layer corrected work functions: 3.388676, 2.886138 eV

Showing only first 2 kpts
 Kpt  Band  Eigenvalues  Occupancy
  0    31     -3.38840    1.98687
  0    32     -3.29633    1.92004
  0    33     -2.98190    0.08539
  0    34     -2.88481    0.01271

  1    31     -3.17514    1.36035
  1    32     -3.13282    0.95414
  1    33     -3.10940    0.72707
  1    34     -3.07299    0.43227


Fermi level: -3.13741

No gap
Writing to output.gpw (mode='')


Forces in eV/Ang:
  0 Li    0.01413    0.00037   -0.27357
  1 Li   -0.01487    0.00089   -0.27256
  2 Li    0.00082   -0.00239   -0.27473
  3 Li   -0.00184   -0.00461   -0.27416
  4 Li    0.00288   -0.00339   -0.27430
  5 Li   -0.00095    0.01559   -0.27318
  6 Li   -0.00479    0.00421   -0.27626
  7 Li    0.00534    0.00245   -0.27483
  8 Li   -0.00040   -0.01369   -0.27318
  9 Li    0.00385   -0.00403    0.26513
 10 Li   -0.00129    0.00642    0.25797
 11 Li   -0.00261   -0.00451    0.26626
 12 Li    0.00186    0.00050    0.27110
 13 Li   -0.00019   -0.00286    0.25173
 14 Li   -0.00164    0.00182    0.27101
 15 Li   -0.00454    0.00388    0.25659
 16 Li    0.00052   -0.00337    0.27234
 17 Li    0.00382    0.00307    0.25263
 18 Li   -0.00562    0.00230    0.04879
 19 Li    0.00595    0.00160    0.04344
 20 Li   -0.00073   -0.00322   -0.06605
 21 Li   -0.00659   -0.00454    0.03999
 22 Li    0.00681   -0.00564    0.04059
 23 Li   -0.00044   -0.00207    0.03760
 24 Li   -0.00127    0.00239    0.03484
 25 Li    0.00208    0.00428    0.03685
 26 Li   -0.00097    0.00734    0.05146
 27 Li    0.04357   -0.04207   -0.04416
 28 Li   -0.00729    0.01666   -0.00987
 29 Li   -0.03579   -0.04085   -0.03065
 30 Li    0.02867    0.02702   -0.01520
 31 Li   -0.00511   -0.01531   -0.01428
 32 Li   -0.02340    0.02699   -0.00567
 33 Li   -0.01311    0.00817   -0.01163
 34 Li   -0.00118   -0.00158   -0.01496
 35 Li    0.01454    0.00580   -0.01651
 36 O    -0.42252    0.93177   14.66184
 37 C     2.43589   -1.86110    1.82829
 38 C    -0.05067    0.29445    0.16527
 39 H    -0.35133    0.36848   -0.06898
 40 H     0.16202   -0.18683    0.56180
 41 H    -0.14262   -0.06713   -0.06903
 42 H     0.08901   -0.00711   -0.02690
 43 H     0.00594   -0.04293   -0.10039
 44 H     0.08024    1.89861    4.69577
 45 N    -0.74037    3.01243   -5.24690
 46 N    -1.07897   -4.32252  -16.45050

System changes: positions 

Initializing position-dependent things.

Density initialized from wave functions
       .-----------------------.  
      /|                       |  
     / |                       |  
    /  |                       |  
   /   |                       |  
  /    |                       |  
 *     |                       |  
 |     |                       |  
 |     |                       |  
 |   H |              H        |  
 |     |              O H      |  
 |  CHH|                C      |  
 |     Li             NLH      |  
 |     |                       |  
 |     |     Li      LN      Li|  
 |     |  Li      Li      Li   |  
 | Li  |   Li      Li          |  
 |     |Li      Li      Li     |  
 |     | Li                    |  
 |   LLi     LLi     LLi       |  
 |     |  Li      Li      Li   |  
 | Li  |   Li      Li          |  
 |     |Li      Li      Li     |  
 Li    | Li      Li            |  
 |    Li      Li      Li       |  
 |     |                       |  
 |     |                       |  
 |     |                       |  
 |     |                       |  
 |     |                       |  
 |     |                       |  
 |     .-----------------------.  
 |    /                       /   
 |   /                       /    
 |  /                       /     
 | /                       /      
 |/                       /       
 *-----------------------*        

Positions:
   0 Li     1.617037    1.617037   10.000000    ( 0.0000,  0.0000,  0.0000)
   1 Li     4.851111    1.617037   10.000000    ( 0.0000,  0.0000,  0.0000)
   2 Li     8.085185    1.617037   10.000000    ( 0.0000,  0.0000,  0.0000)
   3 Li     1.617037    4.851111   10.000000    ( 0.0000,  0.0000,  0.0000)
   4 Li     4.851111    4.851111   10.000000    ( 0.0000,  0.0000,  0.0000)
   5 Li     8.085185    4.851111   10.000000    ( 0.0000,  0.0000,  0.0000)
   6 Li     1.617037    8.085185   10.000000    ( 0.0000,  0.0000,  0.0000)
   7 Li     4.851111    8.085185   10.000000    ( 0.0000,  0.0000,  0.0000)
   8 Li     8.085185    8.085185   10.000000    ( 0.0000,  0.0000,  0.0000)
   9 Li     0.000000    0.000000   11.617037    ( 0.0000,  0.0000,  0.0000)
  10 Li     3.234074    0.000000   11.617037    ( 0.0000,  0.0000,  0.0000)
  11 Li     6.468148    0.000000   11.617037    ( 0.0000,  0.0000,  0.0000)
  12 Li     0.000000    3.234074   11.617037    ( 0.0000,  0.0000,  0.0000)
  13 Li     3.234074    3.234074   11.617037    ( 0.0000,  0.0000,  0.0000)
  14 Li     6.468148    3.234074   11.617037    ( 0.0000,  0.0000,  0.0000)
  15 Li     0.000000    6.468148   11.617037    ( 0.0000,  0.0000,  0.0000)
  16 Li     3.234074    6.468148   11.617037    ( 0.0000,  0.0000,  0.0000)
  17 Li     6.468148    6.468148   11.617037    ( 0.0000,  0.0000,  0.0000)
  18 Li     1.617025    1.617043   13.469842    ( 0.0000,  0.0000,  0.0000)
  19 Li     4.851125    1.617042   13.469831    ( 0.0000,  0.0000,  0.0000)
  20 Li     8.085182    1.617031   13.469573    ( 0.0000,  0.0000,  0.0000)
  21 Li     1.617023    4.851100   13.469823    ( 0.0000,  0.0000,  0.0000)
  22 Li     4.851127    4.851098   13.469826    ( 0.0000,  0.0000,  0.0000)
  23 Li     8.085183    4.851106   13.469818    ( 0.0000,  0.0000,  0.0000)
  24 Li     1.617035    8.085189   13.469810    ( 0.0000,  0.0000,  0.0000)
  25 Li     4.851116    8.085194   13.469816    ( 0.0000,  0.0000,  0.0000)
  26 Li     8.085182    8.085201   13.469849    ( 0.0000,  0.0000,  0.0000)
  27 Li     0.000102   -0.000099   15.445836    ( 0.0000,  0.0000,  0.0000)
  28 Li     3.234057    0.000039   15.445916    ( 0.0000,  0.0000,  0.0000)
  29 Li     6.468064   -0.000096   15.445867    ( 0.0000,  0.0000,  0.0000)
  30 Li     0.000067    3.234137   15.445903    ( 0.0000,  0.0000,  0.0000)
  31 Li     3.234064    3.234041   15.445905    ( 0.0000,  0.0000,  0.0000)
  32 Li     6.468091    3.234140   15.445925    ( 0.0000,  0.0000,  0.0000)
  33 Li    -0.000031    6.468167   15.445912    ( 0.0000,  0.0000,  0.0000)
  34 Li     3.234074    6.468142   15.445903    ( 0.0000,  0.0000,  0.0000)
  35 Li     6.468180    6.468159   15.445899    ( 0.0000,  0.0000,  0.0000)
  36 O      8.084193    1.619224   20.480351    ( 0.0000,  0.0000,  0.0000)
  37 C      9.273310    0.795911   20.454529    ( 0.0000,  0.0000,  0.0000)
  38 C     10.551688    1.620589   20.436092    ( 0.0000,  0.0000,  0.0000)
  39 H      9.258145    0.117609   21.310236    ( 0.0000,  0.0000,  0.0000)
  40 H      9.192584    0.190115   19.548761    ( 0.0000,  0.0000,  0.0000)
  41 H     11.428399    0.965794   20.420107    ( 0.0000,  0.0000,  0.0000)
  42 H     10.586727    2.268904   19.558823    ( 0.0000,  0.0000,  0.0000)
  43 H     10.622009    2.248285   21.328030    ( 0.0000,  0.0000,  0.0000)
  44 H      8.124541    2.204470   21.225185    ( 0.0000,  0.0000,  0.0000)
  45 N      8.083262    1.624070   17.933625    ( 0.0000,  0.0000,  0.0000)
  46 N      8.082468    1.606855   19.003952    ( 0.0000,  0.0000,  0.0000)

Unit cell:
           periodic     x           y           z      points  spacing
  1. axis:    yes    9.702222    0.000000    0.000000    60     0.1617
  2. axis:    yes    0.000000    9.702222    0.000000    60     0.1617
  3. axis:    no     0.000000    0.000000   24.851111   156     0.1593

  Lengths:   9.702222   9.702222  24.851111
  Angles:   90.000000  90.000000  90.000000

Effective grid spacing dv^(1/3) = 0.1609

     iter     time        total  log10-change:
                         energy  eigst   dens
iter:   1 13:14:11  -301.140396  -0.53
iter:   2 13:16:51  -300.895631  -0.56  -1.34
iter:   3 13:19:30  -300.836672  -1.14  -1.54
iter:   4 13:22:12  -300.809860  -0.94  -1.82
Writing to output.gpw (mode='')

iter:   5 13:24:47  -300.788290  -0.91  -2.00
iter:   6 13:27:13  -300.781627c -1.57  -2.06
iter:   7 13:29:50  -300.785776c -1.49  -2.35
iter:   8 13:32:18  -300.781316c -2.10  -2.19
iter:   9 13:34:50  -300.782038c -1.81  -2.44
Writing to output.gpw (mode='')

iter:  10 13:37:29  -300.781673c -2.61  -2.53
iter:  11 13:40:10  -300.781670c -2.67  -2.66
iter:  12 13:42:42  -300.781934c -2.46  -2.72
iter:  13 13:45:13  -300.781788c -3.13  -2.80
iter:  14 13:47:46  -300.781806c -3.28  -2.95
Writing to output.gpw (mode='')

iter:  15 13:50:21  -300.781848c -3.31  -3.08
iter:  16 13:52:59  -300.781937c -3.57  -3.16
iter:  17 13:55:32  -300.781932c -3.34  -3.10
iter:  18 13:58:05  -300.781938c -4.06  -3.30
iter:  19 14:00:40  -300.781948c -4.06  -3.45
Writing to output.gpw (mode='')

iter:  20 14:03:23  -300.781956c -4.24  -3.57
iter:  21 14:06:00  -300.781960c -4.35  -3.62
iter:  22 14:08:36  -300.781961c -4.47  -3.69
iter:  23 14:11:07  -300.781968c -4.64  -3.79
iter:  24 14:13:45  -300.781971c -4.52  -4.03c
Writing to output.gpw (mode='')

iter:  25 14:16:28  -300.781975c -4.85  -4.05c
iter:  26 14:18:58  -300.781976c -5.17  -4.16c
iter:  27 14:21:42  -300.781979c -4.89  -4.26c
iter:  28 14:24:14  -300.781978c -5.10  -4.10c
iter:  29 14:26:43  -300.781979c -5.21  -4.46c
Writing to output.gpw (mode='')

iter:  30 14:29:24  -300.781980c -5.55  -4.50c
iter:  31 14:32:09  -300.781980c -5.42  -4.58c
iter:  32 14:34:45  -300.781981c -5.68  -4.64c
iter:  33 14:37:17  -300.781981c -5.68  -4.73c
iter:  34 14:39:49  -300.781981c -5.85  -4.78c
Writing to output.gpw (mode='')

iter:  35 14:42:33  -300.781982c -5.95  -4.78c
iter:  36 14:45:15  -300.781982c -5.91  -4.76c
iter:  37 14:47:58  -300.781982c -6.22  -4.70c
iter:  38 14:50:31  -300.781983c -6.06  -4.74c
iter:  39 14:53:11  -300.781983c -6.42  -4.83c
Writing to output.gpw (mode='')

iter:  40 14:55:52  -300.781984c -6.12  -4.77c
iter:  41 14:58:31  -300.781983c -6.51  -4.88c
iter:  42 15:00:59  -300.781983c -6.48  -5.07c
iter:  43 15:03:34  -300.781983c -6.68  -5.07c
iter:  44 15:06:11  -300.781983c -6.82  -5.02c
Writing to output.gpw (mode='')

iter:  45 15:08:56  -300.781984c -6.78  -5.13c
iter:  46 15:11:33  -300.781984c -6.87  -5.33c
iter:  47 15:14:08  -300.781984c -6.98  -5.29c
iter:  48 15:16:46  -300.781984c -6.80  -5.36c
iter:  49 15:19:30  -300.781984c -7.02  -5.53c
Writing to output.gpw (mode='')

iter:  50 15:22:05  -300.781984c -6.92  -5.58c
iter:  51 15:24:38  -300.781984c -7.26  -5.44c
iter:  52 15:27:13  -300.781984c -7.20  -5.89c
iter:  53 15:29:47  -300.781984c -7.05  -5.89c
iter:  54 15:32:22  -300.781984c -7.13  -5.97c
Writing to output.gpw (mode='')

iter:  55 15:34:53  -300.781984c -7.36  -6.09c
iter:  56 15:37:29  -300.781984c -7.39  -6.13c
iter:  57 15:39:59  -300.781984c -7.54c -6.13c

Converged after 57 iterations.

Dipole moment: (6.831504, -10.016711, 0.313420) |e|*Ang

Energy contributions relative to reference atoms: (reference = -14434.854043)

Kinetic:       +188.668651
Potential:     -172.123399
External:        +0.000000
XC:            -317.945195
Entropy (-ST):   -0.151954
Local:           +0.693936
--------------------------
Free energy:   -300.857961
Extrapolated:  -300.781984

Dipole-layer corrected work functions: 3.387439, 2.784939 eV

Showing only first 2 kpts
 Kpt  Band  Eigenvalues  Occupancy
  0    31     -3.33837    1.98718
  0    32     -3.24844    1.92498
  0    33     -2.92598    0.07802
  0    34     -2.83334    0.01265

  1    31     -3.12054    1.33063
  1    32     -3.08087    0.94687
  1    33     -3.05705    0.71662
  1    34     -3.02363    0.44497


Fermi level: -3.08619

No gap
Writing to output.gpw (mode='')


Forces in eV/Ang:
  0 Li    0.01342    0.00014   -0.27320
  1 Li   -0.01395    0.00064   -0.27246
  2 Li    0.00056   -0.00143   -0.27388
  3 Li   -0.00275   -0.00450   -0.27389
  4 Li    0.00360   -0.00368   -0.27381
  5 Li   -0.00077    0.01435   -0.27281
  6 Li   -0.00453    0.00438   -0.27517
  7 Li    0.00488    0.00304   -0.27425
  8 Li   -0.00024   -0.01321   -0.27296
  9 Li    0.00329   -0.00309    0.26484
 10 Li   -0.00088    0.00580    0.25636
 11 Li   -0.00239   -0.00374    0.26577
 12 Li    0.00188    0.00090    0.26886
 13 Li    0.00005   -0.00356    0.25243
 14 Li   -0.00190    0.00219    0.26831
 15 Li   -0.00454    0.00242    0.25568
 16 Li    0.00008   -0.00220    0.27406
 17 Li    0.00431    0.00183    0.25273
 18 Li   -0.00659    0.00148    0.05000
 19 Li    0.00720    0.00095    0.04539
 20 Li   -0.00081   -0.00224   -0.06645
 21 Li   -0.00586   -0.00452    0.03965
 22 Li    0.00607   -0.00509    0.04043
 23 Li   -0.00036   -0.00454    0.04245
 24 Li   -0.00225    0.00304    0.03659
 25 Li    0.00271    0.00417    0.03716
 26 Li   -0.00063    0.00792    0.05108
 27 Li    0.04687   -0.04519   -0.05399
 28 Li   -0.00675    0.01634   -0.01171
 29 Li   -0.04012   -0.04462   -0.04047
 30 Li    0.03633    0.03361   -0.03147
 31 Li   -0.00471   -0.01555   -0.01493
 32 Li   -0.03170    0.03398   -0.02390
 33 Li   -0.01354    0.00594   -0.01306
 34 Li   -0.00145   -0.00085   -0.01466
 35 Li    0.01521    0.00372   -0.01743
 36 O    -0.06815    0.50862   14.22996
 37 C     1.61678   -1.12896    1.75083
 38 C     0.03118    0.15273    0.12420
 39 H    -0.17612    0.13677    0.03824
 40 H     0.12109   -0.14111    0.55352
 41 H    -0.10703   -0.01648   -0.05951
 42 H     0.06630   -0.00798   -0.02375
 43 H     0.01339   -0.01373   -0.05183
 44 H     0.24398    1.53188    4.24066
 45 N    -0.56754    2.48994   -8.26821
 46 N    -1.17609   -3.47187  -12.54633

System changes: positions 

Initializing position-dependent things.

Density initialized from wave functions
       .-----------------------.  
      /|                       |  
     / |                       |  
    /  |                       |  
   /   |                       |  
  /    |                       |  
 *     |                       |  
 |     |                       |  
 |     |                       |  
 |   H |              H        |  
 |     |              O H      |  
 |  CHH|                C      |  
 |     Li             NLH      |  
 |     |                       |  
 |     |     Li      LN      Li|  
 |     |  Li      Li      Li   |  
 | Li  |   Li      Li          |  
 |     |Li      Li      Li     |  
 |     | Li                    |  
 |   LLi     LLi     LLi       |  
 |     |  Li      Li      Li   |  
 | Li  |   Li      Li          |  
 |     |Li      Li      Li     |  
 Li    | Li      Li            |  
 |    Li      Li      Li       |  
 |     |                       |  
 |     |                       |  
 |     |                       |  
 |     |                       |  
 |     |                       |  
 |     |                       |  
 |     .-----------------------.  
 |    /                       /   
 |   /                       /    
 |  /                       /     
 | /                       /      
 |/                       /       
 *-----------------------*        

Positions:
   0 Li     1.617037    1.617037   10.000000    ( 0.0000,  0.0000,  0.0000)
   1 Li     4.851111    1.617037   10.000000    ( 0.0000,  0.0000,  0.0000)
   2 Li     8.085185    1.617037   10.000000    ( 0.0000,  0.0000,  0.0000)
   3 Li     1.617037    4.851111   10.000000    ( 0.0000,  0.0000,  0.0000)
   4 Li     4.851111    4.851111   10.000000    ( 0.0000,  0.0000,  0.0000)
   5 Li     8.085185    4.851111   10.000000    ( 0.0000,  0.0000,  0.0000)
   6 Li     1.617037    8.085185   10.000000    ( 0.0000,  0.0000,  0.0000)
   7 Li     4.851111    8.085185   10.000000    ( 0.0000,  0.0000,  0.0000)
   8 Li     8.085185    8.085185   10.000000    ( 0.0000,  0.0000,  0.0000)
   9 Li     0.000000    0.000000   11.617037    ( 0.0000,  0.0000,  0.0000)
  10 Li     3.234074    0.000000   11.617037    ( 0.0000,  0.0000,  0.0000)
  11 Li     6.468148    0.000000   11.617037    ( 0.0000,  0.0000,  0.0000)
  12 Li     0.000000    3.234074   11.617037    ( 0.0000,  0.0000,  0.0000)
  13 Li     3.234074    3.234074   11.617037    ( 0.0000,  0.0000,  0.0000)
  14 Li     6.468148    3.234074   11.617037    ( 0.0000,  0.0000,  0.0000)
  15 Li     0.000000    6.468148   11.617037    ( 0.0000,  0.0000,  0.0000)
  16 Li     3.234074    6.468148   11.617037    ( 0.0000,  0.0000,  0.0000)
  17 Li     6.468148    6.468148   11.617037    ( 0.0000,  0.0000,  0.0000)
  18 Li     1.617004    1.617046   13.469989    ( 0.0000,  0.0000,  0.0000)
  19 Li     4.851149    1.617043   13.469967    ( 0.0000,  0.0000,  0.0000)
  20 Li     8.085180    1.617026   13.469381    ( 0.0000,  0.0000,  0.0000)
  21 Li     1.617008    4.851087   13.469937    ( 0.0000,  0.0000,  0.0000)
  22 Li     4.851143    4.851084   13.469942    ( 0.0000,  0.0000,  0.0000)
  23 Li     8.085182    4.851087   13.469951    ( 0.0000,  0.0000,  0.0000)
  24 Li     1.617026    8.085200   13.469919    ( 0.0000,  0.0000,  0.0000)
  25 Li     4.851125    8.085205   13.469924    ( 0.0000,  0.0000,  0.0000)
  26 Li     8.085181    8.085225   13.469995    ( 0.0000,  0.0000,  0.0000)
  27 Li     0.000245   -0.000236   15.445658    ( 0.0000,  0.0000,  0.0000)
  28 Li     3.234038    0.000085   15.445878    ( 0.0000,  0.0000,  0.0000)
  29 Li     6.467939   -0.000233   15.445728    ( 0.0000,  0.0000,  0.0000)
  30 Li     0.000189    3.234249   15.445775    ( 0.0000,  0.0000,  0.0000)
  31 Li     3.234052    3.233995   15.445860    ( 0.0000,  0.0000,  0.0000)
  32 Li     6.467980    3.234254   15.445814    ( 0.0000,  0.0000,  0.0000)
  33 Li    -0.000071    6.468179   15.445871    ( 0.0000,  0.0000,  0.0000)
  34 Li     3.234069    6.468141   15.445861    ( 0.0000,  0.0000,  0.0000)
  35 Li     6.468225    6.468165   15.445847    ( 0.0000,  0.0000,  0.0000)
  36 O      8.084809    1.619719   20.520343    ( 0.0000,  0.0000,  0.0000)
  37 C      9.276090    0.794337   20.459393    ( 0.0000,  0.0000,  0.0000)
  38 C     10.551966    1.620704   20.436356    ( 0.0000,  0.0000,  0.0000)
  39 H      9.258039    0.117472   21.310591    ( 0.0000,  0.0000,  0.0000)
  40 H      9.192839    0.189814   19.550336    ( 0.0000,  0.0000,  0.0000)
  41 H     11.428173    0.965862   20.419958    ( 0.0000,  0.0000,  0.0000)
  42 H     10.586866    2.268879   19.558762    ( 0.0000,  0.0000,  0.0000)
  43 H     10.622065    2.248312   21.327992    ( 0.0000,  0.0000,  0.0000)
  44 H      8.125618    2.208041   21.236356    ( 0.0000,  0.0000,  0.0000)
  45 N      8.082024    1.630044   17.902894    ( 0.0000,  0.0000,  0.0000)
  46 N      8.078858    1.598804   18.976760    ( 0.0000,  0.0000,  0.0000)

Unit cell:
           periodic     x           y           z      points  spacing
  1. axis:    yes    9.702222    0.000000    0.000000    60     0.1617
  2. axis:    yes    0.000000    9.702222    0.000000    60     0.1617
  3. axis:    no     0.000000    0.000000   24.851111   156     0.1593

  Lengths:   9.702222   9.702222  24.851111
  Angles:   90.000000  90.000000  90.000000

Effective grid spacing dv^(1/3) = 0.1609

     iter     time        total  log10-change:
                         energy  eigst   dens
iter:   1 15:43:13  -302.065518  -0.65
iter:   2 15:45:49  -302.015553  -0.89  -1.61
iter:   3 15:48:26  -302.002396  -1.41  -1.80
iter:   4 15:51:00  -302.006872c -1.63  -2.07
Writing to output.gpw (mode='')

iter:   5 15:53:30  -302.002444c -1.10  -2.06
iter:   6 15:55:58  -301.997297c -1.87  -1.91
iter:   7 15:58:38  -301.991031c -1.79  -1.99
iter:   8 16:01:12  -301.988294c -1.50  -2.20
iter:   9 16:03:37  -301.995109c -1.67  -2.37
Writing to output.gpw (mode='')

iter:  10 16:06:11  -301.991483c -2.26  -2.12
iter:  11 16:08:46  -301.991735c -2.51  -2.26
iter:  12 16:11:34  -301.988422c -2.70  -2.28
iter:  13 16:14:03  -301.986635c -1.95  -2.32
iter:  14 16:16:36  -301.986364c -2.95  -2.55
Writing to output.gpw (mode='')

iter:  15 16:19:10  -301.986391c -2.44  -2.57
iter:  16 16:21:51  -301.985996c -2.40  -2.67
iter:  17 16:24:24  -301.986215c -2.92  -2.80
iter:  18 16:26:53  -301.985681c -3.32  -2.74
iter:  19 16:29:26  -301.985629c -3.04  -2.91
Writing to output.gpw (mode='')

iter:  20 16:32:06  -301.985579c -4.07  -3.05
iter:  21 16:34:44  -301.985815c -3.06  -3.12
iter:  22 16:37:11  -301.985522c -3.32  -2.90
iter:  23 16:39:43  -301.985496c -3.56  -3.20
iter:  24 16:42:10  -301.985577c -3.46  -3.38
Writing to output.gpw (mode='')

iter:  25 16:44:47  -301.985476c -3.84  -3.20
iter:  26 16:47:16  -301.985487c -3.56  -3.38
iter:  27 16:49:48  -301.985518c -3.95  -3.50
iter:  28 16:52:24  -301.985477c -4.58  -3.42
iter:  29 16:55:03  -301.985476c -4.02  -3.67
Writing to output.gpw (mode='')

iter:  30 16:57:38  -301.985481c -4.67  -3.89
iter:  31 17:00:08  -301.985481c -4.71  -3.91
iter:  32 17:02:43  -301.985484c -4.79  -3.88
iter:  33 17:05:18  -301.985480c -5.37  -3.92
iter:  34 17:07:58  -301.985480c -5.40  -4.09c
Writing to output.gpw (mode='')

iter:  35 17:10:30  -301.985480c -5.67  -4.09c
iter:  36 17:13:00  -301.985479c -5.79  -4.16c
iter:  37 17:15:33  -301.985478c -5.74  -4.38c
iter:  38 17:18:04  -301.985478c -6.17  -4.36c
iter:  39 17:20:43  -301.985478c -6.18  -4.45c
Writing to output.gpw (mode='')

iter:  40 17:23:30  -301.985478c -6.48  -4.57c
iter:  41 17:26:09  -301.985479c -6.33  -4.61c
iter:  42 17:28:47  -301.985479c -6.87  -4.73c
iter:  43 17:31:23  -301.985478c -7.03  -4.79c
iter:  44 17:33:59  -301.985478c -7.05  -4.93c
Writing to output.gpw (mode='')

iter:  45 17:36:35  -301.985478c -7.20  -5.17c
iter:  46 17:39:03  -301.985478c -7.38  -5.33c
iter:  47 17:41:41  -301.985478c -7.49c -5.42c

Converged after 47 iterations.

Dipole moment: (6.902150, -9.992898, 0.356363) |e|*Ang

Energy contributions relative to reference atoms: (reference = -14434.854043)

Kinetic:       +186.155105
Potential:     -170.698104
External:        +0.000000
XC:            -318.068263
Entropy (-ST):   -0.151647
Local:           +0.701608
--------------------------
Free energy:   -302.061302
Extrapolated:  -301.985478

Dipole-layer corrected work functions: 3.386564, 2.701511 eV

Showing only first 2 kpts
 Kpt  Band  Eigenvalues  Occupancy
  0    31     -3.29653    1.98726
  0    32     -3.20671    1.92559
  0    33     -2.88275    0.07642
  0    34     -2.79138    0.01270

  1    31     -3.07783    1.32566
  1    32     -3.03857    0.94542
  1    33     -3.01551    0.72225
  1    34     -2.98101    0.44178


Fermi level: -3.04404

No gap
Writing to output.gpw (mode='')


Forces in eV/Ang:
  0 Li    0.01354    0.00007   -0.27305
  1 Li   -0.01400    0.00054   -0.27234
  2 Li    0.00046   -0.00114   -0.27376
  3 Li   -0.00304   -0.00447   -0.27374
  4 Li    0.00387   -0.00375   -0.27366
  5 Li   -0.00073    0.01431   -0.27264
  6 Li   -0.00443    0.00447   -0.27482
  7 Li    0.00477    0.00324   -0.27406
  8 Li   -0.00022   -0.01342   -0.27285
  9 Li    0.00320   -0.00285    0.26523
 10 Li   -0.00073    0.00570    0.25589
 11 Li   -0.00242   -0.00356    0.26596
 12 Li    0.00183    0.00101    0.26869
 13 Li    0.00016   -0.00377    0.25265
 14 Li   -0.00195    0.00233    0.26793
 15 Li   -0.00455    0.00206    0.25543
 16 Li   -0.00008   -0.00196    0.27455
 17 Li    0.00447    0.00154    0.25275
 18 Li   -0.00692    0.00125    0.05004
 19 Li    0.00771    0.00077    0.04592
 20 Li   -0.00092   -0.00207   -0.07057
 21 Li   -0.00575   -0.00459    0.03959
 22 Li    0.00592   -0.00503    0.04038
 23 Li   -0.00032   -0.00530    0.04392
 24 Li   -0.00259    0.00326    0.03698
 25 Li    0.00293    0.00420    0.03725
 26 Li   -0.00051    0.00822    0.05060
 27 Li    0.04754   -0.04590   -0.05360
 28 Li   -0.00653    0.01645   -0.01227
 29 Li   -0.04142   -0.04599   -0.04115
 30 Li    0.03869    0.03524   -0.03411
 31 Li   -0.00459   -0.01580   -0.01505
 32 Li   -0.03423    0.03584   -0.02734
 33 Li   -0.01392    0.00494   -0.01348
 34 Li   -0.00149   -0.00062   -0.01475
 35 Li    0.01562    0.00281   -0.01778
 36 O     0.05543   -0.33062   11.96614
 37 C     1.14323   -0.67933    1.68278
 38 C     0.05682    0.08898    0.10677
 39 H    -0.03636   -0.03351    0.13266
 40 H     0.05870   -0.06285    0.59123
 41 H    -0.07291    0.00085   -0.05373
 42 H     0.04757   -0.01441   -0.01830
 43 H     0.02544    0.00113   -0.02536
 44 H     0.42443    1.75270    4.24958
 45 N    -0.43469    2.12285   -7.05786
 46 N    -1.28976   -2.86624  -11.51446

System changes: positions 

Initializing position-dependent things.

Density initialized from wave functions
       .-----------------------.  
      /|                       |  
     / |                       |  
    /  |                       |  
   /   |                       |  
  /    |                       |  
 *     |                       |  
 |     |                       |  
 |     |                       |  
 |   H |              H        |  
 |     |              O H      |  
 |  CHH|                C      |  
 |     Li             NLH      |  
 |     |                       |  
 |     |     Li      LN      Li|  
 |     |  Li      Li      Li   |  
 | Li  |   Li      Li          |  
 |     |Li      Li      Li     |  
 |     | Li                    |  
 |   LLi     LLi     LLi       |  
 |     |  Li      Li      Li   |  
 | Li  |   Li      Li          |  
 |     |Li      Li      Li     |  
 Li    | Li      Li            |  
 |    Li      Li      Li       |  
 |     |                       |  
 |     |                       |  
 |     |                       |  
 |     |                       |  
 |     |                       |  
 |     |                       |  
 |     .-----------------------.  
 |    /                       /   
 |   /                       /    
 |  /                       /     
 | /                       /      
 |/                       /       
 *-----------------------*        

Positions:
   0 Li     1.617037    1.617037   10.000000    ( 0.0000,  0.0000,  0.0000)
   1 Li     4.851111    1.617037   10.000000    ( 0.0000,  0.0000,  0.0000)
   2 Li     8.085185    1.617037   10.000000    ( 0.0000,  0.0000,  0.0000)
   3 Li     1.617037    4.851111   10.000000    ( 0.0000,  0.0000,  0.0000)
   4 Li     4.851111    4.851111   10.000000    ( 0.0000,  0.0000,  0.0000)
   5 Li     8.085185    4.851111   10.000000    ( 0.0000,  0.0000,  0.0000)
   6 Li     1.617037    8.085185   10.000000    ( 0.0000,  0.0000,  0.0000)
   7 Li     4.851111    8.085185   10.000000    ( 0.0000,  0.0000,  0.0000)
   8 Li     8.085185    8.085185   10.000000    ( 0.0000,  0.0000,  0.0000)
   9 Li     0.000000    0.000000   11.617037    ( 0.0000,  0.0000,  0.0000)
  10 Li     3.234074    0.000000   11.617037    ( 0.0000,  0.0000,  0.0000)
  11 Li     6.468148    0.000000   11.617037    ( 0.0000,  0.0000,  0.0000)
  12 Li     0.000000    3.234074   11.617037    ( 0.0000,  0.0000,  0.0000)
  13 Li     3.234074    3.234074   11.617037    ( 0.0000,  0.0000,  0.0000)
  14 Li     6.468148    3.234074   11.617037    ( 0.0000,  0.0000,  0.0000)
  15 Li     0.000000    6.468148   11.617037    ( 0.0000,  0.0000,  0.0000)
  16 Li     3.234074    6.468148   11.617037    ( 0.0000,  0.0000,  0.0000)
  17 Li     6.468148    6.468148   11.617037    ( 0.0000,  0.0000,  0.0000)
  18 Li     1.616961    1.617047   13.470256    ( 0.0000,  0.0000,  0.0000)
  19 Li     4.851198    1.617043   13.470219    ( 0.0000,  0.0000,  0.0000)
  20 Li     8.085173    1.617020   13.468967    ( 0.0000,  0.0000,  0.0000)
  21 Li     1.616981    4.851063   13.470142    ( 0.0000,  0.0000,  0.0000)
  22 Li     4.851170    4.851060   13.470152    ( 0.0000,  0.0000,  0.0000)
  23 Li     8.085181    4.851044   13.470212    ( 0.0000,  0.0000,  0.0000)
  24 Li     1.617006    8.085221   13.470123    ( 0.0000,  0.0000,  0.0000)
  25 Li     4.851145    8.085227   13.470121    ( 0.0000,  0.0000,  0.0000)
  26 Li     8.085180    8.085273   13.470254    ( 0.0000,  0.0000,  0.0000)
  27 Li     0.000512   -0.000494   15.445348    ( 0.0000,  0.0000,  0.0000)
  28 Li     3.234008    0.000172   15.445802    ( 0.0000,  0.0000,  0.0000)
  29 Li     6.467694   -0.000500   15.445473    ( 0.0000,  0.0000,  0.0000)
  30 Li     0.000442    3.234472   15.445516    ( 0.0000,  0.0000,  0.0000)
  31 Li     3.234030    3.233909   15.445778    ( 0.0000,  0.0000,  0.0000)
  32 Li     6.467748    3.234484   15.445575    ( 0.0000,  0.0000,  0.0000)
  33 Li    -0.000149    6.468188   15.445791    ( 0.0000,  0.0000,  0.0000)
  34 Li     3.234060    6.468143   15.445784    ( 0.0000,  0.0000,  0.0000)
  35 Li     6.468313    6.468164   15.445747    ( 0.0000,  0.0000,  0.0000)
  36 O      8.087534    1.608020   20.558496    ( 0.0000,  0.0000,  0.0000)
  37 C      9.274533    0.797792   20.467258    ( 0.0000,  0.0000,  0.0000)
  38 C     10.552796    1.620051   20.436601    ( 0.0000,  0.0000,  0.0000)
  39 H      9.259855    0.114791   21.312605    ( 0.0000,  0.0000,  0.0000)
  40 H      9.192374    0.190435   19.553791    ( 0.0000,  0.0000,  0.0000)
  41 H     11.428257    0.966212   20.419767    ( 0.0000,  0.0000,  0.0000)
  42 H     10.586849    2.268735   19.558732    ( 0.0000,  0.0000,  0.0000)
  43 H     10.622346    2.248566   21.328290    ( 0.0000,  0.0000,  0.0000)
  44 H      8.130226    2.218263   21.257202    ( 0.0000,  0.0000,  0.0000)
  45 N      8.081675    1.635688   17.868263    ( 0.0000,  0.0000,  0.0000)
  46 N      8.070619    1.592788   18.939902    ( 0.0000,  0.0000,  0.0000)

Unit cell:
           periodic     x           y           z      points  spacing
  1. axis:    yes    9.702222    0.000000    0.000000    60     0.1617
  2. axis:    yes    0.000000    9.702222    0.000000    60     0.1617
  3. axis:    no     0.000000    0.000000   24.851111   156     0.1593

  Lengths:   9.702222   9.702222  24.851111
  Angles:   90.000000  90.000000  90.000000

Effective grid spacing dv^(1/3) = 0.1609

     iter     time        total  log10-change:
                         energy  eigst   dens
iter:   1 17:45:05  -303.310568  -0.63
iter:   2 17:47:41  -303.215976  -0.82  -1.53
iter:   3 17:50:10  -303.192163  -1.44  -1.73
iter:   4 17:52:41  -303.177062  -1.18  -2.02
Writing to output.gpw (mode='')

iter:   5 17:55:09  -303.177416c -0.98  -2.33
iter:   6 17:57:43  -303.176768c -1.81  -2.18
iter:   7 18:00:27  -303.175578c -2.04  -2.30
iter:   8 18:03:02  -303.176902c -1.92  -2.59
iter:   9 18:05:49  -303.174800c -2.37  -2.56
Writing to output.gpw (mode='')

iter:  10 18:08:24  -303.176474c -1.90  -2.80
iter:  11 18:11:02  -303.175082c -2.30  -2.69
iter:  12 18:13:42  -303.175174c -3.21  -2.88
iter:  13 18:16:28  -303.176463c -2.16  -2.86
iter:  14 18:19:07  -303.174775c -2.58  -2.62
Writing to output.gpw (mode='')

iter:  15 18:21:45  -303.174842c -3.28  -3.16
iter:  16 18:24:30  -303.174973c -3.50  -3.34
iter:  17 18:27:14  -303.174904c -3.26  -3.37
iter:  18 18:29:42  -303.174908c -3.89  -3.40
iter:  19 18:32:13  -303.174914c -4.07  -3.49
Writing to output.gpw (mode='')

iter:  20 18:34:52  -303.174908c -4.06  -3.67
iter:  21 18:37:30  -303.174915c -4.26  -3.74
iter:  22 18:40:15  -303.174908c -4.95  -3.75
iter:  23 18:42:46  -303.174906c -4.85  -3.89
iter:  24 18:45:17  -303.174909c -4.83  -3.97
Writing to output.gpw (mode='')

iter:  25 18:47:52  -303.174899c -5.06  -3.96
iter:  26 18:50:28  -303.174898c -4.74  -4.04c
iter:  27 18:53:04  -303.174899c -5.78  -4.15c
iter:  28 18:55:48  -303.174901c -5.72  -4.25c
iter:  29 18:58:29  -303.174901c -5.90  -4.37c
Writing to output.gpw (mode='')

iter:  30 19:01:05  -303.174901c -5.60  -4.55c
iter:  31 19:03:42  -303.174901c -6.20  -4.42c
iter:  32 19:06:15  -303.174901c -5.94  -4.45c
iter:  33 19:08:51  -303.174901c -6.51  -4.60c
iter:  34 19:11:32  -303.174901c -6.44  -4.59c
Writing to output.gpw (mode='')

iter:  35 19:14:13  -303.174901c -6.16  -4.65c
iter:  36 19:16:42  -303.174901c -6.58  -4.68c
iter:  37 19:19:15  -303.174901c -6.58  -4.65c
iter:  38 19:21:52  -303.174902c -6.02  -4.64c
iter:  39 19:24:20  -303.174902c -6.14  -4.66c
Writing to output.gpw (mode='')

iter:  40 19:27:00  -303.174901c -6.04  -4.92c
iter:  41 19:29:35  -303.174901c -7.08  -5.01c
iter:  42 19:32:03  -303.174902c -7.16  -5.06c
iter:  43 19:34:33  -303.174901c -7.08  -5.09c
iter:  44 19:37:08  -303.174901c -6.73  -5.23c
Writing to output.gpw (mode='')

iter:  45 19:39:41  -303.174901c -7.26  -5.25c
iter:  46 19:42:19  -303.174901c -6.90  -5.34c
iter:  47 19:44:49  -303.174901c -7.34  -5.28c
iter:  48 19:47:29  -303.174901c -7.59c -5.52c

Converged after 48 iterations.

Dipole moment: (6.910093, -9.947323, 0.366522) |e|*Ang

Energy contributions relative to reference atoms: (reference = -14434.854043)

Kinetic:       +182.840770
Potential:     -168.693455
External:        +0.000000
XC:            -317.956383
Entropy (-ST):   -0.151452
Local:           +0.709892
--------------------------
Free energy:   -303.250627
Extrapolated:  -303.174901

Dipole-layer corrected work functions: 3.386436, 2.681856 eV

Showing only first 2 kpts
 Kpt  Band  Eigenvalues  Occupancy
  0    31     -3.28675    1.98729
  0    32     -3.19695    1.92578
  0    33     -2.87202    0.07520
  0    34     -2.78165    0.01274

  1    31     -3.06771    1.32360
  1    32     -3.02834    0.94203
  1    33     -3.00657    0.73107
  1    34     -2.97046    0.43724


Fermi level: -3.03415

No gap
Writing to output.gpw (mode='')


Forces in eV/Ang:
  0 Li    0.01382    0.00002   -0.27303
  1 Li   -0.01422    0.00047   -0.27233
  2 Li    0.00036   -0.00097   -0.27377
  3 Li   -0.00324   -0.00447   -0.27372
  4 Li    0.00406   -0.00382   -0.27368
  5 Li   -0.00070    0.01445   -0.27260
  6 Li   -0.00438    0.00455   -0.27469
  7 Li    0.00473    0.00341   -0.27404
  8 Li   -0.00022   -0.01373   -0.27281
  9 Li    0.00319   -0.00273    0.26558
 10 Li   -0.00054    0.00564    0.25574
 11 Li   -0.00256   -0.00357    0.26599
 12 Li    0.00183    0.00111    0.26868
 13 Li    0.00032   -0.00392    0.25297
 14 Li   -0.00208    0.00252    0.26766
 15 Li   -0.00454    0.00185    0.25539
 16 Li   -0.00030   -0.00182    0.27480
 17 Li    0.00465    0.00137    0.25302
 18 Li   -0.00707    0.00110    0.04986
 19 Li    0.00816    0.00065    0.04639
 20 Li   -0.00115   -0.00197   -0.07323
 21 Li   -0.00554   -0.00458    0.03929
 22 Li    0.00560   -0.00481    0.03988
 23 Li   -0.00024   -0.00588    0.04489
 24 Li   -0.00273    0.00332    0.03695
 25 Li    0.00292    0.00402    0.03701
 26 Li   -0.00038    0.00847    0.05024
 27 Li    0.04907   -0.04759   -0.05550
 28 Li   -0.00622    0.01688   -0.01211
 29 Li   -0.04399   -0.04859   -0.04510
 30 Li    0.04172    0.03777   -0.03875
 31 Li   -0.00443   -0.01633   -0.01450
 32 Li   -0.03813    0.03917   -0.03374
 33 Li   -0.01457    0.00409   -0.01315
 34 Li   -0.00147   -0.00046   -0.01475
 35 Li    0.01627    0.00209   -0.01732
 36 O    -0.00853   -0.39730    9.93004
 37 C     0.98512   -0.64585    1.58275
 38 C     0.02643    0.11834    0.12287
 39 H     0.10373   -0.13495    0.14207
 40 H     0.00569    0.04507    0.66366
 41 H    -0.04061   -0.01415   -0.05103
 42 H     0.03636   -0.01937   -0.00637
 43 H     0.04731    0.00806   -0.02454
 44 H     0.53085    1.38365    3.42797
 45 N    -0.22697    1.77678   -6.80403
 46 N    -1.47415   -2.05740   -8.97893

System changes: positions 

Initializing position-dependent things.

Density initialized from wave functions
       .-----------------------.  
      /|                       |  
     / |                       |  
    /  |                       |  
   /   |                       |  
  /    |                       |  
 *     |                       |  
 |     |                       |  
 |     |                       |  
 |   H |               H       |  
 |     |              O H      |  
 |  CHH|                C      |  
 |     Li             NLH      |  
 |     |                       |  
 |     |     Li      LN      Li|  
 |     |  Li      Li      Li   |  
 | Li  |   Li      Li          |  
 |     |Li      Li      Li     |  
 |     | Li                    |  
 |   LLi     LLi     LLi       |  
 |     |  Li      Li      Li   |  
 | Li  |   Li      Li          |  
 |     |Li      Li      Li     |  
 Li    | Li      Li            |  
 |    Li      Li      Li       |  
 |     |                       |  
 |     |                       |  
 |     |                       |  
 |     |                       |  
 |     |                       |  
 |     |                       |  
 |     .-----------------------.  
 |    /                       /   
 |   /                       /    
 |  /                       /     
 | /                       /      
 |/                       /       
 *-----------------------*        

Positions:
   0 Li     1.617037    1.617037   10.000000    ( 0.0000,  0.0000,  0.0000)
   1 Li     4.851111    1.617037   10.000000    ( 0.0000,  0.0000,  0.0000)
   2 Li     8.085185    1.617037   10.000000    ( 0.0000,  0.0000,  0.0000)
   3 Li     1.617037    4.851111   10.000000    ( 0.0000,  0.0000,  0.0000)
   4 Li     4.851111    4.851111   10.000000    ( 0.0000,  0.0000,  0.0000)
   5 Li     8.085185    4.851111   10.000000    ( 0.0000,  0.0000,  0.0000)
   6 Li     1.617037    8.085185   10.000000    ( 0.0000,  0.0000,  0.0000)
   7 Li     4.851111    8.085185   10.000000    ( 0.0000,  0.0000,  0.0000)
   8 Li     8.085185    8.085185   10.000000    ( 0.0000,  0.0000,  0.0000)
   9 Li     0.000000    0.000000   11.617037    ( 0.0000,  0.0000,  0.0000)
  10 Li     3.234074    0.000000   11.617037    ( 0.0000,  0.0000,  0.0000)
  11 Li     6.468148    0.000000   11.617037    ( 0.0000,  0.0000,  0.0000)
  12 Li     0.000000    3.234074   11.617037    ( 0.0000,  0.0000,  0.0000)
  13 Li     3.234074    3.234074   11.617037    ( 0.0000,  0.0000,  0.0000)
  14 Li     6.468148    3.234074   11.617037    ( 0.0000,  0.0000,  0.0000)
  15 Li     0.000000    6.468148   11.617037    ( 0.0000,  0.0000,  0.0000)
  16 Li     3.234074    6.468148   11.617037    ( 0.0000,  0.0000,  0.0000)
  17 Li     6.468148    6.468148   11.617037    ( 0.0000,  0.0000,  0.0000)
  18 Li     1.616903    1.617051   13.470630    ( 0.0000,  0.0000,  0.0000)
  19 Li     4.851269    1.617045   13.470577    ( 0.0000,  0.0000,  0.0000)
  20 Li     8.085162    1.617009   13.468356    ( 0.0000,  0.0000,  0.0000)
  21 Li     1.616943    4.851028   13.470434    ( 0.0000,  0.0000,  0.0000)
  22 Li     4.851207    4.851027   13.470447    ( 0.0000,  0.0000,  0.0000)
  23 Li     8.085180    4.850985   13.470575    ( 0.0000,  0.0000,  0.0000)
  24 Li     1.616980    8.085249   13.470405    ( 0.0000,  0.0000,  0.0000)
  25 Li     4.851169    8.085256   13.470397    ( 0.0000,  0.0000,  0.0000)
  26 Li     8.085180    8.085342   13.470622    ( 0.0000,  0.0000,  0.0000)
  27 Li     0.000901   -0.000874   15.444913    ( 0.0000,  0.0000,  0.0000)
  28 Li     3.233967    0.000302   15.445705    ( 0.0000,  0.0000,  0.0000)
  29 Li     6.467328   -0.000902   15.445088    ( 0.0000,  0.0000,  0.0000)
  30 Li     0.000808    3.234797   15.445149    ( 0.0000,  0.0000,  0.0000)
  31 Li     3.234000    3.233780   15.445672    ( 0.0000,  0.0000,  0.0000)
  32 Li     6.467399    3.234828   15.445223    ( 0.0000,  0.0000,  0.0000)
  33 Li    -0.000267    6.468200   15.445690    ( 0.0000,  0.0000,  0.0000)
  34 Li     3.234048    6.468143   15.445673    ( 0.0000,  0.0000,  0.0000)
  35 Li     6.468445    6.468163   15.445617    ( 0.0000,  0.0000,  0.0000)
  36 O      8.088482    1.595827   20.593930    ( 0.0000,  0.0000,  0.0000)
  37 C      9.275285    0.798286   20.477589    ( 0.0000,  0.0000,  0.0000)
  38 C     10.553075    1.620421   20.437443    ( 0.0000,  0.0000,  0.0000)
  39 H      9.263277    0.111093   21.314771    ( 0.0000,  0.0000,  0.0000)
  40 H      9.191343    0.192444   19.559708    ( 0.0000,  0.0000,  0.0000)
  41 H     11.428577    0.966200   20.419471    ( 0.0000,  0.0000,  0.0000)
  42 H     10.586828    2.268486   19.558835    ( 0.0000,  0.0000,  0.0000)
  43 H     10.623000    2.248853   21.328415    ( 0.0000,  0.0000,  0.0000)
  44 H      8.136977    2.227599   21.276094    ( 0.0000,  0.0000,  0.0000)
  45 N      8.083083    1.642185   17.828819    ( 0.0000,  0.0000,  0.0000)
  46 N      8.056898    1.590498   18.906171    ( 0.0000,  0.0000,  0.0000)

Unit cell:
           periodic     x           y           z      points  spacing
  1. axis:    yes    9.702222    0.000000    0.000000    60     0.1617
  2. axis:    yes    0.000000    9.702222    0.000000    60     0.1617
  3. axis:    no     0.000000    0.000000   24.851111   156     0.1593

  Lengths:   9.702222   9.702222  24.851111
  Angles:   90.000000  90.000000  90.000000

Effective grid spacing dv^(1/3) = 0.1609

     iter     time        total  log10-change:
                         energy  eigst   dens
iter:   1 19:50:50  -304.226994  -0.69
iter:   2 19:53:26  -304.180556  -1.03  -1.66
iter:   3 19:55:53  -304.168457  -1.62  -1.86
iter:   4 19:58:32  -304.161892c -1.61  -2.12
Writing to output.gpw (mode='')

iter:   5 20:01:06  -304.154090c -1.07  -2.24
iter:   6 20:03:40  -304.155732c -1.74  -2.28
iter:   7 20:06:17  -304.155241c -2.18  -2.31
iter:   8 20:08:58  -304.153815c -1.97  -2.37
iter:   9 20:11:38  -304.152936c -2.52  -2.66
Writing to output.gpw (mode='')

iter:  10 20:14:17  -304.153536c -2.27  -2.85
iter:  11 20:16:53  -304.153495c -3.04  -2.86
iter:  12 20:19:28  -304.153262c -2.99  -2.83
iter:  13 20:22:04  -304.153340c -3.42  -2.90
iter:  14 20:24:42  -304.153465c -3.19  -2.88
Writing to output.gpw (mode='')

iter:  15 20:27:30  -304.153499c -3.71  -2.81
iter:  16 20:30:15  -304.153539c -3.32  -2.84
iter:  17 20:32:46  -304.155430c -2.56  -2.89
iter:  18 20:35:22  -304.152761c -2.30  -2.75
iter:  19 20:37:57  -304.153243c -2.07  -3.06
Writing to output.gpw (mode='')

iter:  20 20:40:32  -304.153096c -3.36  -3.18
iter:  21 20:43:09  -304.153037c -3.37  -3.29
iter:  22 20:45:43  -304.153020c -4.06  -3.38
iter:  23 20:48:25  -304.153701c -2.87  -3.47
iter:  24 20:50:58  -304.153243c -3.63  -3.17
Writing to output.gpw (mode='')

iter:  25 20:53:38  -304.153073c -2.67  -3.32
iter:  26 20:56:09  -304.153011c -3.50  -3.55
iter:  27 20:58:38  -304.153023c -4.10  -3.93
iter:  28 21:01:10  -304.153039c -3.69  -3.89
iter:  29 21:03:46  -304.153053c -4.12  -3.77
Writing to output.gpw (mode='')

iter:  30 21:06:23  -304.153011c -4.01  -3.73
iter:  31 21:08:59  -304.153018c -4.13  -4.11c
iter:  32 21:11:31  -304.153008c -4.82  -4.04c
iter:  33 21:14:02  -304.153011c -4.66  -4.35c
iter:  34 21:16:38  -304.153009c -5.08  -4.31c
Writing to output.gpw (mode='')

iter:  35 21:19:07  -304.153010c -6.11  -4.44c
iter:  36 21:21:38  -304.153011c -5.32  -4.49c
iter:  37 21:24:11  -304.153010c -6.38  -4.50c
iter:  38 21:26:46  -304.153010c -5.47  -4.67c
iter:  39 21:29:17  -304.153010c -6.25  -4.68c
Writing to output.gpw (mode='')

iter:  40 21:31:52  -304.153010c -5.97  -4.88c
iter:  41 21:34:29  -304.153010c -6.21  -5.01c
iter:  42 21:37:09  -304.153010c -6.55  -4.81c
iter:  43 21:39:46  -304.153010c -6.06  -5.06c
iter:  44 21:42:20  -304.153010c -6.89  -5.13c
Writing to output.gpw (mode='')

iter:  45 21:44:57  -304.153010c -7.66c -5.41c

Converged after 45 iterations.

Dipole moment: (6.946566, -9.904927, 0.364723) |e|*Ang

Energy contributions relative to reference atoms: (reference = -14434.854043)

Kinetic:       +178.199075
Potential:     -165.534213
External:        +0.000000
XC:            -317.459648
Entropy (-ST):   -0.151293
Local:           +0.717424
--------------------------
Free energy:   -304.228656
Extrapolated:  -304.153010

Dipole-layer corrected work functions: 3.386626, 2.685504 eV

Showing only first 2 kpts
 Kpt  Band  Eigenvalues  Occupancy
  0    31     -3.28866    1.98729
  0    32     -3.19858    1.92537
  0    33     -2.87349    0.07455
  0    34     -2.78377    0.01279

  1    31     -3.06987    1.32572
  1    32     -3.02987    0.93816
  1    33     -3.00998    0.74495
  1    34     -2.97122    0.42934


Fermi level: -3.03607

No gap

Forces in eV/Ang:
  0 Li    0.01437   -0.00001   -0.27306
  1 Li   -0.01471    0.00042   -0.27231
  2 Li    0.00026   -0.00093   -0.27392
  3 Li   -0.00334   -0.00449   -0.27374
  4 Li    0.00422   -0.00385   -0.27381
  5 Li   -0.00070    0.01493   -0.27262
  6 Li   -0.00434    0.00465   -0.27471
  7 Li    0.00478    0.00354   -0.27420
  8 Li   -0.00024   -0.01429   -0.27279
  9 Li    0.00331   -0.00272    0.26608
 10 Li   -0.00027    0.00577    0.25576
 11 Li   -0.00286   -0.00382    0.26604
 12 Li    0.00181    0.00112    0.26921
 13 Li    0.00056   -0.00402    0.25312
 14 Li   -0.00222    0.00278    0.26778
 15 Li   -0.00453    0.00188    0.25534
 16 Li   -0.00065   -0.00192    0.27493
 17 Li    0.00491    0.00141    0.25325
 18 Li   -0.00693    0.00109    0.04928
 19 Li    0.00854    0.00065    0.04647
 20 Li   -0.00158   -0.00213   -0.07635
 21 Li   -0.00556   -0.00468    0.03900
 22 Li    0.00541   -0.00464    0.03927
 23 Li   -0.00011   -0.00601    0.04496
 24 Li   -0.00277    0.00336    0.03664
 25 Li    0.00275    0.00377    0.03648
 26 Li   -0.00025    0.00867    0.04980
 27 Li    0.05020   -0.04891   -0.05593
 28 Li   -0.00605    0.01741   -0.01173
 29 Li   -0.04645   -0.05103   -0.04788
 30 Li    0.04322    0.03902   -0.04012
 31 Li   -0.00438   -0.01689   -0.01388
 32 Li   -0.04109    0.04170   -0.03756
 33 Li   -0.01519    0.00351   -0.01274
 34 Li   -0.00142   -0.00037   -0.01471
 35 Li    0.01688    0.00163   -0.01677
 36 O    -0.02183   -0.56567    8.07119
 37 C     0.81430   -0.51175    1.35265
 38 C     0.03679    0.08525    0.13454
 39 H     0.22204   -0.27112    0.23460
 40 H    -0.04251    0.10686    0.67410
 41 H    -0.03922   -0.00180   -0.04636
 42 H     0.01447   -0.02410   -0.00008
 43 H     0.07001    0.03203   -0.00192
 44 H     0.60152    1.15193    2.78972
 45 N    -0.02449    1.44509   -5.40418
 46 N    -1.62350   -1.44922   -7.79932

System changes: positions 

Initializing position-dependent things.

Density initialized from wave functions
       .-----------------------.  
      /|                       |  
     / |                       |  
    /  |                       |  
   /   |                       |  
  /    |                       |  
 *     |                       |  
 |     |                       |  
 |     |                       |  
 |   H |               H       |  
 |     |              O H      |  
 |  CHH|                C      |  
 |     Li             NLH      |  
 |     |                       |  
 |     |     Li      LN      Li|  
 |     |  Li      Li      Li   |  
 | Li  |   Li      Li          |  
 |     |Li      Li      Li     |  
 |     | Li                    |  
 |   LLi     LLi     LLi       |  
 |     |  Li      Li      Li   |  
 | Li  |   Li      Li          |  
 |     |Li      Li      Li     |  
 Li    | Li      Li            |  
 |    Li      Li      Li       |  
 |     |                       |  
 |     |                       |  
 |     |                       |  
 |     |                       |  
 |     |                       |  
 |     |                       |  
 |     .-----------------------.  
 |    /                       /   
 |   /                       /    
 |  /                       /     
 | /                       /      
 |/                       /       
 *-----------------------*        

Positions:
   0 Li     1.617037    1.617037   10.000000    ( 0.0000,  0.0000,  0.0000)
   1 Li     4.851111    1.617037   10.000000    ( 0.0000,  0.0000,  0.0000)
   2 Li     8.085185    1.617037   10.000000    ( 0.0000,  0.0000,  0.0000)
   3 Li     1.617037    4.851111   10.000000    ( 0.0000,  0.0000,  0.0000)
   4 Li     4.851111    4.851111   10.000000    ( 0.0000,  0.0000,  0.0000)
   5 Li     8.085185    4.851111   10.000000    ( 0.0000,  0.0000,  0.0000)
   6 Li     1.617037    8.085185   10.000000    ( 0.0000,  0.0000,  0.0000)
   7 Li     4.851111    8.085185   10.000000    ( 0.0000,  0.0000,  0.0000)
   8 Li     8.085185    8.085185   10.000000    ( 0.0000,  0.0000,  0.0000)
   9 Li     0.000000    0.000000   11.617037    ( 0.0000,  0.0000,  0.0000)
  10 Li     3.234074    0.000000   11.617037    ( 0.0000,  0.0000,  0.0000)
  11 Li     6.468148    0.000000   11.617037    ( 0.0000,  0.0000,  0.0000)
  12 Li     0.000000    3.234074   11.617037    ( 0.0000,  0.0000,  0.0000)
  13 Li     3.234074    3.234074   11.617037    ( 0.0000,  0.0000,  0.0000)
  14 Li     6.468148    3.234074   11.617037    ( 0.0000,  0.0000,  0.0000)
  15 Li     0.000000    6.468148   11.617037    ( 0.0000,  0.0000,  0.0000)
  16 Li     3.234074    6.468148   11.617037    ( 0.0000,  0.0000,  0.0000)
  17 Li     6.468148    6.468148   11.617037    ( 0.0000,  0.0000,  0.0000)
  18 Li     1.616832    1.617057   13.471101    ( 0.0000,  0.0000,  0.0000)
  19 Li     4.851363    1.617048   13.471035    ( 0.0000,  0.0000,  0.0000)
  20 Li     8.085142    1.616991   13.467549    ( 0.0000,  0.0000,  0.0000)
  21 Li     1.616893    4.850982   13.470804    ( 0.0000,  0.0000,  0.0000)
  22 Li     4.851253    4.850986   13.470816    ( 0.0000,  0.0000,  0.0000)
  23 Li     8.085181    4.850913   13.471034    ( 0.0000,  0.0000,  0.0000)
  24 Li     1.616948    8.085285   13.470761    ( 0.0000,  0.0000,  0.0000)
  25 Li     4.851197    8.085290   13.470744    ( 0.0000,  0.0000,  0.0000)
  26 Li     8.085181    8.085432   13.471091    ( 0.0000,  0.0000,  0.0000)
  27 Li     0.001412   -0.001375   15.444348    ( 0.0000,  0.0000,  0.0000)
  28 Li     3.233914    0.000476   15.445588    ( 0.0000,  0.0000,  0.0000)
  29 Li     6.466831   -0.001443   15.444563    ( 0.0000,  0.0000,  0.0000)
  30 Li     0.001286    3.235221   15.444676    ( 0.0000,  0.0000,  0.0000)
  31 Li     3.233961    3.233608   15.445544    ( 0.0000,  0.0000,  0.0000)
  32 Li     6.466925    3.235294   15.444737    ( 0.0000,  0.0000,  0.0000)
  33 Li    -0.000426    6.468212   15.445566    ( 0.0000,  0.0000,  0.0000)
  34 Li     3.234034    6.468144   15.445532    ( 0.0000,  0.0000,  0.0000)
  35 Li     6.468620    6.468160   15.445458    ( 0.0000,  0.0000,  0.0000)
  36 O      8.089291    1.581146   20.625879    ( 0.0000,  0.0000,  0.0000)
  37 C      9.275745    0.799281   20.487832    ( 0.0000,  0.0000,  0.0000)
  38 C     10.553603    1.620515   20.438714    ( 0.0000,  0.0000,  0.0000)
  39 H      9.268567    0.105168   21.318593    ( 0.0000,  0.0000,  0.0000)
  40 H      9.189675    0.195353   19.567088    ( 0.0000,  0.0000,  0.0000)
  41 H     11.428786    0.966366   20.419135    ( 0.0000,  0.0000,  0.0000)
  42 H     10.586566    2.268134   19.559009    ( 0.0000,  0.0000,  0.0000)
  43 H     10.624078    2.249520   21.328830    ( 0.0000,  0.0000,  0.0000)
  44 H      8.145724    2.235992   21.292626    ( 0.0000,  0.0000,  0.0000)
  45 N      8.086924    1.647736   17.792869    ( 0.0000,  0.0000,  0.0000)
  46 N      8.037966    1.592403   18.870987    ( 0.0000,  0.0000,  0.0000)

Unit cell:
           periodic     x           y           z      points  spacing
  1. axis:    yes    9.702222    0.000000    0.000000    60     0.1617
  2. axis:    yes    0.000000    9.702222    0.000000    60     0.1617
  3. axis:    no     0.000000    0.000000   24.851111   156     0.1593

  Lengths:   9.702222   9.702222  24.851111
  Angles:   90.000000  90.000000  90.000000

Effective grid spacing dv^(1/3) = 0.1609

     iter     time        total  log10-change:
                         energy  eigst   dens
iter:   1 21:48:09  -305.025190  -0.70
iter:   2 21:50:42  -304.966987  -1.01  -1.63
iter:   3 21:53:18  -304.952410  -1.64  -1.84
iter:   4 21:55:54  -304.941699c -1.48  -2.12
Writing to output.gpw (mode='')

iter:   5 21:58:21  -304.937232c -1.11  -2.33
iter:   6 22:00:52  -304.939126c -1.81  -2.25
iter:   7 22:03:23  -304.941608c -1.78  -2.25
iter:   8 22:06:01  -304.961607c -1.17  -2.23
iter:   9 22:08:42  -304.954083c -2.17  -2.19
Writing to output.gpw (mode='')

iter:  10 22:11:18  -304.961891c -2.01  -2.25
iter:  11 22:13:52  -304.952591c -2.24  -2.03
iter:  12 22:16:25  -304.945120c -2.37  -2.27
iter:  13 22:18:59  -304.935510c -1.58  -2.35
iter:  14 22:21:31  -304.936794c -2.01  -2.63
Writing to output.gpw (mode='')

iter:  15 22:23:58  -304.936880c -2.53  -2.52
iter:  16 22:26:33  -304.936752c -2.83  -2.55
iter:  17 22:29:06  -304.936607c -2.34  -2.58
iter:  18 22:31:42  -304.936358c -2.56  -2.87
iter:  19 22:34:16  -304.937485c -2.17  -2.76
Writing to output.gpw (mode='')

iter:  20 22:36:47  -304.935852c -2.57  -2.75
iter:  21 22:39:24  -304.935970c -3.53  -3.08
iter:  22 22:42:02  -304.935918c -2.88  -3.09
iter:  23 22:44:35  -304.935974c -3.15  -3.15
iter:  24 22:47:04  -304.936061c -3.34  -3.19
Writing to output.gpw (mode='')

iter:  25 22:49:40  -304.935904c -3.81  -3.19
iter:  26 22:52:18  -304.935939c -3.25  -3.36
iter:  27 22:54:57  -304.935930c -4.08  -3.42
iter:  28 22:57:32  -304.935913c -4.57  -3.42
iter:  29 23:00:09  -304.935922c -4.00  -3.56
Writing to output.gpw (mode='')

iter:  30 23:02:47  -304.935906c -4.52  -3.73
iter:  31 23:05:19  -304.935907c -4.26  -4.00
iter:  32 23:07:58  -304.935907c -5.45  -4.09c
iter:  33 23:10:33  -304.935909c -5.14  -4.14c
iter:  34 23:13:11  -304.935908c -5.13  -4.06c
Writing to output.gpw (mode='')

iter:  35 23:15:42  -304.935908c -5.56  -4.41c
iter:  36 23:18:18  -304.935908c -5.56  -4.47c
iter:  37 23:20:51  -304.935908c -5.70  -4.50c
iter:  38 23:23:29  -304.935907c -5.61  -4.52c
iter:  39 23:26:00  -304.935907c -6.60  -4.72c
Writing to output.gpw (mode='')

iter:  40 23:28:33  -304.935907c -6.33  -4.83c
iter:  41 23:31:10  -304.935906c -6.84  -4.98c
iter:  42 23:33:49  -304.935907c -6.45  -5.18c
iter:  43 23:36:27  -304.935906c -7.21  -5.10c
iter:  44 23:39:04  -304.935907c -6.92  -5.20c
Writing to output.gpw (mode='')

iter:  45 23:41:41  -304.935906c -7.48c -5.28c

Converged after 45 iterations.

Dipole moment: (6.983298, -9.844447, 0.351960) |e|*Ang

Energy contributions relative to reference atoms: (reference = -14434.854043)

Kinetic:       +174.636097
Potential:     -163.143334
External:        +0.000000
XC:            -317.076426
Entropy (-ST):   -0.151142
Local:           +0.723327
--------------------------
Free energy:   -305.011477
Extrapolated:  -304.935906

Dipole-layer corrected work functions: 3.386962, 2.710374 eV

Showing only first 2 kpts
 Kpt  Band  Eigenvalues  Occupancy
  0    31     -3.30118    1.98727
  0    32     -3.21089    1.92494
  0    33     -2.88558    0.07381
  0    34     -2.79656    0.01284

  1    31     -3.08270    1.32777
  1    32     -3.04203    0.93374
  1    33     -3.02398    0.75805
  1    34     -2.98272    0.42200


Fermi level: -3.04867

No gap

Forces in eV/Ang:
  0 Li    0.01490   -0.00005   -0.27306
  1 Li   -0.01517    0.00036   -0.27226
  2 Li    0.00010   -0.00090   -0.27399
  3 Li   -0.00341   -0.00452   -0.27370
  4 Li    0.00440   -0.00388   -0.27395
  5 Li   -0.00073    0.01539   -0.27260
  6 Li   -0.00428    0.00475   -0.27467
  7 Li    0.00485    0.00367   -0.27434
  8 Li   -0.00028   -0.01480   -0.27273
  9 Li    0.00343   -0.00267    0.26670
 10 Li    0.00011    0.00587    0.25588
 11 Li   -0.00324   -0.00419    0.26598
 12 Li    0.00182    0.00111    0.26986
 13 Li    0.00093   -0.00411    0.25340
 14 Li   -0.00246    0.00316    0.26779
 15 Li   -0.00446    0.00189    0.25537
 16 Li   -0.00117   -0.00198    0.27516
 17 Li    0.00524    0.00144    0.25367
 18 Li   -0.00659    0.00108    0.04832
 19 Li    0.00894    0.00063    0.04634
 20 Li   -0.00222   -0.00224   -0.07839
 21 Li   -0.00554   -0.00476    0.03853
 22 Li    0.00505   -0.00429    0.03830
 23 Li    0.00010   -0.00610    0.04475
 24 Li   -0.00278    0.00338    0.03612
 25 Li    0.00245    0.00337    0.03568
 26 Li   -0.00008    0.00880    0.04915
 27 Li    0.05115   -0.05011   -0.05680
 28 Li   -0.00595    0.01788   -0.01122
 29 Li   -0.04921   -0.05360   -0.05175
 30 Li    0.04438    0.04017   -0.04183
 31 Li   -0.00441   -0.01738   -0.01316
 32 Li   -0.04450    0.04469   -0.04272
 33 Li   -0.01577    0.00298   -0.01217
 34 Li   -0.00134   -0.00030   -0.01454
 35 Li    0.01745    0.00124   -0.01603
 36 O    -0.10127   -0.43206    6.58268
 37 C     0.71089   -0.51345    1.19381
 38 C     0.02254    0.09413    0.13852
 39 H     0.32739   -0.33457    0.25322
 40 H    -0.07935    0.13794    0.63802
 41 H    -0.03040   -0.00326   -0.04101
 42 H    -0.00297   -0.03272    0.01416
 43 H     0.09177    0.04839    0.01267
 44 H     0.61988    0.87922    2.16142
 45 N     0.18585    1.11271   -4.76776
 46 N    -1.79028   -0.99993   -6.11977

System changes: positions 

Initializing position-dependent things.

Density initialized from wave functions
       .-----------------------.  
      /|                       |  
     / |                       |  
    /  |                       |  
   /   |                       |  
  /    |                       |  
 *     |                       |  
 |     |                       |  
 |     |                       |  
 |   H |               H       |  
 |  C  |              O H      |  
 |   HH|                C      |  
 |     Li              LH      |  
 |     |              N        |  
 |     |     Li      LN      Li|  
 |     |  Li      Li      Li   |  
 | Li  |   Li      Li          |  
 |     |Li      Li      Li     |  
 |     | Li                    |  
 |   LLi     LLi     LLi       |  
 |     |  Li      Li      Li   |  
 | Li  |   Li      Li          |  
 |     |Li      Li      Li     |  
 Li    | Li      Li            |  
 |    Li      Li      Li       |  
 |     |                       |  
 |     |                       |  
 |     |                       |  
 |     |                       |  
 |     |                       |  
 |     |                       |  
 |     .-----------------------.  
 |    /                       /   
 |   /                       /    
 |  /                       /     
 | /                       /      
 |/                       /       
 *-----------------------*        

Positions:
   0 Li     1.617037    1.617037   10.000000    ( 0.0000,  0.0000,  0.0000)
   1 Li     4.851111    1.617037   10.000000    ( 0.0000,  0.0000,  0.0000)
   2 Li     8.085185    1.617037   10.000000    ( 0.0000,  0.0000,  0.0000)
   3 Li     1.617037    4.851111   10.000000    ( 0.0000,  0.0000,  0.0000)
   4 Li     4.851111    4.851111   10.000000    ( 0.0000,  0.0000,  0.0000)
   5 Li     8.085185    4.851111   10.000000    ( 0.0000,  0.0000,  0.0000)
   6 Li     1.617037    8.085185   10.000000    ( 0.0000,  0.0000,  0.0000)
   7 Li     4.851111    8.085185   10.000000    ( 0.0000,  0.0000,  0.0000)
   8 Li     8.085185    8.085185   10.000000    ( 0.0000,  0.0000,  0.0000)
   9 Li     0.000000    0.000000   11.617037    ( 0.0000,  0.0000,  0.0000)
  10 Li     3.234074    0.000000   11.617037    ( 0.0000,  0.0000,  0.0000)
  11 Li     6.468148    0.000000   11.617037    ( 0.0000,  0.0000,  0.0000)
  12 Li     0.000000    3.234074   11.617037    ( 0.0000,  0.0000,  0.0000)
  13 Li     3.234074    3.234074   11.617037    ( 0.0000,  0.0000,  0.0000)
  14 Li     6.468148    3.234074   11.617037    ( 0.0000,  0.0000,  0.0000)
  15 Li     0.000000    6.468148   11.617037    ( 0.0000,  0.0000,  0.0000)
  16 Li     3.234074    6.468148   11.617037    ( 0.0000,  0.0000,  0.0000)
  17 Li     6.468148    6.468148   11.617037    ( 0.0000,  0.0000,  0.0000)
  18 Li     1.616754    1.617066   13.471647    ( 0.0000,  0.0000,  0.0000)
  19 Li     4.851476    1.617053   13.471573    ( 0.0000,  0.0000,  0.0000)
[...]

Converged after 16 iterations.

Dipole moment: (1.275616, -6.340817, 0.205141) |e|*Ang

Energy contributions relative to reference atoms: (reference = -14434.854043)

Kinetic:       +151.341358
Potential:     -147.291026
External:        +0.000000
XC:            -313.406726
Entropy (-ST):   -0.150762
Local:           +0.755205
--------------------------
Free energy:   -308.751951
Extrapolated:  -308.676570

Dipole-layer corrected work functions: 3.394280, 2.999929 eV

Showing only first 2 kpts
 Kpt  Band  Eigenvalues  Occupancy
  0    31     -3.45828    1.98928
  0    32     -3.37051    1.93953
  0    33     -3.02346    0.06018
  0    34     -2.95397    0.01534

  1    31     -3.20765    1.10510
  1    32     -3.18404    0.87014
  1    33     -3.16219    0.66439
  1    34     -3.14545    0.52498


Fermi level: -3.19710

No gap
Writing to output.gpw (mode='')


Forces in eV/Ang:
  0 Li    0.00478    0.00005   -0.27391
  1 Li   -0.00708   -0.00000   -0.27543
  2 Li    0.00258   -0.00107   -0.27500
  3 Li   -0.00195   -0.00235   -0.27795
  4 Li    0.00090   -0.00022   -0.27329
  5 Li    0.00032    0.00635   -0.27480
  6 Li   -0.00185    0.00224   -0.27629
  7 Li    0.00137    0.00116   -0.27660
  8 Li    0.00026   -0.00548   -0.27453
  9 Li    0.02008   -0.01547    0.25598
 10 Li   -0.01034   -0.00630    0.26132
 11 Li   -0.01003   -0.01780    0.27967
 12 Li    0.01857    0.01317    0.26751
 13 Li   -0.01190    0.00347    0.26464
 14 Li   -0.00634    0.00770    0.28320
 15 Li    0.00351    0.00375    0.25783
 16 Li   -0.00282   -0.00126    0.25951
 17 Li   -0.00057    0.00570    0.26523
 18 Li   -0.00018    0.00058   -0.00639
 19 Li   -0.00459    0.00316   -0.00451
 20 Li    0.00060    0.00163    0.01943
 21 Li    0.00158   -0.00115   -0.00192
 22 Li   -0.00281    0.00461   -0.00813
 23 Li   -0.00102   -0.00259   -0.00416
 24 Li    0.00308   -0.00217   -0.00453
 25 Li    0.00161    0.00401   -0.00680
 26 Li   -0.00123   -0.00138   -0.00315
 27 Li   -0.00458    0.00133   -0.00425
 28 Li   -0.00283   -0.00267   -0.00197
 29 Li    0.00192   -0.00699    0.00558
 30 Li    0.01804    0.00024   -0.00576
 31 Li    0.00397    0.00377    0.01161
 32 Li   -0.01521    0.00330    0.00253
 33 Li    0.00077    0.00380   -0.00062
 34 Li    0.00176   -0.00310   -0.00161
 35 Li   -0.00391    0.00080    0.00620
 36 O     0.00386   -0.02746   -0.00527
 37 C    -0.00525    0.01925    0.00545
 38 C    -0.00791    0.00028   -0.00264
 39 H     0.02423    0.03145   -0.01760
 40 H     0.00448   -0.00145    0.01251
 41 H    -0.00742   -0.00877    0.01507
 42 H     0.02057   -0.00049   -0.00074
 43 H     0.02025   -0.02535    0.00240
 44 H    -0.00014    0.00779    0.00911
 45 N     0.01268   -0.05871   -0.01016
 46 N    -0.03473    0.01151    0.01348

System changes: positions 

Initializing position-dependent things.

Density initialized from wave functions
       .-----------------------.  
      /|                       |  
     / |                       |  
    /  |                       |  
   /   |H                      |  
  /    |                       |  
 *     |                      H|  
 |     |                       |  
 |     |               H       |  
 |    H|                       |  
 |  C  |               O C     |  
 |  H H|                       |  
 |     Li              Li      |  
 |     |           N  N        |  
 |     |     Li      Li      Li|  
 |     |  Li      Li      Li   |  
 | Li  |   Li      Li          |  
 |     |Li      Li      Li     |  
 |     | Li                    |  
 |   LLi     LLi     LLi       |  
 |     |  Li      Li      Li   |  
 | Li  |   Li      Li          |  
 |     |Li      Li      Li     |  
 Li    | Li      Li            |  
 |    Li      Li      Li       |  
 |     |                       |  
 |     |                       |  
 |     |                       |  
 |     |                       |  
 |     |                       |  
 |     |                       |  
 |     .-----------------------.  
 |    /                       /   
 |   /                       /    
 |  /                       /     
 | /                       /      
 |/                       /       
 *-----------------------*        

Positions:
   0 Li     1.617037    1.617037   10.000000    ( 0.0000,  0.0000,  0.0000)
   1 Li     4.851111    1.617037   10.000000    ( 0.0000,  0.0000,  0.0000)
   2 Li     8.085185    1.617037   10.000000    ( 0.0000,  0.0000,  0.0000)
   3 Li     1.617037    4.851111   10.000000    ( 0.0000,  0.0000,  0.0000)
   4 Li     4.851111    4.851111   10.000000    ( 0.0000,  0.0000,  0.0000)
   5 Li     8.085185    4.851111   10.000000    ( 0.0000,  0.0000,  0.0000)
   6 Li     1.617037    8.085185   10.000000    ( 0.0000,  0.0000,  0.0000)
   7 Li     4.851111    8.085185   10.000000    ( 0.0000,  0.0000,  0.0000)
   8 Li     8.085185    8.085185   10.000000    ( 0.0000,  0.0000,  0.0000)
   9 Li     0.000000    0.000000   11.617037    ( 0.0000,  0.0000,  0.0000)
  10 Li     3.234074    0.000000   11.617037    ( 0.0000,  0.0000,  0.0000)
  11 Li     6.468148    0.000000   11.617037    ( 0.0000,  0.0000,  0.0000)
  12 Li     0.000000    3.234074   11.617037    ( 0.0000,  0.0000,  0.0000)
  13 Li     3.234074    3.234074   11.617037    ( 0.0000,  0.0000,  0.0000)
  14 Li     6.468148    3.234074   11.617037    ( 0.0000,  0.0000,  0.0000)
  15 Li     0.000000    6.468148   11.617037    ( 0.0000,  0.0000,  0.0000)
  16 Li     3.234074    6.468148   11.617037    ( 0.0000,  0.0000,  0.0000)
  17 Li     6.468148    6.468148   11.617037    ( 0.0000,  0.0000,  0.0000)
  18 Li     1.616806    1.611471   13.480399    ( 0.0000,  0.0000,  0.0000)
  19 Li     4.838309    1.613215   13.461373    ( 0.0000,  0.0000,  0.0000)
  20 Li     8.098162    1.610516   13.440189    ( 0.0000,  0.0000,  0.0000)
  21 Li     1.622266    4.866029   13.478534    ( 0.0000,  0.0000,  0.0000)
  22 Li     4.839026    4.858174   13.477540    ( 0.0000,  0.0000,  0.0000)
  23 Li     8.090582    4.863482   13.467412    ( 0.0000,  0.0000,  0.0000)
  24 Li     1.620177    8.079772   13.487879    ( 0.0000,  0.0000,  0.0000)
  25 Li     4.832720    8.067189   13.473384    ( 0.0000,  0.0000,  0.0000)
  26 Li     8.099659    8.080566   13.475099    ( 0.0000,  0.0000,  0.0000)
  27 Li     0.016350   -0.008081   15.422049    ( 0.0000,  0.0000,  0.0000)
  28 Li     3.241685    0.005139   15.430269    ( 0.0000,  0.0000,  0.0000)
  29 Li     6.453030   -0.031003   15.336075    ( 0.0000,  0.0000,  0.0000)
  30 Li     0.009607    3.251118   15.375720    ( 0.0000,  0.0000,  0.0000)
  31 Li     3.223726    3.224821   15.413559    ( 0.0000,  0.0000,  0.0000)
  32 Li     6.453822    3.252501   15.346489    ( 0.0000,  0.0000,  0.0000)
  33 Li    -0.006831    6.463598   15.437501    ( 0.0000,  0.0000,  0.0000)
  34 Li     3.232335    6.470019   15.448374    ( 0.0000,  0.0000,  0.0000)
  35 Li     6.478573    6.468604   15.413897    ( 0.0000,  0.0000,  0.0000)
  36 O      8.392736    1.329573   21.318534    ( 0.0000,  0.0000,  0.0000)
  37 C      9.581162    0.616880   20.938311    ( 0.0000,  0.0000,  0.0000)
  38 C     10.701538    1.545406   20.490464    ( 0.0000,  0.0000,  0.0000)
  39 H      9.914412   -0.027619   21.761886    ( 0.0000,  0.0000,  0.0000)
  40 H      9.271352   -0.029900   20.114868    ( 0.0000,  0.0000,  0.0000)
  41 H     11.587137    0.972800   20.203757    ( 0.0000,  0.0000,  0.0000)
  42 H     10.385627    2.142491   19.633804    ( 0.0000,  0.0000,  0.0000)
  43 H     10.990072    2.226454   21.295490    ( 0.0000,  0.0000,  0.0000)
  44 H      8.608488    1.873365   22.084405    ( 0.0000,  0.0000,  0.0000)
  45 N      7.879375    1.698409   18.241442    ( 0.0000,  0.0000,  0.0000)
  46 N      6.894002    2.170553   18.375887    ( 0.0000,  0.0000,  0.0000)

Unit cell:
           periodic     x           y           z      points  spacing
  1. axis:    yes    9.702222    0.000000    0.000000    60     0.1617
  2. axis:    yes    0.000000    9.702222    0.000000    60     0.1617
  3. axis:    no     0.000000    0.000000   24.851111   156     0.1593

  Lengths:   9.702222   9.702222  24.851111
  Angles:   90.000000  90.000000  90.000000

Effective grid spacing dv^(1/3) = 0.1609

     iter     time        total  log10-change:
                         energy  eigst   dens
iter:   1 19:50:36  -308.680647  -2.27
iter:   2 19:53:05  -308.677777  -2.91  -2.28
iter:   3 19:55:30  -308.677285c -3.63  -2.67
iter:   4 19:58:09  -308.677117c -3.78  -2.93
Writing to output.gpw (mode='')

iter:   5 20:00:42  -308.677059c -3.57  -3.13
iter:   6 20:03:11  -308.677024c -3.78  -3.31
iter:   7 20:05:41  -308.677036c -3.97  -3.54
iter:   8 20:08:07  -308.677015c -4.44  -3.49
iter:   9 20:10:37  -308.677014c -4.70  -3.78
Writing to output.gpw (mode='')

iter:  10 20:13:14  -308.677012c -5.33  -3.81
iter:  11 20:15:45  -308.677016c -5.25  -3.92
iter:  12 20:18:18  -308.677016c -5.37  -4.24c
iter:  13 20:20:55  -308.677017c -5.75  -4.34c
iter:  14 20:23:38  -308.677017c -6.00  -4.33c
Writing to output.gpw (mode='')

iter:  15 20:26:19  -308.677018c -5.91  -4.32c
iter:  16 20:28:57  -308.677018c -6.15  -4.19c
iter:  17 20:31:29  -308.677017c -6.41  -4.19c
iter:  18 20:34:02  -308.677017c -6.33  -4.32c
iter:  19 20:36:38  -308.677018c -6.44  -4.20c
Writing to output.gpw (mode='')

iter:  20 20:39:22  -308.677017c -6.13  -4.31c
iter:  21 20:41:59  -308.677017c -6.47  -4.40c
iter:  22 20:44:31  -308.677017c -6.53  -4.50c
iter:  23 20:47:13  -308.677017c -6.84  -4.72c
iter:  24 20:49:49  -308.677017c -6.88  -4.91c
Writing to output.gpw (mode='')

iter:  25 20:52:31  -308.677017c -7.31  -4.97c
iter:  26 20:55:02  -308.677017c -7.37  -5.07c
iter:  27 20:57:34  -308.677017c -7.27  -5.15c
iter:  28 21:00:10  -308.677017c -7.50c -5.24c

Converged after 28 iterations.

Dipole moment: (1.351762, -6.514490, 0.206014) |e|*Ang

Energy contributions relative to reference atoms: (reference = -14434.854043)

Kinetic:       +151.569850
Potential:     -147.457681
External:        +0.000000
XC:            -313.468160
Entropy (-ST):   -0.150735
Local:           +0.754341
--------------------------
Free energy:   -308.752385
Extrapolated:  -308.677017

Dipole-layer corrected work functions: 3.394479, 2.998450 eV

Showing only first 2 kpts
 Kpt  Band  Eigenvalues  Occupancy
  0    31     -3.45802    1.98936
  0    32     -3.36995    1.93963
  0    33     -3.02289    0.06026
  0    34     -2.95377    0.01547

  1    31     -3.20716    1.10658
  1    32     -3.18333    0.86937
  1    33     -3.16136    0.66266
  1    34     -3.14438    0.52165


Fermi level: -3.19646

No gap
Writing to output.gpw (mode='')


Forces in eV/Ang:
  0 Li    0.00477    0.00014   -0.27399
  1 Li   -0.00718    0.00002   -0.27550
  2 Li    0.00279   -0.00118   -0.27490
  3 Li   -0.00196   -0.00240   -0.27791
  4 Li    0.00089   -0.00030   -0.27313
  5 Li    0.00040    0.00646   -0.27494
  6 Li   -0.00187    0.00220   -0.27635
  7 Li    0.00140    0.00112   -0.27636
  8 Li    0.00026   -0.00550   -0.27456
  9 Li    0.01932   -0.01493    0.25578
 10 Li   -0.01119   -0.00617    0.25951
 11 Li   -0.00910   -0.01652    0.27951
 12 Li    0.01773    0.01250    0.26670
 13 Li   -0.01283    0.00411    0.26268
 14 Li   -0.00534    0.00648    0.28307
 15 Li    0.00392    0.00405    0.25639
 16 Li   -0.00325   -0.00169    0.25718
 17 Li   -0.00094    0.00608    0.26314
 18 Li    0.00191   -0.00120   -0.00374
 19 Li   -0.00220    0.00241    0.00144
 20 Li   -0.00220    0.00254    0.01308
 21 Li    0.00233   -0.00064   -0.00117
 22 Li   -0.00197    0.00401   -0.00404
 23 Li   -0.00166   -0.00379    0.00169
 24 Li    0.00117   -0.00074   -0.00119
 25 Li    0.00302    0.00456   -0.00283
 26 Li   -0.00028   -0.00139   -0.00014
 27 Li   -0.00203   -0.00139   -0.00465
 28 Li   -0.00330   -0.00177   -0.00428
 29 Li   -0.00035   -0.00663    0.00332
 30 Li    0.01639    0.00221   -0.00476
 31 Li    0.00390    0.00343    0.00942
 32 Li   -0.01449    0.00372    0.00015
 33 Li    0.00040    0.00419   -0.00239
 34 Li    0.00231   -0.00348   -0.00254
 35 Li   -0.00437    0.00031    0.00352
 36 O    -0.03073   -0.02427   -0.01001
 37 C     0.01666    0.00889   -0.00045
 38 C     0.01609    0.00235   -0.00444
 39 H     0.01519    0.00286   -0.01329
 40 H    -0.00014   -0.02276    0.01256
 41 H     0.00501   -0.02279   -0.00061
 42 H     0.01806    0.01611   -0.00717
 43 H     0.01444    0.00153    0.00891
 44 H    -0.00051    0.02724    0.03340
 45 N     0.00312   -0.00512   -0.00112
 46 N    -0.02033    0.01535    0.03276

Timing:                                      incl.     excl.
-------------------------------------------------------------------
Density initialized from wave functions:   268.889   268.872   0.0% |
 Symmetrize density:                         0.017     0.017   0.0% |
Forces:                                   1033.713  1033.713   0.2% |
Hamiltonian:                             11256.950     0.023   0.0% |
 Atomic:                                    19.109     0.176   0.0% |
  XC Correction:                            18.933    18.933   0.0% |
 Calculate atomic Hamiltonians:             62.049    62.049   0.0% |
 Communicate:                               53.327    53.327   0.0% |
 Hartree integrate/restrict:                22.216    22.216   0.0% |
 Initialize Hamiltonian:                     0.000     0.000   0.0% |
 Poisson:                                  477.796   214.901   0.0% |
  Communicate from 1D:                      35.707    35.707   0.0% |
  Communicate from 2D:                      58.157    58.157   0.0% |
  Communicate to 1D:                        14.557    14.557   0.0% |
  Communicate to 2D:                        54.052    54.052   0.0% |
  FFT 1D:                                   50.664    50.664   0.0% |
  FFT 2D:                                   49.760    49.760   0.0% |
 XC 3D grid:                             10617.269  1159.264   0.2% |
  VdW-DF integral:                        9458.005    24.192   0.0% |
   Convolution:                            689.407   689.407   0.1% |
   FFT:                                    120.836   120.836   0.0% |
   gather:                                7335.940  7335.940   1.3% ||
   hmm1:                                   121.305   121.305   0.0% |
   hmm2:                                   162.066   162.066   0.0% |
   iFFT:                                   127.951   127.951   0.0% |
   potential:                              861.522    10.651   0.0% |
    collect:                                74.686    74.686   0.0% |
    p1:                                    340.653   340.653   0.1% |
    p2:                                    231.029   231.029   0.0% |
    sum:                                   204.502   204.502   0.0% |
   splines:                                 14.787    14.787   0.0% |
 vbar:                                       5.160     5.160   0.0% |
LCAO initialization:                        12.522     0.826   0.0% |
 LCAO eigensolver:                           3.184     0.001   0.0% |
  Calculate projections:                     0.000     0.000   0.0% |
  DenseAtomicCorrection:                     0.000     0.000   0.0% |
  Distribute overlap matrix:                 2.954     2.954   0.0% |
  Orbital Layouts:                           0.122     0.122   0.0% |
  Potential matrix:                          0.101     0.101   0.0% |
  Sum over cells:                            0.005     0.005   0.0% |
 LCAO to grid:                               6.802     6.802   0.0% |
 Set positions (LCAO WFS):                   1.710     1.269   0.0% |
  Basic WFS set positions:                   0.004     0.004   0.0% |
  Basis functions set positions:             0.001     0.001   0.0% |
  P tci:                                     0.000     0.000   0.0% |
  ST tci:                                    0.246     0.246   0.0% |
  mktci:                                     0.190     0.190   0.0% |
Redistribute:                                0.182     0.182   0.0% |
SCF-cycle:                               551790.658  7095.589   1.2% |
 Davidson:                               179184.876 71934.529  12.7% |----|
  Apply hamiltonian:                     10987.901 10987.901   1.9% ||
  Subspace diag:                         25247.277     1.230   0.0% |
   calc_h_matrix:                        15330.554  4538.547   0.8% |
    Apply hamiltonian:                   10792.006 10792.006   1.9% ||
   diagonalize:                            838.955   838.955   0.1% |
   rotate_psi:                            9076.538  9076.538   1.6% ||
  calc. matrices:                        53374.947 33357.014   5.9% |-|
   Apply hamiltonian:                    20017.933 20017.933   3.5% ||
  diagonalize:                              82.374    82.374   0.0% |
  rotate_psi:                            17557.847 17557.847   3.1% ||
 Density:                                 3621.802     0.257   0.0% |
  Atomic density matrices:                 916.166   916.166   0.2% |
  Mix:                                    1111.911  1111.911   0.2% |
  Multipole moments:                        13.969    13.969   0.0% |
  Pseudo density:                         1579.499  1579.325   0.3% |
   Symmetrize density:                       0.174     0.174   0.0% |
 Hamiltonian:                            361459.335     1.046   0.0% |
  Atomic:                                  599.570     7.395   0.0% |
   XC Correction:                          592.174   592.174   0.1% |
  Calculate atomic Hamiltonians:          1905.467  1905.467   0.3% |
  Communicate:                            1778.288  1778.288   0.3% |
  Hartree integrate/restrict:              671.603   671.603   0.1% |
  Poisson:                               14934.654  6755.223   1.2% |
   Communicate from 1D:                   1103.243  1103.243   0.2% |
   Communicate from 2D:                   1810.397  1810.397   0.3% |
   Communicate to 1D:                      456.639   456.639   0.1% |
   Communicate to 2D:                     1696.346  1696.346   0.3% |
   FFT 1D:                                1545.923  1545.923   0.3% |
   FFT 2D:                                1566.883  1566.883   0.3% |
  XC 3D grid:                            341407.493 36233.364   6.4% |--|
   VdW-DF integral:                      305174.130   788.052   0.1% |
    Convolution:                         21552.423 21552.423   3.8% |-|
    FFT:                                  3763.075  3763.075   0.7% |
    gather:                              239521.515 239521.515  42.2% |----------------|
    hmm1:                                 3732.916  3732.916   0.7% |
    hmm2:                                 4988.274  4988.274   0.9% |
    iFFT:                                 3925.064  3925.064   0.7% |
    potential:                           26902.747   322.683   0.1% |
     collect:                             2464.552  2464.552   0.4% |
     p1:                                 10726.869 10726.869   1.9% ||
     p2:                                  7139.626  7139.626   1.3% ||
     sum:                                 6249.018  6249.018   1.1% |
    splines:                                 0.064     0.064   0.0% |
  vbar:                                    161.214   161.214   0.0% |
 Orthonormalize:                           429.055     0.069   0.0% |
  calc_s_matrix:                            69.260    69.260   0.0% |
  inverse-cholesky:                         11.032    11.032   0.0% |
  projections:                             199.090   199.090   0.0% |
  rotate_psi_s:                            149.605   149.605   0.0% |
Set symmetry:                                0.003     0.003   0.0% |
Other:                                    3311.679  3311.679   0.6% |
-------------------------------------------------------------------
Total:                                             567674.596 100.0%

Memory usage: 1.58 GiB
Date: Mon Feb 13 21:00:20 2023
