
  ___ ___ ___ _ _ _  
 |   |   |_  | | | | 
 | | | | | . | | | | 
 |__ |  _|___|_____|  22.8.0
 |___|_|             

User:   vazumah@c07.hercules
Date:   Fri Mar 10 10:22:59 2023
Arch:   x86_64
Pid:    22069
CWD:    /home/vazumah/Python_projects/LiNRR/Li_adsorb_studies/proton_donors/N2_with_proton_donor/Li_BCC_100/adsorbates/HF/bridge/0.0_1.617/N2_x
Python: 3.10.8
gpaw:   /home/vazumah/.conda/envs/GPAW/lib/python3.10/site-packages/gpaw
_gpaw:  /home/vazumah/.conda/envs/GPAW/lib/python3.10/site-packages/
        _gpaw.cpython-310-x86_64-linux-gnu.so
ase:    /home/vazumah/.conda/envs/GPAW/lib/python3.10/site-packages/ase (version 3.22.1)
numpy:  /home/vazumah/.conda/envs/GPAW/lib/python3.10/site-packages/numpy (version 1.24.1)
scipy:  /home/vazumah/.conda/envs/GPAW/lib/python3.10/site-packages/scipy (version 1.10.0)
libxc:  5.2.3
units:  Angstrom and eV
cores: 24
OpenMP: True
OMP_NUM_THREADS: 1

Reading from output.gpw
Reading input parameters:
  h: 0.16
  kpts: {size: [4, 4, 1]}
  occupations: {name: fermi-dirac,
                width: 0.05}
  poissonsolver: {dipolelayer: xy}
  xc: BEEF-vdW

Initialize ...

species:
  Li:
    name: Lithium
    id: 830b4218f175192f93f959cfc0aad614
    Z: 3.0
    valence: 1
    core: 2
    charge: 0.0
    file: /home/vazumah/.conda/envs/GPAW/share/gpaw/Li.PBE.gz
    compensation charges: {type: gauss,
                           rc: 0.33,
                           lmax: 2}
    cutoffs: {filter: 1.91,
              core: 2.55}
    valence states:
      #              energy  rcut
      - 2s(1.00)    -2.874   1.058
      - 2p(0.00)    -1.090   1.058
      -  s          24.337   1.058
  
    # Using partial waves for Li as LCAO basis

  F:
    name: Fluorine
    id: 9cd46ba2a61e170ad72278be75b55cc0
    Z: 9.0
    valence: 7
    core: 2
    charge: 0.0
    file: /home/vazumah/.conda/envs/GPAW/share/gpaw/F.PBE.gz
    compensation charges: {type: gauss,
                           rc: 0.20,
                           lmax: 2}
    cutoffs: {filter: 1.14,
              core: 0.74}
    valence states:
      #              energy  rcut
      - 2s(2.00)   -29.898   0.635
      - 2p(5.00)   -11.110   0.635
      -  s          -2.687   0.635
      -  p          16.102   0.635
      -  d           0.000   0.635
  
    # Using partial waves for F as LCAO basis

  H:
    name: Hydrogen
    id: d65de229564ff8ea4db303e23b6d1ecf
    Z: 1.0
    valence: 1
    core: 0
    charge: 0.0
    file: /home/vazumah/.conda/envs/GPAW/share/gpaw/H.PBE.gz
    compensation charges: {type: gauss,
                           rc: 0.15,
                           lmax: 2}
    cutoffs: {filter: 0.85,
              core: 0.53}
    valence states:
      #              energy  rcut
      - 1s(1.00)    -6.494   0.476
      -  s          20.717   0.476
      -  p           0.000   0.476
  
    # Using partial waves for H as LCAO basis

  N:
    name: Nitrogen
    id: f7500608b86eaa90eef8b1d9a670dc53
    Z: 7.0
    valence: 5
    core: 2
    charge: 0.0
    file: /home/vazumah/.conda/envs/GPAW/share/gpaw/N.PBE.gz
    compensation charges: {type: gauss,
                           rc: 0.18,
                           lmax: 2}
    cutoffs: {filter: 1.11,
              core: 0.96}
    valence states:
      #              energy  rcut
      - 2s(2.00)   -18.583   0.603
      - 2p(3.00)    -7.089   0.529
      -  s           8.629   0.603
      -  p          20.123   0.529
      -  d           0.000   0.577
  
    # Using partial waves for N as LCAO basis

Reference energy: -12990.375485  # eV

Spin-paired calculation

Convergence criteria:
 Maximum [total energy] change in last 3 cyles: 0.0005 eV / electron
 Maximum integral of absolute [dens]ity change: 0.0001 electrons / valence electron
 Maximum integral of absolute [eigenst]ate change: 4e-08 eV^2 / valence electron
 Maximum number of scf [iter]ations: 333
 (Square brackets indicate name in SCF output, whereas a 'c' in
 the SCF output indicates the quantity has converged.)

Symmetries present (total): 1

  ( 1  0  0)
  ( 0  1  0)
  ( 0  0  1)

16 k-points: 4 x 4 x 1 Monkhorst-Pack grid
8 k-points in the irreducible part of the Brillouin zone
       k-points in crystal coordinates                weights
   0:     0.12500000   -0.37500000    0.00000000          2/16
   1:     0.12500000   -0.12500000    0.00000000          2/16
   2:     0.12500000    0.12500000    0.00000000          2/16
   3:     0.12500000    0.37500000    0.00000000          2/16
   4:     0.37500000   -0.37500000    0.00000000          2/16
   5:     0.37500000   -0.12500000    0.00000000          2/16
   6:     0.37500000    0.12500000    0.00000000          2/16
   7:     0.37500000    0.37500000    0.00000000          2/16

Wave functions: Uniform real-space grid
  Kinetic energy operator: 6*3+1=19 point O(h^6) finite-difference Laplacian
  ScaLapack parameters: grid=1x1, blocksize=None
  Wavefunction extrapolation:
    Improved wavefunction reuse through dual PAW basis 

Occupation numbers: Fermi-Dirac:
  width: 0.0500  # eV
 

Eigensolver
   Davidson(niter=2) 

Densities:
  Coarse grid: 60*60*168 grid
  Fine grid: 120*120*336 grid
  Total Charge: 0.000000 

Density mixing:
  Method: separate
  Backend: pulay
  Linear mixing parameter: 0.05
  old densities: 5
  Damping of long wavelength oscillations: 50 

Hamiltonian:
  XC and Coulomb potentials evaluated on a 120*120*336 grid
  Using the BEEF-vdW Exchange-Correlation functional
  Interpolation: tri-quintic (5. degree polynomial)
  Poisson solver: FastPoissonSolver using
    Stencil: 6*3+1=19 point O(h^6) finite-difference Laplacian
    FFT axes: [0, 1]
    FST axes: [2]

Dipole correction along z-axis 

XC parameters: BEEF-vdW with 2 nearest neighbor stencil

Memory estimate:
  Process memory now: 228.68 MiB
  Calculator: 394.09 MiB
    Density: 120.69 MiB
      Arrays: 39.61 MiB
      Localized functions: 65.98 MiB
      Mixer: 15.11 MiB
    Hamiltonian: 31.12 MiB
      Arrays: 25.90 MiB
      XC: 0.00 MiB
      Poisson: 0.00 MiB
      vbar: 5.22 MiB
    Wavefunctions: 242.28 MiB
      Arrays psit_nG: 111.79 MiB
      Eigensolver: 127.10 MiB
      Projections: 0.04 MiB
      Projectors: 3.35 MiB

Total number of cores used: 24
Parallelization over k-points: 8
Domain decomposition: 1 x 1 x 3

Number of atoms: 40
Number of atomic orbitals: 157
Number of bands in calculation: 37
Number of valence electrons: 54
Bands to converge: occupied

... initialized

Initializing position-dependent things.

Creating initial wave functions:
  37 bands from LCAO basis set

       .-----------------------.  
      /|                       |  
     / |                       |  
    /  |                       |  
   /   |                       |  
  /    |                       |  
 *     |                       |  
 |     |                       |  
 |     |                       |  
 |     |                       |  
 |     |                       |  
 |     |                       |  
 |     |                       |  
 |     |                       |  
 | F   |       Li              |  
 |H    |                       |  
 |     |     Li      Li      Li|  
 |     |  Li      Li    N Li   |  
 | Li  |    Li      Li         |  
 |     |Li      Li    N Li     |  
 Li    |          Li           |  
 |   LLi     LLi     LLi       |  
 |     |  Li      Li      Li   |  
 | Li  |   Li      Li          |  
 |     |Li      Li      Li     |  
 Li    | Li      Li            |  
 |    Li      Li      Li       |  
 |     |                       |  
 |     |                       |  
 |     |                       |  
 |     |                       |  
 |     |                       |  
 |     |                       |  
 |     .-----------------------.  
 |    /                       /   
 |   /                       /    
 |  /                       /     
 | /                       /      
 |/                       /       
 *-----------------------*        

Positions:
   0 Li     1.617037    1.617037   10.000000    ( 0.0000,  0.0000,  0.0000)
   1 Li     4.851111    1.617037   10.000000    ( 0.0000,  0.0000,  0.0000)
   2 Li     8.085185    1.617037   10.000000    ( 0.0000,  0.0000,  0.0000)
   3 Li     1.617037    4.851111   10.000000    ( 0.0000,  0.0000,  0.0000)
   4 Li     4.851111    4.851111   10.000000    ( 0.0000,  0.0000,  0.0000)
   5 Li     8.085185    4.851111   10.000000    ( 0.0000,  0.0000,  0.0000)
   6 Li     1.617037    8.085185   10.000000    ( 0.0000,  0.0000,  0.0000)
   7 Li     4.851111    8.085185   10.000000    ( 0.0000,  0.0000,  0.0000)
   8 Li     8.085185    8.085185   10.000000    ( 0.0000,  0.0000,  0.0000)
   9 Li     0.000000    0.000000   11.617037    ( 0.0000,  0.0000,  0.0000)
  10 Li     3.234074    0.000000   11.617037    ( 0.0000,  0.0000,  0.0000)
  11 Li     6.468148    0.000000   11.617037    ( 0.0000,  0.0000,  0.0000)
  12 Li     0.000000    3.234074   11.617037    ( 0.0000,  0.0000,  0.0000)
  13 Li     3.234074    3.234074   11.617037    ( 0.0000,  0.0000,  0.0000)
  14 Li     6.468148    3.234074   11.617037    ( 0.0000,  0.0000,  0.0000)
  15 Li     0.000000    6.468148   11.617037    ( 0.0000,  0.0000,  0.0000)
  16 Li     3.234074    6.468148   11.617037    ( 0.0000,  0.0000,  0.0000)
  17 Li     6.468148    6.468148   11.617037    ( 0.0000,  0.0000,  0.0000)
  18 Li     1.711975    1.616735   13.538370    ( 0.0000,  0.0000,  0.0000)
  19 Li     4.847792    1.616931   13.517521    ( 0.0000,  0.0000,  0.0000)
  20 Li     8.064372    1.615447   13.614082    ( 0.0000,  0.0000,  0.0000)
  21 Li     1.654314    4.799344   13.563828    ( 0.0000,  0.0000,  0.0000)
  22 Li     4.941854    4.826061   13.543630    ( 0.0000,  0.0000,  0.0000)
  23 Li     8.142598    4.862332   13.496740    ( 0.0000,  0.0000,  0.0000)
  24 Li     1.654187    8.137755   13.565122    ( 0.0000,  0.0000,  0.0000)
  25 Li     4.941558    8.110735   13.544045    ( 0.0000,  0.0000,  0.0000)
  26 Li     8.143059    8.074654   13.498238    ( 0.0000,  0.0000,  0.0000)
  27 Li     0.024156    0.024531   15.613152    ( 0.0000,  0.0000,  0.0000)
  28 Li     3.441630   -0.031889   15.594650    ( 0.0000,  0.0000,  0.0000)
  29 Li     6.775564    0.097485   15.519157    ( 0.0000,  0.0000,  0.0000)
  30 Li     0.024440    3.212028   15.612213    ( 0.0000,  0.0000,  0.0000)
  31 Li     3.441818    3.265991   15.592376    ( 0.0000,  0.0000,  0.0000)
  32 Li     6.778022    3.135613   15.520072    ( 0.0000,  0.0000,  0.0000)
  33 Li    -0.004639    6.468206   15.499195    ( 0.0000,  0.0000,  0.0000)
  34 Li     3.216066    6.467994   15.473865    ( 0.0000,  0.0000,  0.0000)
  35 Li     6.458313    6.467903   15.482292    ( 0.0000,  0.0000,  0.0000)
  36 F      0.607348    1.548353   19.040744    ( 0.0000,  0.0000,  0.0000)
  37 H      0.081210    1.560095   18.257927    ( 0.0000,  0.0000,  0.0000)
  38 N     -0.734076    1.613573   16.574814    ( 0.0000,  0.0000,  0.0000)
  39 N     -1.422586    1.616669   15.532418    ( 0.0000,  0.0000,  0.0000)

Unit cell:
           periodic     x           y           z      points  spacing
  1. axis:    yes    9.702222    0.000000    0.000000    60     0.1617
  2. axis:    yes    0.000000    9.702222    0.000000    60     0.1617
  3. axis:    no     0.000000    0.000000   26.601111   168     0.1583

  Lengths:   9.702222   9.702222  26.601111
  Angles:   90.000000  90.000000  90.000000

Effective grid spacing dv^(1/3) = 0.1606

     iter     time        total  log10-change:
                         energy  eigst   dens
iter:   1 10:26:47  -253.399224  +0.98
iter:   2 10:29:11  -253.846332  +0.34  -1.77
iter:   3 10:31:34  -253.969931  -0.12  -2.04
iter:   4 10:34:05  -254.017759  -0.52  -2.24
Writing to output.gpw (mode='')

iter:   5 10:36:35  -254.038177  -0.88  -2.44
iter:   6 10:39:07  -254.048007  -1.20  -2.72
iter:   7 10:41:38  -254.052850c -1.49  -2.85
iter:   8 10:44:14  -254.055825c -1.73  -3.12
iter:   9 10:46:40  -254.057649c -1.93  -2.99
Writing to output.gpw (mode='')

iter:  10 10:49:10  -254.058836c -2.11  -2.87
iter:  11 10:51:51  -254.059508c -2.31  -2.80
iter:  12 10:54:28  -254.059958c -2.44  -2.83
iter:  13 10:56:57  -254.060368c -2.63  -2.99
iter:  14 10:59:25  -254.060650c -2.69  -2.90
Writing to output.gpw (mode='')

iter:  15 11:02:03  -254.060890c -2.82  -2.99
iter:  16 11:04:39  -254.061075c -2.98  -2.95
iter:  17 11:07:11  -254.061208c -3.06  -2.89
iter:  18 11:09:41  -254.061266c -3.14  -2.87
iter:  19 11:12:14  -254.061360c -3.26  -2.87
Writing to output.gpw (mode='')

iter:  20 11:14:44  -254.061315c -3.15  -2.84
iter:  21 11:17:17  -254.061406c -3.33  -2.97
iter:  22 11:19:49  -254.061454c -3.52  -3.02
iter:  23 11:22:17  -254.061466c -3.59  -3.00
iter:  24 11:24:54  -254.061458c -3.67  -3.00
Writing to output.gpw (mode='')

iter:  25 11:27:25  -254.061474c -3.73  -3.11
iter:  26 11:29:57  -254.061469c -3.61  -3.14
iter:  27 11:32:27  -254.061459c -4.04  -3.23
iter:  28 11:35:00  -254.061454c -4.14  -3.32
iter:  29 11:37:37  -254.061476c -4.06  -3.42
Writing to output.gpw (mode='')

iter:  30 11:40:19  -254.061494c -4.26  -3.52
iter:  31 11:42:55  -254.061504c -4.52  -3.56
iter:  32 11:45:29  -254.061505c -4.47  -3.68
iter:  33 11:48:02  -254.061509c -4.76  -3.84
iter:  34 11:50:34  -254.061507c -4.67  -3.92
Writing to output.gpw (mode='')

iter:  35 11:53:08  -254.061515c -4.87  -4.02c
iter:  36 11:55:37  -254.061519c -4.95  -4.22c
iter:  37 11:58:11  -254.061520c -5.09  -4.21c
iter:  38 12:00:47  -254.061522c -5.26  -4.18c
iter:  39 12:03:15  -254.061522c -5.18  -4.16c
Writing to output.gpw (mode='')

iter:  40 12:05:48  -254.061524c -5.38  -4.13c
iter:  41 12:08:20  -254.061526c -5.48  -4.11c
iter:  42 12:10:52  -254.061527c -5.40  -4.12c
iter:  43 12:13:20  -254.061527c -5.61  -4.10c
iter:  44 12:15:52  -254.061527c -5.72  -4.09c
Writing to output.gpw (mode='')

iter:  45 12:18:34  -254.061527c -5.69  -4.07c
iter:  46 12:21:02  -254.061528c -5.84  -4.07c
iter:  47 12:23:29  -254.061530c -5.85  -4.04c
iter:  48 12:26:00  -254.061530c -5.70  -4.10c
iter:  49 12:28:45  -254.061528c -5.67  -4.15c
Writing to output.gpw (mode='')

iter:  50 12:31:21  -254.061530c -6.09  -4.25c
iter:  51 12:33:53  -254.061530c -5.89  -4.30c
iter:  52 12:36:19  -254.061531c -6.10  -4.35c
iter:  53 12:38:40  -254.061527c -5.98  -4.43c
iter:  54 12:41:19  -254.061528c -6.21  -4.61c
Writing to output.gpw (mode='')

iter:  55 12:43:54  -254.061529c -6.30  -4.81c
iter:  56 12:46:31  -254.061529c -6.35  -5.04c
iter:  57 12:49:04  -254.061528c -6.54  -5.08c
iter:  58 12:51:52  -254.061529c -6.61  -4.95c
iter:  59 12:54:21  -254.061529c -6.61  -5.12c
Writing to output.gpw (mode='')

iter:  60 12:56:53  -254.061529c -6.88  -5.08c
iter:  61 12:59:24  -254.061529c -6.81  -5.02c
iter:  62 13:01:54  -254.061529c -6.85  -5.16c
iter:  63 13:04:19  -254.061530c -6.85  -5.19c
iter:  64 13:07:01  -254.061530c -6.88  -5.18c
Writing to output.gpw (mode='')

iter:  65 13:09:39  -254.061530c -7.10  -5.10c
iter:  66 13:12:08  -254.061530c -7.31  -5.19c
iter:  67 13:14:36  -254.061530c -7.25  -5.15c
iter:  68 13:17:00  -254.061530c -7.31  -5.17c
iter:  69 13:19:27  -254.061530c -7.28  -5.32c
Writing to output.gpw (mode='')

iter:  70 13:21:58  -254.061530c -7.41c -5.56c

Converged after 70 iterations.

Dipole moment: (-4.962239, -3.073616, -0.409186) |e|*Ang

Energy contributions relative to reference atoms: (reference = -12990.375485)

Kinetic:       +105.017045
Potential:      -94.701562
External:        +0.000000
XC:            -264.728360
Entropy (-ST):   -0.181208
Local:           +0.441951
--------------------------
Free energy:   -254.152133
Extrapolated:  -254.061530

Dipole-layer corrected work functions: 3.409368, 4.195964 eV

Showing only first 2 kpts
 Kpt  Band  Eigenvalues  Occupancy
  0    25     -4.01472    1.97162
  0    26     -3.81377    1.11060
  0    27     -3.74947    0.51314
  0    28     -3.61756    0.04815

  1    25     -3.96652    1.92727
  1    26     -3.80903    1.06351
  1    27     -3.75127    0.52694
  1    28     -3.65350    0.09637


Fermi level: -3.80267

Gap: 0.018 eV
Transition (v -> c):
  (s=0, k=1, n=26, [0.12, -0.12, 0.00]) -> (s=0, k=7, n=27, [0.38, 0.38, 0.00])

Forces in eV/Ang:
  0 Li    0.00580    0.00007   -0.28076
  1 Li    0.00048    0.00005   -0.27899
  2 Li   -0.00710   -0.00000   -0.27274
  3 Li   -0.01610    0.01153   -0.28946
  4 Li   -0.01288    0.01130   -0.28411
  5 Li   -0.01576    0.01353   -0.29359
  6 Li   -0.01608   -0.01150   -0.28945
  7 Li   -0.01286   -0.01126   -0.28419
  8 Li   -0.01572   -0.01348   -0.29368
  9 Li   -0.00632    0.05144    0.35568
 10 Li    0.01444   -0.01500    0.26826
 11 Li    0.03366    0.04220    0.31277
 12 Li   -0.00652   -0.05199    0.35582
 13 Li    0.01432    0.01473    0.26844
 14 Li    0.03387   -0.04286    0.31292
 15 Li    0.06804    0.00050    0.27759
 16 Li    0.03911    0.00036    0.35326
 17 Li    0.04217    0.00079    0.26755
 18 Li    0.00080    0.00017   -0.02964
 19 Li    0.00501   -0.00021    0.01981
 20 Li   -0.01692    0.00378   -0.02143
 21 Li   -0.00736    0.01088   -0.00403
 22 Li   -0.01816   -0.00873    0.01489
 23 Li    0.00427   -0.00431    0.00425
 24 Li   -0.00757   -0.01089   -0.00537
 25 Li   -0.01839    0.00794    0.01490
 26 Li    0.00384    0.00359    0.00206
 27 Li    0.00054    0.00738   -0.00821
 28 Li   -0.03139   -0.00146   -0.02320
 29 Li    0.01045    0.01563   -0.02531
 30 Li   -0.00974   -0.03450    0.00968
 31 Li   -0.03129    0.00161   -0.02349
 32 Li    0.00729   -0.01485   -0.02751
 33 Li    0.00878    0.00012   -0.02452
 34 Li    0.00561    0.00001    0.00295
 35 Li    0.00179   -0.00001    0.00660
 36 F    -0.03200   -0.01575    0.03073
 37 H    -0.01908    0.00097   -0.02492
 38 N     0.08719    0.04608    0.07940
 39 N    -0.07662   -0.00811   -0.10022

System changes: positions 

Initializing position-dependent things.

Density initialized from wave functions
       .-----------------------.  
      /|                       |  
     / |                       |  
    /  |                       |  
   /   |                       |  
  /    |                       |  
 *     |                       |  
 |     |                       |  
 |     |                       |  
 |     |                       |  
 |     |                       |  
 |     |                       |  
 |     |                       |  
 |     |                       |  
 | F   |       Li              |  
 |H    |                       |  
 |     |     Li      Li      Li|  
 |     |  Li      Li    N Li   |  
 | Li  |    Li      Li         |  
 |     |Li      Li    N Li     |  
 Li    |          Li           |  
 |   LLi     LLi     LLi       |  
 |     |  Li      Li      Li   |  
 | Li  |   Li      Li          |  
 |     |Li      Li      Li     |  
 Li    | Li      Li            |  
 |    Li      Li      Li       |  
 |     |                       |  
 |     |                       |  
 |     |                       |  
 |     |                       |  
 |     |                       |  
 |     |                       |  
 |     .-----------------------.  
 |    /                       /   
 |   /                       /    
 |  /                       /     
 | /                       /      
 |/                       /       
 *-----------------------*        

Positions:
   0 Li     1.617037    1.617037   10.000000    ( 0.0000,  0.0000,  0.0000)
   1 Li     4.851111    1.617037   10.000000    ( 0.0000,  0.0000,  0.0000)
   2 Li     8.085185    1.617037   10.000000    ( 0.0000,  0.0000,  0.0000)
   3 Li     1.617037    4.851111   10.000000    ( 0.0000,  0.0000,  0.0000)
   4 Li     4.851111    4.851111   10.000000    ( 0.0000,  0.0000,  0.0000)
   5 Li     8.085185    4.851111   10.000000    ( 0.0000,  0.0000,  0.0000)
   6 Li     1.617037    8.085185   10.000000    ( 0.0000,  0.0000,  0.0000)
   7 Li     4.851111    8.085185   10.000000    ( 0.0000,  0.0000,  0.0000)
   8 Li     8.085185    8.085185   10.000000    ( 0.0000,  0.0000,  0.0000)
   9 Li     0.000000    0.000000   11.617037    ( 0.0000,  0.0000,  0.0000)
  10 Li     3.234074    0.000000   11.617037    ( 0.0000,  0.0000,  0.0000)
  11 Li     6.468148    0.000000   11.617037    ( 0.0000,  0.0000,  0.0000)
  12 Li     0.000000    3.234074   11.617037    ( 0.0000,  0.0000,  0.0000)
  13 Li     3.234074    3.234074   11.617037    ( 0.0000,  0.0000,  0.0000)
  14 Li     6.468148    3.234074   11.617037    ( 0.0000,  0.0000,  0.0000)
  15 Li     0.000000    6.468148   11.617037    ( 0.0000,  0.0000,  0.0000)
  16 Li     3.234074    6.468148   11.617037    ( 0.0000,  0.0000,  0.0000)
  17 Li     6.468148    6.468148   11.617037    ( 0.0000,  0.0000,  0.0000)
  18 Li     1.711411    1.616795   13.534815    ( 0.0000,  0.0000,  0.0000)
  19 Li     4.849057    1.616950   13.520661    ( 0.0000,  0.0000,  0.0000)
  20 Li     8.062213    1.615323   13.615049    ( 0.0000,  0.0000,  0.0000)
  21 Li     1.653039    4.800232   13.563193    ( 0.0000,  0.0000,  0.0000)
  22 Li     4.939499    4.824265   13.546311    ( 0.0000,  0.0000,  0.0000)
  23 Li     8.143484    4.861300   13.497422    ( 0.0000,  0.0000,  0.0000)
  24 Li     1.653012    8.136786   13.564280    ( 0.0000,  0.0000,  0.0000)
  25 Li     4.939178    8.112506   13.546660    ( 0.0000,  0.0000,  0.0000)
  26 Li     8.143893    8.075588   13.498658    ( 0.0000,  0.0000,  0.0000)
  27 Li     0.024847    0.028700   15.616858    ( 0.0000,  0.0000,  0.0000)
  28 Li     3.436549   -0.031269   15.591375    ( 0.0000,  0.0000,  0.0000)
  29 Li     6.781425    0.102609   15.516409    ( 0.0000,  0.0000,  0.0000)
  30 Li     0.025390    3.208217   15.615887    ( 0.0000,  0.0000,  0.0000)
  31 Li     3.436818    3.265356   15.589090    ( 0.0000,  0.0000,  0.0000)
  32 Li     6.783950    3.130301   15.517380    ( 0.0000,  0.0000,  0.0000)
  33 Li    -0.003900    6.468122   15.494736    ( 0.0000,  0.0000,  0.0000)
  34 Li     3.216499    6.468021   15.473406    ( 0.0000,  0.0000,  0.0000)
  35 Li     6.458071    6.467866   15.482874    ( 0.0000,  0.0000,  0.0000)
  36 F      0.607137    1.548378   19.043455    ( 0.0000,  0.0000,  0.0000)
  37 H      0.084690    1.560890   18.259132    ( 0.0000,  0.0000,  0.0000)
  38 N     -0.735826    1.612335   16.575394    ( 0.0000,  0.0000,  0.0000)
  39 N     -1.424050    1.617415   15.533589    ( 0.0000,  0.0000,  0.0000)

Unit cell:
           periodic     x           y           z      points  spacing
  1. axis:    yes    9.702222    0.000000    0.000000    60     0.1617
  2. axis:    yes    0.000000    9.702222    0.000000    60     0.1617
  3. axis:    no     0.000000    0.000000   26.601111   168     0.1583

  Lengths:   9.702222   9.702222  26.601111
  Angles:   90.000000  90.000000  90.000000

Effective grid spacing dv^(1/3) = 0.1606

     iter     time        total  log10-change:
                         energy  eigst   dens
iter:   1 13:25:04  -254.064098  -2.19
iter:   2 13:27:42  -254.063887  -2.87  -2.45
iter:   3 13:30:11  -254.063218c -3.44  -2.49
iter:   4 13:32:39  -254.062763c -3.72  -2.68
Writing to output.gpw (mode='')

iter:   5 13:35:12  -254.062601c -3.59  -2.93
iter:   6 13:37:36  -254.062593c -3.63  -3.17
iter:   7 13:39:57  -254.062625c -4.28  -3.22
iter:   8 13:42:23  -254.062610c -3.78  -3.35
iter:   9 13:44:56  -254.062592c -4.29  -3.49
Writing to output.gpw (mode='')

iter:  10 13:47:20  -254.062590c -4.64  -3.67
iter:  11 13:49:43  -254.062597c -5.07  -3.78
iter:  12 13:52:14  -254.062600c -5.35  -3.83
iter:  13 13:54:43  -254.062603c -5.38  -3.86
iter:  14 13:57:09  -254.062598c -5.44  -4.12c
Writing to output.gpw (mode='')

iter:  15 13:59:35  -254.062599c -5.72  -4.21c
iter:  16 14:02:01  -254.062600c -5.98  -4.25c
iter:  17 14:04:26  -254.062600c -5.98  -4.35c
iter:  18 14:06:53  -254.062599c -6.25  -4.44c
iter:  19 14:09:17  -254.062599c -6.37  -4.51c
Writing to output.gpw (mode='')

iter:  20 14:11:44  -254.062599c -6.71  -4.68c
iter:  21 14:14:13  -254.062600c -6.62  -4.71c
iter:  22 14:16:39  -254.062600c -7.02  -4.87c
iter:  23 14:19:06  -254.062600c -7.02  -4.96c
iter:  24 14:21:36  -254.062600c -7.01  -4.99c
Writing to output.gpw (mode='')

iter:  25 14:24:14  -254.062601c -7.06  -5.04c
iter:  26 14:26:49  -254.062601c -7.23  -5.08c
iter:  27 14:29:25  -254.062601c -7.52c -5.20c

Converged after 27 iterations.

Dipole moment: (-5.065238, -3.190426, -0.409442) |e|*Ang

Energy contributions relative to reference atoms: (reference = -12990.375485)

Kinetic:       +105.261650
Potential:      -94.873144
External:        +0.000000
XC:            -264.802522
Entropy (-ST):   -0.181094
Local:           +0.441963
--------------------------
Free energy:   -254.153148
Extrapolated:  -254.062601

Dipole-layer corrected work functions: 3.409712, 4.196801 eV

Showing only first 2 kpts
 Kpt  Band  Eigenvalues  Occupancy
  0    25     -4.01534    1.97164
  0    26     -3.81439    1.11092
  0    27     -3.75026    0.51468
  0    28     -3.61869    0.04867

  1    25     -3.96712    1.92729
  1    26     -3.81016    1.06892
  1    27     -3.75091    0.51966
  1    28     -3.65405    0.09629


Fermi level: -3.80326

Gap: 0.018 eV
Transition (v -> c):
  (s=0, k=1, n=26, [0.12, -0.12, 0.00]) -> (s=0, k=7, n=27, [0.38, 0.38, 0.00])
Writing to output.gpw (mode='')


Forces in eV/Ang:
  0 Li    0.00586    0.00013   -0.28075
  1 Li    0.00035    0.00011   -0.27925
  2 Li   -0.00715    0.00004   -0.27259
  3 Li   -0.01605    0.01160   -0.28932
  4 Li   -0.01293    0.01144   -0.28461
  5 Li   -0.01573    0.01367   -0.29383
  6 Li   -0.01603   -0.01154   -0.28928
  7 Li   -0.01290   -0.01136   -0.28463
  8 Li   -0.01568   -0.01365   -0.29394
  9 Li   -0.00740    0.05163    0.35491
 10 Li    0.01527   -0.01488    0.26858
 11 Li    0.03284    0.04204    0.31445
 12 Li   -0.00762   -0.05210    0.35492
 13 Li    0.01508    0.01457    0.26877
 14 Li    0.03311   -0.04262    0.31455
 15 Li    0.06686    0.00041    0.27734
 16 Li    0.03948    0.00026    0.35399
 17 Li    0.04123    0.00075    0.27114
 18 Li   -0.00004    0.00002   -0.02650
 19 Li    0.00268   -0.00032    0.01361
 20 Li   -0.00851    0.00510   -0.02726
 21 Li   -0.00692    0.00910   -0.00377
 22 Li   -0.01381   -0.00726    0.01097
 23 Li    0.00301   -0.00385    0.00309
 24 Li   -0.00746   -0.00895   -0.00484
 25 Li   -0.01402    0.00634    0.01119
 26 Li    0.00261    0.00314    0.00118
 27 Li    0.00709   -0.00771   -0.01781
 28 Li   -0.02882   -0.00077   -0.02013
 29 Li   -0.00337   -0.00042   -0.01912
 30 Li   -0.00549   -0.02494    0.00340
 31 Li   -0.02893    0.00102   -0.02037
 32 Li   -0.00799    0.00241   -0.02210
 33 Li    0.00858    0.00036   -0.02085
 34 Li    0.00339   -0.00005    0.00388
 35 Li    0.00301    0.00012    0.00566
 36 F    -0.00059   -0.01653    0.04501
 37 H    -0.04247    0.00215   -0.04929
 38 N     0.11347    0.04926    0.14081
 39 N    -0.10419   -0.01168   -0.14968

System changes: positions 

Initializing position-dependent things.

Density initialized from wave functions
       .-----------------------.  
      /|                       |  
     / |                       |  
    /  |                       |  
   /   |                       |  
  /    |                       |  
 *     |                       |  
 |     |                       |  
 |     |                       |  
 |     |                       |  
 |     |                       |  
 |     |                       |  
 |     |                       |  
 |     |                       |  
 | F   |       Li              |  
 |H    |                       |  
 |     |     Li      Li      Li|  
 |     |  Li      Li    N Li   |  
 | Li  |    Li      Li         |  
 |     |Li      Li    N Li     |  
 Li    |          Li           |  
 |   LLi     LLi     LLi       |  
 |     |  Li      Li      Li   |  
 | Li  |   Li      Li          |  
 |     |Li      Li      Li     |  
 Li    | Li      Li            |  
 |    Li      Li      Li       |  
 |     |                       |  
 |     |                       |  
 |     |                       |  
 |     |                       |  
 |     |                       |  
 |     |                       |  
 |     .-----------------------.  
 |    /                       /   
 |   /                       /    
 |  /                       /     
 | /                       /      
 |/                       /       
 *-----------------------*        

Positions:
   0 Li     1.617037    1.617037   10.000000    ( 0.0000,  0.0000,  0.0000)
   1 Li     4.851111    1.617037   10.000000    ( 0.0000,  0.0000,  0.0000)
   2 Li     8.085185    1.617037   10.000000    ( 0.0000,  0.0000,  0.0000)
   3 Li     1.617037    4.851111   10.000000    ( 0.0000,  0.0000,  0.0000)
   4 Li     4.851111    4.851111   10.000000    ( 0.0000,  0.0000,  0.0000)
   5 Li     8.085185    4.851111   10.000000    ( 0.0000,  0.0000,  0.0000)
   6 Li     1.617037    8.085185   10.000000    ( 0.0000,  0.0000,  0.0000)
   7 Li     4.851111    8.085185   10.000000    ( 0.0000,  0.0000,  0.0000)
   8 Li     8.085185    8.085185   10.000000    ( 0.0000,  0.0000,  0.0000)
   9 Li     0.000000    0.000000   11.617037    ( 0.0000,  0.0000,  0.0000)
  10 Li     3.234074    0.000000   11.617037    ( 0.0000,  0.0000,  0.0000)
  11 Li     6.468148    0.000000   11.617037    ( 0.0000,  0.0000,  0.0000)
  12 Li     0.000000    3.234074   11.617037    ( 0.0000,  0.0000,  0.0000)
  13 Li     3.234074    3.234074   11.617037    ( 0.0000,  0.0000,  0.0000)
  14 Li     6.468148    3.234074   11.617037    ( 0.0000,  0.0000,  0.0000)
  15 Li     0.000000    6.468148   11.617037    ( 0.0000,  0.0000,  0.0000)
  16 Li     3.234074    6.468148   11.617037    ( 0.0000,  0.0000,  0.0000)
  17 Li     6.468148    6.468148   11.617037    ( 0.0000,  0.0000,  0.0000)
  18 Li     1.711339    1.616868   13.530341    ( 0.0000,  0.0000,  0.0000)
  19 Li     4.850502    1.616970   13.525119    ( 0.0000,  0.0000,  0.0000)
  20 Li     8.058855    1.615198   13.613454    ( 0.0000,  0.0000,  0.0000)
  21 Li     1.651859    4.801645   13.563242    ( 0.0000,  0.0000,  0.0000)
  22 Li     4.936320    4.822578   13.549679    ( 0.0000,  0.0000,  0.0000)
  23 Li     8.144459    4.860750   13.498276    ( 0.0000,  0.0000,  0.0000)
  24 Li     1.651954    8.135291   13.564079    ( 0.0000,  0.0000,  0.0000)
  25 Li     4.935960    8.114160   13.549953    ( 0.0000,  0.0000,  0.0000)
  26 Li     8.144803    8.076024   13.499181    ( 0.0000,  0.0000,  0.0000)
  27 Li     0.024879    0.033212   15.619595    ( 0.0000,  0.0000,  0.0000)
  28 Li     3.431860   -0.031597   15.588027    ( 0.0000,  0.0000,  0.0000)
  29 Li     6.786959    0.108020   15.511970    ( 0.0000,  0.0000,  0.0000)
  30 Li     0.025584    3.203791   15.618899    ( 0.0000,  0.0000,  0.0000)
  31 Li     3.432234    3.265663   15.585686    ( 0.0000,  0.0000,  0.0000)
  32 Li     6.789558    3.124660   15.512995    ( 0.0000,  0.0000,  0.0000)
  33 Li    -0.002779    6.468033   15.490527    ( 0.0000,  0.0000,  0.0000)
  34 Li     3.217884    6.468054   15.473474    ( 0.0000,  0.0000,  0.0000)
  35 Li     6.457902    6.467822   15.484059    ( 0.0000,  0.0000,  0.0000)
  36 F      0.607915    1.547011   19.040756    ( 0.0000,  0.0000,  0.0000)
  37 H      0.082319    1.561193   18.257449    ( 0.0000,  0.0000,  0.0000)
  38 N     -0.737530    1.611026   16.573862    ( 0.0000,  0.0000,  0.0000)
  39 N     -1.426312    1.618266   15.530697    ( 0.0000,  0.0000,  0.0000)

Unit cell:
           periodic     x           y           z      points  spacing
  1. axis:    yes    9.702222    0.000000    0.000000    60     0.1617
  2. axis:    yes    0.000000    9.702222    0.000000    60     0.1617
  3. axis:    no     0.000000    0.000000   26.601111   168     0.1583

  Lengths:   9.702222   9.702222  26.601111
  Angles:   90.000000  90.000000  90.000000

Effective grid spacing dv^(1/3) = 0.1606

     iter     time        total  log10-change:
                         energy  eigst   dens
iter:   1 14:32:41  -254.065373  -2.11
iter:   2 14:35:13  -254.064663  -2.73  -2.42
iter:   3 14:37:43  -254.064337c -3.33  -2.51
iter:   4 14:40:10  -254.063760c -3.47  -2.63
Writing to output.gpw (mode='')

iter:   5 14:42:52  -254.063594c -3.38  -2.90
iter:   6 14:45:25  -254.063594c -3.32  -3.12
iter:   7 14:48:01  -254.063611c -3.85  -3.16
iter:   8 14:50:27  -254.063610c -4.09  -3.38
iter:   9 14:52:59  -254.063567c -4.50  -3.41
Writing to output.gpw (mode='')

iter:  10 14:55:34  -254.063573c -4.82  -3.68
iter:  11 14:58:02  -254.063578c -5.16  -3.72
iter:  12 15:00:36  -254.063582c -5.38  -3.76
iter:  13 15:03:04  -254.063576c -5.16  -3.81
iter:  14 15:05:36  -254.063578c -5.50  -4.05c
Writing to output.gpw (mode='')

iter:  15 15:08:11  -254.063583c -5.76  -4.14c
iter:  16 15:10:41  -254.063579c -5.85  -4.24c
iter:  17 15:13:06  -254.063579c -6.11  -4.41c
iter:  18 15:15:45  -254.063580c -6.24  -4.43c
iter:  19 15:18:14  -254.063580c -6.41  -4.51c
Writing to output.gpw (mode='')

iter:  20 15:20:42  -254.063581c -6.41  -4.61c
iter:  21 15:23:10  -254.063581c -6.61  -4.74c
iter:  22 15:25:40  -254.063581c -6.70  -4.74c
iter:  23 15:28:16  -254.063581c -6.80  -4.81c
iter:  24 15:30:41  -254.063581c -6.89  -4.99c
Writing to output.gpw (mode='')

iter:  25 15:33:22  -254.063582c -7.01  -5.12c
iter:  26 15:35:52  -254.063582c -7.10  -5.19c
iter:  27 15:38:20  -254.063582c -7.13  -5.30c
iter:  28 15:40:42  -254.063582c -7.36  -5.41c
iter:  29 15:43:08  -254.063582c -7.38  -5.60c
Writing to output.gpw (mode='')

iter:  30 15:45:36  -254.063582c -7.63c -5.65c

Converged after 30 iterations.

Dipole moment: (-5.080756, -3.294035, -0.410343) |e|*Ang

Energy contributions relative to reference atoms: (reference = -12990.375485)

Kinetic:       +105.330524
Potential:      -94.895437
External:        +0.000000
XC:            -264.850332
Entropy (-ST):   -0.181000
Local:           +0.442163
--------------------------
Free energy:   -254.154082
Extrapolated:  -254.063582

Dipole-layer corrected work functions: 3.410220, 4.199040 eV

Showing only first 2 kpts
 Kpt  Band  Eigenvalues  Occupancy
  0    25     -4.01671    1.97164
  0    26     -3.81593    1.11257
  0    27     -3.75161    0.51446
  0    28     -3.62125    0.04980

  1    25     -3.96892    1.92788
  1    26     -3.81217    1.07521
  1    27     -3.75109    0.51047
  1    28     -3.65550    0.09645


Fermi level: -3.80463

Gap: 0.019 eV
Transition (v -> c):
  (s=0, k=1, n=26, [0.12, -0.12, 0.00]) -> (s=0, k=7, n=27, [0.38, 0.38, 0.00])

Forces in eV/Ang:
  0 Li    0.00581    0.00018   -0.28072
  1 Li    0.00039    0.00017   -0.27948
  2 Li   -0.00718    0.00008   -0.27228
  3 Li   -0.01591    0.01163   -0.28920
  4 Li   -0.01301    0.01158   -0.28528
  5 Li   -0.01571    0.01365   -0.29407
  6 Li   -0.01589   -0.01155   -0.28914
  7 Li   -0.01297   -0.01147   -0.28522
  8 Li   -0.01564   -0.01365   -0.29420
  9 Li   -0.00815    0.05112    0.35379
 10 Li    0.01625   -0.01494    0.26929
 11 Li    0.03107    0.04116    0.31597
 12 Li   -0.00841   -0.05149    0.35362
 13 Li    0.01597    0.01461    0.26950
 14 Li    0.03139   -0.04164    0.31601
 15 Li    0.06591    0.00028    0.27708
 16 Li    0.03989    0.00014    0.35457
 17 Li    0.03967    0.00070    0.27531
 18 Li   -0.00142   -0.00014   -0.02217
 19 Li   -0.00101   -0.00045    0.00472
 20 Li    0.00126    0.00656   -0.03296
 21 Li   -0.00621    0.00728   -0.00471
 22 Li   -0.00835   -0.00551    0.00572
 23 Li    0.00150   -0.00331    0.00108
 24 Li   -0.00707   -0.00701   -0.00557
 25 Li   -0.00854    0.00446    0.00615
 26 Li    0.00111    0.00257   -0.00051
 27 Li    0.01258   -0.02158   -0.02722
 28 Li   -0.02705    0.00070   -0.01622
 29 Li   -0.01451   -0.01514   -0.01109
 30 Li   -0.00193   -0.01598   -0.00311
 31 Li   -0.02736   -0.00033   -0.01642
 32 Li   -0.02103    0.01875   -0.01501
 33 Li    0.00857    0.00058   -0.01675
 34 Li    0.00050   -0.00011    0.00520
 35 Li    0.00392    0.00029    0.00443
 36 F    -0.03643   -0.02013    0.02153
 37 H    -0.01939   -0.00031   -0.01653
 38 N     0.08138    0.04902    0.13467
 39 N    -0.05511   -0.01611   -0.12149

System changes: positions 

Initializing position-dependent things.

Density initialized from wave functions
       .-----------------------.  
      /|                       |  
     / |                       |  
    /  |                       |  
   /   |                       |  
  /    |                       |  
 *     |                       |  
 |     |                       |  
 |     |                       |  
 |     |                       |  
 |     |                       |  
 |     |                       |  
 |     |                       |  
 |     |                       |  
 | F   |       Li              |  
 |H    |                       |  
 |     |     Li      Li      Li|  
 |     |  Li      Li    N Li   |  
 | Li  |   Li       Li         |  
 |     |Li      Li    N Li     |  
 Li    |          Li           |  
 |   LLi     LLi     LLi       |  
 |     |  Li      Li      Li   |  
 | Li  |   Li      Li          |  
 |     |Li      Li      Li     |  
 Li    | Li      Li            |  
 |    Li      Li      Li       |  
 |     |                       |  
 |     |                       |  
 |     |                       |  
 |     |                       |  
 |     |                       |  
 |     |                       |  
 |     .-----------------------.  
 |    /                       /   
 |   /                       /    
 |  /                       /     
 | /                       /      
 |/                       /       
 *-----------------------*        

Positions:
   0 Li     1.617037    1.617037   10.000000    ( 0.0000,  0.0000,  0.0000)
   1 Li     4.851111    1.617037   10.000000    ( 0.0000,  0.0000,  0.0000)
   2 Li     8.085185    1.617037   10.000000    ( 0.0000,  0.0000,  0.0000)
   3 Li     1.617037    4.851111   10.000000    ( 0.0000,  0.0000,  0.0000)
   4 Li     4.851111    4.851111   10.000000    ( 0.0000,  0.0000,  0.0000)
   5 Li     8.085185    4.851111   10.000000    ( 0.0000,  0.0000,  0.0000)
   6 Li     1.617037    8.085185   10.000000    ( 0.0000,  0.0000,  0.0000)
   7 Li     4.851111    8.085185   10.000000    ( 0.0000,  0.0000,  0.0000)
   8 Li     8.085185    8.085185   10.000000    ( 0.0000,  0.0000,  0.0000)
   9 Li     0.000000    0.000000   11.617037    ( 0.0000,  0.0000,  0.0000)
  10 Li     3.234074    0.000000   11.617037    ( 0.0000,  0.0000,  0.0000)
  11 Li     6.468148    0.000000   11.617037    ( 0.0000,  0.0000,  0.0000)
  12 Li     0.000000    3.234074   11.617037    ( 0.0000,  0.0000,  0.0000)
  13 Li     3.234074    3.234074   11.617037    ( 0.0000,  0.0000,  0.0000)
  14 Li     6.468148    3.234074   11.617037    ( 0.0000,  0.0000,  0.0000)
  15 Li     0.000000    6.468148   11.617037    ( 0.0000,  0.0000,  0.0000)
  16 Li     3.234074    6.468148   11.617037    ( 0.0000,  0.0000,  0.0000)
  17 Li     6.468148    6.468148   11.617037    ( 0.0000,  0.0000,  0.0000)
  18 Li     1.710782    1.616902   13.527087    ( 0.0000,  0.0000,  0.0000)
  19 Li     4.850843    1.616970   13.526551    ( 0.0000,  0.0000,  0.0000)
  20 Li     8.057845    1.615300   13.612693    ( 0.0000,  0.0000,  0.0000)
  21 Li     1.651030    4.803132   13.561899    ( 0.0000,  0.0000,  0.0000)
  22 Li     4.934416    4.821766   13.551028    ( 0.0000,  0.0000,  0.0000)
  23 Li     8.143984    4.860610   13.498086    ( 0.0000,  0.0000,  0.0000)
  24 Li     1.651166    8.133765   13.562587    ( 0.0000,  0.0000,  0.0000)
  25 Li     4.934034    8.114926   13.551271    ( 0.0000,  0.0000,  0.0000)
  26 Li     8.144284    8.076089   13.498781    ( 0.0000,  0.0000,  0.0000)
  27 Li     0.024207    0.036723   15.620980    ( 0.0000,  0.0000,  0.0000)
  28 Li     3.426843   -0.031251   15.585133    ( 0.0000,  0.0000,  0.0000)
  29 Li     6.789750    0.110858   15.509876    ( 0.0000,  0.0000,  0.0000)
  30 Li     0.024618    3.199349   15.621048    ( 0.0000,  0.0000,  0.0000)
  31 Li     3.427259    3.265314   15.582776    ( 0.0000,  0.0000,  0.0000)
  32 Li     6.792237    3.121781   15.510836    ( 0.0000,  0.0000,  0.0000)
  33 Li    -0.002019    6.468004   15.487132    ( 0.0000,  0.0000,  0.0000)
  34 Li     3.218748    6.468070   15.473566    ( 0.0000,  0.0000,  0.0000)
  35 Li     6.458031    6.467808   15.484614    ( 0.0000,  0.0000,  0.0000)
  36 F      0.609438    1.545764   19.042642    ( 0.0000,  0.0000,  0.0000)
  37 H      0.082276    1.561806   18.259671    ( 0.0000,  0.0000,  0.0000)
  38 N     -0.738266    1.611627   16.576099    ( 0.0000,  0.0000,  0.0000)
  39 N     -1.425401    1.618307   15.529039    ( 0.0000,  0.0000,  0.0000)

Unit cell:
           periodic     x           y           z      points  spacing
  1. axis:    yes    9.702222    0.000000    0.000000    60     0.1617
  2. axis:    yes    0.000000    9.702222    0.000000    60     0.1617
  3. axis:    no     0.000000    0.000000   26.601111   168     0.1583

  Lengths:   9.702222   9.702222  26.601111
  Angles:   90.000000  90.000000  90.000000

Effective grid spacing dv^(1/3) = 0.1606

     iter     time        total  log10-change:
                         energy  eigst   dens
iter:   1 15:48:47  -254.077314  -2.15
iter:   2 15:51:14  -254.075385  -1.93  -1.97
iter:   3 15:53:44  -254.064620c -3.35  -1.98
iter:   4 15:56:10  -254.064383c -3.74  -2.72
Writing to output.gpw (mode='')

iter:   5 15:58:44  -254.064204c -3.20  -2.86
iter:   6 16:01:13  -254.064244c -3.49  -3.13
iter:   7 16:03:36  -254.064247c -3.66  -3.26
iter:   8 16:06:03  -254.064243c -4.13  -3.43
iter:   9 16:08:24  -254.064206c -4.63  -3.51
Writing to output.gpw (mode='')

iter:  10 16:11:04  -254.064196c -4.75  -3.65
iter:  11 16:13:32  -254.064199c -5.19  -3.82
iter:  12 16:15:59  -254.064204c -5.25  -3.86
iter:  13 16:18:34  -254.064201c -5.24  -3.96
iter:  14 16:21:01  -254.064203c -5.68  -4.06c
Writing to output.gpw (mode='')

iter:  15 16:23:36  -254.064204c -5.82  -4.27c
iter:  16 16:26:08  -254.064206c -5.99  -4.30c
iter:  17 16:28:45  -254.064208c -5.99  -4.46c
iter:  18 16:31:12  -254.064207c -6.42  -4.46c
iter:  19 16:33:45  -254.064206c -6.23  -4.50c
Writing to output.gpw (mode='')

iter:  20 16:36:25  -254.064204c -6.30  -4.63c
iter:  21 16:38:56  -254.064205c -6.80  -4.77c
iter:  22 16:41:18  -254.064205c -6.92  -4.87c
iter:  23 16:43:43  -254.064205c -6.99  -4.87c
iter:  24 16:46:11  -254.064206c -6.83  -4.86c
Writing to output.gpw (mode='')

iter:  25 16:48:40  -254.064206c -7.03  -4.86c
iter:  26 16:51:14  -254.064206c -7.34  -4.85c
iter:  27 16:53:38  -254.064206c -7.15  -4.89c
iter:  28 16:56:13  -254.064206c -7.40c -4.86c

Converged after 28 iterations.

Dipole moment: (-5.072119, -3.365223, -0.412446) |e|*Ang

Energy contributions relative to reference atoms: (reference = -12990.375485)

Kinetic:       +105.249833
Potential:      -94.809329
External:        +0.000000
XC:            -264.856374
Entropy (-ST):   -0.180990
Local:           +0.442159
--------------------------
Free energy:   -254.154700
Extrapolated:  -254.064206

Dipole-layer corrected work functions: 3.410631, 4.203493 eV

Showing only first 2 kpts
 Kpt  Band  Eigenvalues  Occupancy
  0    25     -4.01930    1.97173
  0    26     -3.81889    1.11776
  0    27     -3.75401    0.51423
  0    28     -3.62488    0.05098

  1    25     -3.97192    1.92866
  1    26     -3.81495    1.07868
  1    27     -3.75269    0.50420
  1    28     -3.65808    0.09671


Fermi level: -3.80706

Gap: 0.019 eV
Transition (v -> c):
  (s=0, k=1, n=26, [0.12, -0.12, 0.00]) -> (s=0, k=7, n=27, [0.38, 0.38, 0.00])
Writing to output.gpw (mode='')


Forces in eV/Ang:
  0 Li    0.00583    0.00017   -0.28070
  1 Li    0.00040    0.00016   -0.27971
  2 Li   -0.00723    0.00008   -0.27209
  3 Li   -0.01572    0.01168   -0.28899
  4 Li   -0.01296    0.01163   -0.28549
  5 Li   -0.01577    0.01368   -0.29413
  6 Li   -0.01570   -0.01161   -0.28894
  7 Li   -0.01292   -0.01153   -0.28539
  8 Li   -0.01571   -0.01367   -0.29427
  9 Li   -0.00879    0.05063    0.35264
 10 Li    0.01660   -0.01500    0.26917
 11 Li    0.03014    0.04101    0.31638
 12 Li   -0.00905   -0.05097    0.35242
 13 Li    0.01634    0.01475    0.26939
 14 Li    0.03044   -0.04146    0.31643
 15 Li    0.06488    0.00022    0.27634
 16 Li    0.04038    0.00009    0.35387
 17 Li    0.03833    0.00062    0.27662
 18 Li   -0.00280   -0.00015   -0.01967
 19 Li   -0.00189   -0.00045    0.00154
 20 Li    0.00699    0.00620   -0.03145
 21 Li   -0.00621    0.00528   -0.00360
 22 Li   -0.00569   -0.00463    0.00386
 23 Li    0.00176   -0.00341    0.00075
 24 Li   -0.00696   -0.00518   -0.00447
 25 Li   -0.00586    0.00365    0.00431
 26 Li    0.00136    0.00256   -0.00065
 27 Li    0.01554   -0.02763   -0.02942
 28 Li   -0.02491    0.00066   -0.01430
 29 Li   -0.01731   -0.02011   -0.00689
 30 Li    0.00404   -0.00347   -0.00885
 31 Li   -0.02515   -0.00027   -0.01448
 32 Li   -0.02384    0.02396   -0.01061
 33 Li    0.00861    0.00049   -0.01440
 34 Li   -0.00104   -0.00008    0.00544
 35 Li    0.00392    0.00033    0.00338
 36 F    -0.04764   -0.02241   -0.00381
 37 H    -0.00373   -0.00179    0.00756
 38 N     0.03539    0.04450    0.06589
 39 N    -0.01265   -0.01883   -0.06315

System changes: positions 

Initializing position-dependent things.

Density initialized from wave functions
       .-----------------------.  
      /|                       |  
     / |                       |  
    /  |                       |  
   /   |                       |  
  /    |                       |  
 *     |                       |  
 |     |                       |  
 |     |                       |  
 |     |                       |  
 |     |                       |  
 |     |                       |  
 |     |                       |  
 |     |                       |  
 | F   |       Li              |  
 |H    |                       |  
 |     |     Li      Li      Li|  
 |     |  Li      Li    N Li   |  
 | Li  |   Li       Li         |  
 |     |Li      Li    N Li     |  
 Li    |          Li           |  
 |   LLi     LLi     LLi       |  
 |     |  Li      Li      Li   |  
 | Li  |   Li      Li          |  
 |     |Li      Li      Li     |  
 Li    | Li      Li            |  
 |    Li      Li      Li       |  
 |     |                       |  
 |     |                       |  
 |     |                       |  
 |     |                       |  
 |     |                       |  
 |     |                       |  
 |     .-----------------------.  
 |    /                       /   
 |   /                       /    
 |  /                       /     
 | /                       /      
 |/                       /       
 *-----------------------*        

Positions:
   0 Li     1.617037    1.617037   10.000000    ( 0.0000,  0.0000,  0.0000)
   1 Li     4.851111    1.617037   10.000000    ( 0.0000,  0.0000,  0.0000)
   2 Li     8.085185    1.617037   10.000000    ( 0.0000,  0.0000,  0.0000)
   3 Li     1.617037    4.851111   10.000000    ( 0.0000,  0.0000,  0.0000)
   4 Li     4.851111    4.851111   10.000000    ( 0.0000,  0.0000,  0.0000)
   5 Li     8.085185    4.851111   10.000000    ( 0.0000,  0.0000,  0.0000)
   6 Li     1.617037    8.085185   10.000000    ( 0.0000,  0.0000,  0.0000)
   7 Li     4.851111    8.085185   10.000000    ( 0.0000,  0.0000,  0.0000)
   8 Li     8.085185    8.085185   10.000000    ( 0.0000,  0.0000,  0.0000)
   9 Li     0.000000    0.000000   11.617037    ( 0.0000,  0.0000,  0.0000)
  10 Li     3.234074    0.000000   11.617037    ( 0.0000,  0.0000,  0.0000)
  11 Li     6.468148    0.000000   11.617037    ( 0.0000,  0.0000,  0.0000)
  12 Li     0.000000    3.234074   11.617037    ( 0.0000,  0.0000,  0.0000)
  13 Li     3.234074    3.234074   11.617037    ( 0.0000,  0.0000,  0.0000)
  14 Li     6.468148    3.234074   11.617037    ( 0.0000,  0.0000,  0.0000)
  15 Li     0.000000    6.468148   11.617037    ( 0.0000,  0.0000,  0.0000)
  16 Li     3.234074    6.468148   11.617037    ( 0.0000,  0.0000,  0.0000)
  17 Li     6.468148    6.468148   11.617037    ( 0.0000,  0.0000,  0.0000)
  18 Li     1.709572    1.616926   13.522820    ( 0.0000,  0.0000,  0.0000)
  19 Li     4.850343    1.616958   13.527281    ( 0.0000,  0.0000,  0.0000)
  20 Li     8.058560    1.615568   13.611253    ( 0.0000,  0.0000,  0.0000)
  21 Li     1.650145    4.805048   13.560232    ( 0.0000,  0.0000,  0.0000)
  22 Li     4.932370    4.821630   13.551765    ( 0.0000,  0.0000,  0.0000)
  23 Li     8.142383    4.861121   13.497363    ( 0.0000,  0.0000,  0.0000)
  24 Li     1.650290    8.131830   13.560786    ( 0.0000,  0.0000,  0.0000)
  25 Li     4.931961    8.114994   13.551997    ( 0.0000,  0.0000,  0.0000)
  26 Li     8.142633    8.075507   13.497847    ( 0.0000,  0.0000,  0.0000)
  27 Li     0.024226    0.038114   15.619761    ( 0.0000,  0.0000,  0.0000)
  28 Li     3.420472   -0.031097   15.581649    ( 0.0000,  0.0000,  0.0000)
  29 Li     6.790222    0.112208   15.507651    ( 0.0000,  0.0000,  0.0000)
  30 Li     0.023963    3.196081   15.621256    ( 0.0000,  0.0000,  0.0000)
  31 Li     3.420917    3.265165   15.579272    ( 0.0000,  0.0000,  0.0000)
  32 Li     6.792462    3.120483   15.508462    ( 0.0000,  0.0000,  0.0000)
  33 Li    -0.001095    6.468011   15.483597    ( 0.0000,  0.0000,  0.0000)
  34 Li     3.220296    6.468083   15.473940    ( 0.0000,  0.0000,  0.0000)
  35 Li     6.458414    6.467812   15.485114    ( 0.0000,  0.0000,  0.0000)
  36 F      0.611666    1.544059   19.045227    ( 0.0000,  0.0000,  0.0000)
  37 H      0.079826    1.562464   18.264052    ( 0.0000,  0.0000,  0.0000)
  38 N     -0.736023    1.613598   16.577751    ( 0.0000,  0.0000,  0.0000)
  39 N     -1.424049    1.617750   15.528363    ( 0.0000,  0.0000,  0.0000)

Unit cell:
           periodic     x           y           z      points  spacing
  1. axis:    yes    9.702222    0.000000    0.000000    60     0.1617
  2. axis:    yes    0.000000    9.702222    0.000000    60     0.1617
  3. axis:    no     0.000000    0.000000   26.601111   168     0.1583

  Lengths:   9.702222   9.702222  26.601111
  Angles:   90.000000  90.000000  90.000000

Effective grid spacing dv^(1/3) = 0.1606

     iter     time        total  log10-change:
                         energy  eigst   dens
iter:   1 16:59:28  -254.091121  -1.83
iter:   2 17:02:02  -254.087199  -1.69  -1.82
iter:   3 17:04:32  -254.065435c -3.08  -1.83
iter:   4 17:07:07  -254.065107c -3.53  -2.65
Writing to output.gpw (mode='')

iter:   5 17:09:41  -254.064902c -3.00  -2.77
iter:   6 17:12:19  -254.064949c -3.21  -3.02
iter:   7 17:14:50  -254.064953c -3.52  -3.24
iter:   8 17:17:21  -254.064927c -4.00  -3.32
iter:   9 17:19:45  -254.064889c -4.30  -3.44
Writing to output.gpw (mode='')

iter:  10 17:22:13  -254.064876c -4.59  -3.67
iter:  11 17:24:50  -254.064875c -4.90  -3.75
iter:  12 17:27:23  -254.064878c -5.14  -3.76
iter:  13 17:29:46  -254.064884c -5.42  -3.83
iter:  14 17:32:12  -254.064892c -5.34  -3.97
Writing to output.gpw (mode='')

iter:  15 17:34:50  -254.064893c -5.60  -4.09c
iter:  16 17:37:15  -254.064895c -5.65  -4.13c
iter:  17 17:39:46  -254.064897c -5.64  -4.29c
iter:  18 17:42:09  -254.064896c -6.00  -4.30c
iter:  19 17:44:32  -254.064893c -5.99  -4.32c
Writing to output.gpw (mode='')

iter:  20 17:47:09  -254.064892c -6.07  -4.55c
iter:  21 17:49:37  -254.064891c -6.26  -4.72c
iter:  22 17:52:13  -254.064892c -6.32  -4.74c
iter:  23 17:54:37  -254.064892c -6.62  -4.77c
iter:  24 17:57:13  -254.064892c -6.70  -4.85c
Writing to output.gpw (mode='')

iter:  25 17:59:46  -254.064892c -6.79  -4.86c
iter:  26 18:02:26  -254.064892c -6.87  -4.96c
iter:  27 18:04:56  -254.064892c -7.16  -5.12c
iter:  28 18:07:23  -254.064892c -7.25  -5.14c
iter:  29 18:09:46  -254.064892c -7.26  -5.16c
Writing to output.gpw (mode='')

iter:  30 18:12:26  -254.064892c -7.29  -5.34c
iter:  31 18:15:03  -254.064892c -7.33  -5.45c
iter:  32 18:17:33  -254.064892c -7.51c -5.58c

Converged after 32 iterations.

Dipole moment: (-5.002672, -3.393748, -0.414480) |e|*Ang

Energy contributions relative to reference atoms: (reference = -12990.375485)

Kinetic:       +105.091858
Potential:      -94.671839
External:        +0.000000
XC:            -264.836520
Entropy (-ST):   -0.181032
Local:           +0.442125
--------------------------
Free energy:   -254.155408
Extrapolated:  -254.064892

Dipole-layer corrected work functions: 3.410902, 4.207675 eV

Showing only first 2 kpts
 Kpt  Band  Eigenvalues  Occupancy
  0    25     -4.02196    1.97197
  0    26     -3.82154    1.12190
  0    27     -3.75630    0.51468
  0    28     -3.62786    0.05173

  1    25     -3.97408    1.92857
  1    26     -3.81762    1.08315
  1    27     -3.75426    0.49926
  1    28     -3.66020    0.09650


Fermi level: -3.80929

Gap: 0.019 eV
Transition (v -> c):
  (s=0, k=1, n=26, [0.12, -0.12, 0.00]) -> (s=0, k=7, n=27, [0.38, 0.38, 0.00])
Writing to output.gpw (mode='')


Forces in eV/Ang:
  0 Li    0.00574    0.00010   -0.28055
  1 Li    0.00041    0.00009   -0.27990
  2 Li   -0.00713    0.00003   -0.27175
  3 Li   -0.01547    0.01179   -0.28879
  4 Li   -0.01293    0.01170   -0.28563
  5 Li   -0.01573    0.01366   -0.29414
  6 Li   -0.01545   -0.01174   -0.28878
  7 Li   -0.01292   -0.01164   -0.28551
  8 Li   -0.01568   -0.01361   -0.29435
  9 Li   -0.00949    0.04937    0.35136
 10 Li    0.01675   -0.01539    0.26901
 11 Li    0.02910    0.04102    0.31685
 12 Li   -0.00973   -0.04968    0.35116
 13 Li    0.01656    0.01531    0.26925
 14 Li    0.02932   -0.04143    0.31699
 15 Li    0.06372    0.00014    0.27544
 16 Li    0.04080    0.00005    0.35241
 17 Li    0.03648    0.00047    0.27688
 18 Li   -0.00342   -0.00005   -0.01705
 19 Li   -0.00211   -0.00037   -0.00091
 20 Li    0.00937    0.00451   -0.02451
 21 Li   -0.00618    0.00338   -0.00305
 22 Li   -0.00360   -0.00417    0.00249
 23 Li    0.00316   -0.00403    0.00052
 24 Li   -0.00649   -0.00369   -0.00409
 25 Li   -0.00375    0.00343    0.00283
 26 Li    0.00272    0.00302   -0.00069
 27 Li    0.01367   -0.02421   -0.02599
 28 Li   -0.02245    0.00085   -0.01225
 29 Li   -0.01629   -0.01988   -0.00443
 30 Li    0.00936    0.00891   -0.01452
 31 Li   -0.02245   -0.00050   -0.01244
 32 Li   -0.02142    0.02294   -0.00714
 33 Li    0.00868    0.00015   -0.01211
 34 Li   -0.00329    0.00000    0.00556
 35 Li    0.00368    0.00027    0.00254
 36 F    -0.07413   -0.01661   -0.04708
 37 H     0.03063   -0.00298    0.04941
 38 N    -0.00350    0.03532   -0.01369
 39 N     0.03146   -0.01721    0.01078

System changes: positions 

Initializing position-dependent things.

Density initialized from wave functions
       .-----------------------.  
      /|                       |  
     / |                       |  
    /  |                       |  
   /   |                       |  
  /    |                       |  
 *     |                       |  
 |     |                       |  
 |     |                       |  
 |     |                       |  
 |     |                       |  
 |     |                       |  
 |     |                       |  
 |     |                       |  
 | F   |       Li              |  
 |H    |                       |  
 |   Li|     Li      Li        |  
 |     |  Li      Li    N Li   |  
 | Li  |   Li       Li         |  
 |     |Li      Li    N Li     |  
 Li    |          Li           |  
 |   LLi     LLi     LLi       |  
 |     |  Li      Li      Li   |  
 | Li  |   Li      Li          |  
 |     |Li      Li      Li     |  
 Li    | Li      Li            |  
 |    Li      Li      Li       |  
 |     |                       |  
 |     |                       |  
 |     |                       |  
 |     |                       |  
 |     |                       |  
 |     |                       |  
 |     .-----------------------.  
 |    /                       /   
 |   /                       /    
 |  /                       /     
 | /                       /      
 |/                       /       
 *-----------------------*        

Positions:
   0 Li     1.617037    1.617037   10.000000    ( 0.0000,  0.0000,  0.0000)
   1 Li     4.851111    1.617037   10.000000    ( 0.0000,  0.0000,  0.0000)
   2 Li     8.085185    1.617037   10.000000    ( 0.0000,  0.0000,  0.0000)
   3 Li     1.617037    4.851111   10.000000    ( 0.0000,  0.0000,  0.0000)
   4 Li     4.851111    4.851111   10.000000    ( 0.0000,  0.0000,  0.0000)
   5 Li     8.085185    4.851111   10.000000    ( 0.0000,  0.0000,  0.0000)
   6 Li     1.617037    8.085185   10.000000    ( 0.0000,  0.0000,  0.0000)
   7 Li     4.851111    8.085185   10.000000    ( 0.0000,  0.0000,  0.0000)
   8 Li     8.085185    8.085185   10.000000    ( 0.0000,  0.0000,  0.0000)
   9 Li     0.000000    0.000000   11.617037    ( 0.0000,  0.0000,  0.0000)
  10 Li     3.234074    0.000000   11.617037    ( 0.0000,  0.0000,  0.0000)
  11 Li     6.468148    0.000000   11.617037    ( 0.0000,  0.0000,  0.0000)
  12 Li     0.000000    3.234074   11.617037    ( 0.0000,  0.0000,  0.0000)
  13 Li     3.234074    3.234074   11.617037    ( 0.0000,  0.0000,  0.0000)
  14 Li     6.468148    3.234074   11.617037    ( 0.0000,  0.0000,  0.0000)
  15 Li     0.000000    6.468148   11.617037    ( 0.0000,  0.0000,  0.0000)
  16 Li     3.234074    6.468148   11.617037    ( 0.0000,  0.0000,  0.0000)
  17 Li     6.468148    6.468148   11.617037    ( 0.0000,  0.0000,  0.0000)
  18 Li     1.706612    1.616951   13.515098    ( 0.0000,  0.0000,  0.0000)
  19 Li     4.848775    1.616928   13.527580    ( 0.0000,  0.0000,  0.0000)
  20 Li     8.062140    1.616122   13.609741    ( 0.0000,  0.0000,  0.0000)
  21 Li     1.648448    4.808009   13.557347    ( 0.0000,  0.0000,  0.0000)
  22 Li     4.929218    4.821980   13.552215    ( 0.0000,  0.0000,  0.0000)
  23 Li     8.138984    4.862156   13.495886    ( 0.0000,  0.0000,  0.0000)
  24 Li     1.648577    8.128850   13.557715    ( 0.0000,  0.0000,  0.0000)
  25 Li     4.928772    8.114524   13.552447    ( 0.0000,  0.0000,  0.0000)
  26 Li     8.139155    8.074362   13.496063    ( 0.0000,  0.0000,  0.0000)
  27 Li     0.026145    0.036766   15.615158    ( 0.0000,  0.0000,  0.0000)
  28 Li     3.408940   -0.030764   15.575294    ( 0.0000,  0.0000,  0.0000)
  29 Li     6.788317    0.112518   15.504598    ( 0.0000,  0.0000,  0.0000)
  30 Li     0.024626    3.193948   15.619253    ( 0.0000,  0.0000,  0.0000)
  31 Li     3.409412    3.264848   15.572903    ( 0.0000,  0.0000,  0.0000)
  32 Li     6.790051    3.120346   15.505108    ( 0.0000,  0.0000,  0.0000)
  33 Li     0.000390    6.468050   15.477588    ( 0.0000,  0.0000,  0.0000)
  34 Li     3.222877    6.468100   15.474429    ( 0.0000,  0.0000,  0.0000)
  35 Li     6.459242    6.467835   15.485481    ( 0.0000,  0.0000,  0.0000)
  36 F      0.614968    1.542075   19.053022    ( 0.0000,  0.0000,  0.0000)
  37 H      0.076589    1.563874   18.275053    ( 0.0000,  0.0000,  0.0000)
  38 N     -0.727812    1.617939   16.579595    ( 0.0000,  0.0000,  0.0000)
  39 N     -1.422162    1.616283   15.532041    ( 0.0000,  0.0000,  0.0000)

Unit cell:
           periodic     x           y           z      points  spacing
  1. axis:    yes    9.702222    0.000000    0.000000    60     0.1617
  2. axis:    yes    0.000000    9.702222    0.000000    60     0.1617
  3. axis:    no     0.000000    0.000000   26.601111   168     0.1583

  Lengths:   9.702222   9.702222  26.601111
  Angles:   90.000000  90.000000  90.000000

Effective grid spacing dv^(1/3) = 0.1606

     iter     time        total  log10-change:
                         energy  eigst   dens
iter:   1 18:20:40  -254.126504  -1.38
iter:   2 18:23:10  -254.115022  -1.39  -1.63
iter:   3 18:25:41  -254.067513  -2.71  -1.66
iter:   4 18:28:13  -254.066592  -3.16  -2.39
Writing to output.gpw (mode='')

iter:   5 18:30:43  -254.065706c -2.42  -2.47
iter:   6 18:33:10  -254.065651c -3.09  -2.76
iter:   7 18:35:33  -254.065679c -3.04  -3.04
iter:   8 18:38:04  -254.065626c -3.41  -3.10
iter:   9 18:40:34  -254.065562c -3.72  -3.21
Writing to output.gpw (mode='')

iter:  10 18:42:59  -254.065551c -4.03  -3.27
iter:  11 18:45:24  -254.065545c -4.31  -3.42
iter:  12 18:47:49  -254.065559c -4.65  -3.46
iter:  13 18:50:23  -254.065576c -4.69  -3.62
iter:  14 18:53:01  -254.065582c -4.91  -3.81
Writing to output.gpw (mode='')

iter:  15 18:55:27  -254.065592c -4.89  -3.98
iter:  16 18:57:47  -254.065587c -5.32  -4.03c
iter:  17 19:00:13  -254.065579c -5.40  -4.18c
iter:  18 19:02:42  -254.065581c -5.75  -4.33c
iter:  19 19:05:12  -254.065582c -5.88  -4.40c
Writing to output.gpw (mode='')

iter:  20 19:07:42  -254.065583c -5.75  -4.42c
iter:  21 19:10:10  -254.065582c -6.10  -4.51c
iter:  22 19:12:43  -254.065582c -6.17  -4.57c
iter:  23 19:15:13  -254.065582c -6.36  -4.62c
iter:  24 19:17:43  -254.065583c -6.23  -4.62c
Writing to output.gpw (mode='')

iter:  25 19:20:16  -254.065583c -6.54  -4.74c
iter:  26 19:22:43  -254.065582c -6.64  -4.87c
iter:  27 19:25:14  -254.065582c -6.76  -5.05c
iter:  28 19:27:44  -254.065582c -6.93  -5.21c
iter:  29 19:30:12  -254.065582c -6.89  -5.25c
Writing to output.gpw (mode='')

iter:  30 19:32:47  -254.065582c -6.98  -5.29c
iter:  31 19:35:20  -254.065582c -7.03  -5.27c
iter:  32 19:37:48  -254.065582c -7.31  -5.28c
iter:  33 19:40:18  -254.065582c -7.45c -5.24c

Converged after 33 iterations.

Dipole moment: (-4.880942, -3.385061, -0.416191) |e|*Ang

Energy contributions relative to reference atoms: (reference = -12990.375485)

Kinetic:       +104.921951
Potential:      -94.537743
External:        +0.000000
XC:            -264.801513
Entropy (-ST):   -0.181129
Local:           +0.442288
--------------------------
Free energy:   -254.156146
Extrapolated:  -254.065582

Dipole-layer corrected work functions: 3.411029, 4.211091 eV

Showing only first 2 kpts
 Kpt  Band  Eigenvalues  Occupancy
  0    25     -4.02472    1.97251
  0    26     -3.82341    1.12288
  0    27     -3.75849    0.51792
  0    28     -3.62953    0.05164

  1    25     -3.97438    1.92651
  1    26     -3.82030    1.09215
  1    27     -3.75540    0.49458
  1    28     -3.66121    0.09512


Fermi level: -3.81106

Gap: 0.019 eV
Transition (v -> c):
  (s=0, k=1, n=26, [0.12, -0.12, 0.00]) -> (s=0, k=4, n=27, [0.38, -0.38, 0.00])
Writing to output.gpw (mode='')


Forces in eV/Ang:
  0 Li    0.00571   -0.00006   -0.28016
  1 Li    0.00022   -0.00008   -0.28009
  2 Li   -0.00692   -0.00008   -0.27134
  3 Li   -0.01512    0.01202   -0.28851
  4 Li   -0.01272    0.01188   -0.28564
  5 Li   -0.01570    0.01395   -0.29416
  6 Li   -0.01511   -0.01204   -0.28858
  7 Li   -0.01274   -0.01189   -0.28552
  8 Li   -0.01568   -0.01381   -0.29444
  9 Li   -0.01094    0.04678    0.34944
 10 Li    0.01681   -0.01632    0.26832
 11 Li    0.02783    0.04152    0.31808
 12 Li   -0.01112   -0.04707    0.34936
 13 Li    0.01681    0.01658    0.26859
 14 Li    0.02789   -0.04190    0.31840
 15 Li    0.06161    0.00004    0.27373
 16 Li    0.04120    0.00002    0.34977
 17 Li    0.03358    0.00019    0.27600
 18 Li   -0.00280    0.00020   -0.01269
 19 Li   -0.00159   -0.00016   -0.00360
 20 Li    0.00857    0.00072   -0.00752
 21 Li   -0.00573    0.00103   -0.00313
 22 Li   -0.00105   -0.00375    0.00108
 23 Li    0.00603   -0.00553    0.00062
 24 Li   -0.00513   -0.00210   -0.00450
 25 Li   -0.00117    0.00353    0.00113
 26 Li    0.00555    0.00423   -0.00029
 27 Li    0.00435   -0.00788   -0.01534
 28 Li   -0.01774    0.00119   -0.00962
 29 Li   -0.01333   -0.01607   -0.00332
 30 Li    0.01410    0.02434   -0.02263
 31 Li   -0.01722   -0.00097   -0.00979
 32 Li   -0.01493    0.01695   -0.00372
 33 Li    0.00844   -0.00051   -0.00911
 34 Li   -0.00701    0.00017    0.00545
 35 Li    0.00326    0.00011    0.00099
 36 F    -0.09515    0.00210   -0.10995
 37 H     0.07134   -0.00499    0.08116
 38 N    -0.09028   -0.01344   -0.08461
 39 N     0.05394   -0.00756    0.06957

System changes: positions 

Initializing position-dependent things.

Density initialized from wave functions
       .-----------------------.  
      /|                       |  
     / |                       |  
    /  |                       |  
   /   |                       |  
  /    |                       |  
 *     |                       |  
 |     |                       |  
 |     |                       |  
 |     |                       |  
 |     |                       |  
 |     |                       |  
 |     |                       |  
 |     |                       |  
 | F   |       Li              |  
 |H    |                       |  
 |   Li|     Li      Li        |  
 |     |  Li      Li    N Li   |  
 | Li  |   Li       Li         |  
 |     |Li      Li    N Li     |  
 Li    |          Li           |  
 |   LLi     LLi     LLi       |  
 |     |  Li      Li      Li   |  
 | Li  |   Li      Li          |  
 |     |Li      Li      Li     |  
 Li    | Li      Li            |  
 |    Li      Li      Li       |  
 |     |                       |  
 |     |                       |  
 |     |                       |  
 |     |                       |  
 |     |                       |  
 |     |                       |  
 |     .-----------------------.  
 |    /                       /   
 |   /                       /    
 |  /                       /     
 | /                       /      
 |/                       /       
 *-----------------------*        

Positions:
   0 Li     1.617037    1.617037   10.000000    ( 0.0000,  0.0000,  0.0000)
   1 Li     4.851111    1.617037   10.000000    ( 0.0000,  0.0000,  0.0000)
   2 Li     8.085185    1.617037   10.000000    ( 0.0000,  0.0000,  0.0000)
   3 Li     1.617037    4.851111   10.000000    ( 0.0000,  0.0000,  0.0000)
   4 Li     4.851111    4.851111   10.000000    ( 0.0000,  0.0000,  0.0000)
   5 Li     8.085185    4.851111   10.000000    ( 0.0000,  0.0000,  0.0000)
   6 Li     1.617037    8.085185   10.000000    ( 0.0000,  0.0000,  0.0000)
   7 Li     4.851111    8.085185   10.000000    ( 0.0000,  0.0000,  0.0000)
   8 Li     8.085185    8.085185   10.000000    ( 0.0000,  0.0000,  0.0000)
   9 Li     0.000000    0.000000   11.617037    ( 0.0000,  0.0000,  0.0000)
  10 Li     3.234074    0.000000   11.617037    ( 0.0000,  0.0000,  0.0000)
  11 Li     6.468148    0.000000   11.617037    ( 0.0000,  0.0000,  0.0000)
  12 Li     0.000000    3.234074   11.617037    ( 0.0000,  0.0000,  0.0000)
  13 Li     3.234074    3.234074   11.617037    ( 0.0000,  0.0000,  0.0000)
  14 Li     6.468148    3.234074   11.617037    ( 0.0000,  0.0000,  0.0000)
  15 Li     0.000000    6.468148   11.617037    ( 0.0000,  0.0000,  0.0000)
  16 Li     3.234074    6.468148   11.617037    ( 0.0000,  0.0000,  0.0000)
  17 Li     6.468148    6.468148   11.617037    ( 0.0000,  0.0000,  0.0000)
  18 Li     1.706198    1.616953   13.514689    ( 0.0000,  0.0000,  0.0000)
  19 Li     4.847714    1.616924   13.527197    ( 0.0000,  0.0000,  0.0000)
  20 Li     8.063135    1.616151   13.608796    ( 0.0000,  0.0000,  0.0000)
  21 Li     1.648641    4.808447   13.557503    ( 0.0000,  0.0000,  0.0000)
  22 Li     4.929043    4.822463   13.551988    ( 0.0000,  0.0000,  0.0000)
  23 Li     8.138184    4.863116   13.495379    ( 0.0000,  0.0000,  0.0000)
  24 Li     1.648779    8.128414   13.557861    ( 0.0000,  0.0000,  0.0000)
  25 Li     4.928586    8.114034   13.552222    ( 0.0000,  0.0000,  0.0000)
  26 Li     8.138344    8.073398   13.495534    ( 0.0000,  0.0000,  0.0000)
  27 Li     0.027463    0.035080   15.612916    ( 0.0000,  0.0000,  0.0000)
  28 Li     3.407851   -0.030753   15.575836    ( 0.0000,  0.0000,  0.0000)
  29 Li     6.788143    0.112396   15.503320    ( 0.0000,  0.0000,  0.0000)
  30 Li     0.025959    3.195570   15.617231    ( 0.0000,  0.0000,  0.0000)
  31 Li     3.408338    3.264836   15.573410    ( 0.0000,  0.0000,  0.0000)
  32 Li     6.789874    3.120463   15.503823    ( 0.0000,  0.0000,  0.0000)
  33 Li     0.000587    6.468061   15.478006    ( 0.0000,  0.0000,  0.0000)
  34 Li     3.224261    6.468104   15.475098    ( 0.0000,  0.0000,  0.0000)
  35 Li     6.459111    6.467842   15.485894    ( 0.0000,  0.0000,  0.0000)
  36 F      0.613049    1.542378   19.047271    ( 0.0000,  0.0000,  0.0000)
  37 H      0.074781    1.563338   18.270733    ( 0.0000,  0.0000,  0.0000)
  38 N     -0.727717    1.617983   16.579255    ( 0.0000,  0.0000,  0.0000)
  39 N     -1.423040    1.615991   15.533354    ( 0.0000,  0.0000,  0.0000)

Unit cell:
           periodic     x           y           z      points  spacing
  1. axis:    yes    9.702222    0.000000    0.000000    60     0.1617
  2. axis:    yes    0.000000    9.702222    0.000000    60     0.1617
  3. axis:    no     0.000000    0.000000   26.601111   168     0.1583

  Lengths:   9.702222   9.702222  26.601111
  Angles:   90.000000  90.000000  90.000000

Effective grid spacing dv^(1/3) = 0.1606

     iter     time        total  log10-change:
                         energy  eigst   dens
iter:   1 19:43:33  -254.066365  -2.73
iter:   2 19:45:56  -254.066653  -3.06  -2.66
iter:   3 19:48:28  -254.066113c -4.02  -2.64
iter:   4 19:50:54  -254.066062c -4.36  -3.14
Writing to output.gpw (mode='')

iter:   5 19:53:31  -254.066019c -3.92  -3.26
iter:   6 19:56:13  -254.066015c -4.55  -3.43
iter:   7 19:58:38  -254.066005c -3.90  -3.46
iter:   8 20:01:04  -254.066001c -4.93  -3.56
iter:   9 20:03:36  -254.066004c -5.17  -3.64
Writing to output.gpw (mode='')

iter:  10 20:06:10  -254.066013c -4.96  -3.79
iter:  11 20:08:40  -254.066013c -5.52  -3.85
iter:  12 20:11:10  -254.066006c -5.22  -3.96
iter:  13 20:13:36  -254.066004c -6.09  -4.16c
iter:  14 20:16:01  -254.066004c -6.15  -4.27c
Writing to output.gpw (mode='')

iter:  15 20:18:36  -254.066006c -6.69  -4.32c
iter:  16 20:21:14  -254.066008c -6.45  -4.42c
iter:  17 20:23:48  -254.066007c -6.88  -4.47c
iter:  18 20:26:17  -254.066005c -6.82  -4.55c
iter:  19 20:28:40  -254.066005c -7.16  -4.64c
Writing to output.gpw (mode='')

iter:  20 20:31:11  -254.066005c -7.30  -4.66c
iter:  21 20:33:35  -254.066006c -7.18  -4.68c
iter:  22 20:35:55  -254.066005c -7.07  -4.91c
iter:  23 20:38:18  -254.066006c -7.69c -5.08c

Converged after 23 iterations.

Dipole moment: (-4.912447, -3.367867, -0.415305) |e|*Ang

Energy contributions relative to reference atoms: (reference = -12990.375485)

Kinetic:       +105.017152
Potential:      -94.615847
External:        +0.000000
XC:            -264.818697
Entropy (-ST):   -0.181163
Local:           +0.441968
--------------------------
Free energy:   -254.156587
Extrapolated:  -254.066006

Dipole-layer corrected work functions: 3.410860, 4.209219 eV

Showing only first 2 kpts
 Kpt  Band  Eigenvalues  Occupancy
  0    25     -4.02386    1.97260
  0    26     -3.82213    1.12030
  0    27     -3.75749    0.51808
  0    28     -3.62818    0.05130

  1    25     -3.97281    1.92574
  1    26     -3.81933    1.09269
  1    27     -3.75448    0.49529
  1    28     -3.65994    0.09467


Fermi level: -3.81004

Gap: 0.019 eV
Transition (v -> c):
  (s=0, k=1, n=26, [0.12, -0.12, 0.00]) -> (s=0, k=4, n=27, [0.38, -0.38, 0.00])
Writing to output.gpw (mode='')


Forces in eV/Ang:
  0 Li    0.00572   -0.00007   -0.28002
  1 Li    0.00019   -0.00009   -0.28003
  2 Li   -0.00684   -0.00008   -0.27135
  3 Li   -0.01508    0.01203   -0.28854
  4 Li   -0.01268    0.01191   -0.28561
  5 Li   -0.01571    0.01402   -0.29412
  6 Li   -0.01506   -0.01206   -0.28862
  7 Li   -0.01271   -0.01192   -0.28550
  8 Li   -0.01570   -0.01387   -0.29442
  9 Li   -0.01093    0.04611    0.34990
 10 Li    0.01653   -0.01666    0.26804
 11 Li    0.02763    0.04157    0.31844
 12 Li   -0.01111   -0.04640    0.34983
 13 Li    0.01654    0.01694    0.26832
 14 Li    0.02769   -0.04197    0.31878
 15 Li    0.06190    0.00005    0.27334
 16 Li    0.04116    0.00001    0.34930
 17 Li    0.03300    0.00018    0.27489
 18 Li   -0.00191    0.00024   -0.01284
 19 Li   -0.00078   -0.00015   -0.00308
 20 Li    0.00780    0.00042   -0.00294
 21 Li   -0.00564    0.00105   -0.00359
 22 Li   -0.00120   -0.00433    0.00157
 23 Li    0.00703   -0.00637    0.00109
 24 Li   -0.00500   -0.00216   -0.00500
 25 Li   -0.00131    0.00415    0.00161
 26 Li    0.00655    0.00506    0.00017
 27 Li   -0.00072    0.00060   -0.01160
 28 Li   -0.01711    0.00120   -0.01038
 29 Li   -0.01547   -0.01735   -0.00339
 30 Li    0.00884    0.01571   -0.01899
 31 Li   -0.01656   -0.00098   -0.01052
 32 Li   -0.01664    0.01780   -0.00359
 33 Li    0.00853   -0.00057   -0.00969
 34 Li   -0.00843    0.00017    0.00511
 35 Li    0.00372    0.00006    0.00066
 36 F    -0.06913   -0.00736   -0.03280
 37 H     0.03553   -0.00400    0.03006
 38 N    -0.07566   -0.01343   -0.07747
 39 N     0.03951   -0.00679    0.04949

System changes: positions 

Initializing position-dependent things.

Density initialized from wave functions
       .-----------------------.  
      /|                       |  
     / |                       |  
    /  |                       |  
   /   |                       |  
  /    |                       |  
 *     |                       |  
 |     |                       |  
 |     |                       |  
 |     |                       |  
 |     |                       |  
 |     |                       |  
 |     |                       |  
 |     |                       |  
 | F   |       Li              |  
 |H    |                       |  
 |   Li|     Li      Li        |  
 |     |  Li      Li    N Li   |  
 | Li  |   Li       Li         |  
 |     |Li      Li    N Li     |  
 Li    |          Li           |  
 |   LLi     LLi     LLi       |  
 |     |  Li      Li      Li   |  
 | Li  |   Li      Li          |  
 |     |Li      Li      Li     |  
 Li    | Li      Li            |  
 |    Li      Li      Li       |  
 |     |                       |  
 |     |                       |  
 |     |                       |  
 |     |                       |  
 |     |                       |  
 |     |                       |  
 |     .-----------------------.  
 |    /                       /   
 |   /                       /    
 |  /                       /     
 | /                       /      
 |/                       /       
 *-----------------------*        

Positions:
   0 Li     1.617037    1.617037   10.000000    ( 0.0000,  0.0000,  0.0000)
   1 Li     4.851111    1.617037   10.000000    ( 0.0000,  0.0000,  0.0000)
   2 Li     8.085185    1.617037   10.000000    ( 0.0000,  0.0000,  0.0000)
   3 Li     1.617037    4.851111   10.000000    ( 0.0000,  0.0000,  0.0000)
   4 Li     4.851111    4.851111   10.000000    ( 0.0000,  0.0000,  0.0000)
   5 Li     8.085185    4.851111   10.000000    ( 0.0000,  0.0000,  0.0000)
   6 Li     1.617037    8.085185   10.000000    ( 0.0000,  0.0000,  0.0000)
   7 Li     4.851111    8.085185   10.000000    ( 0.0000,  0.0000,  0.0000)
   8 Li     8.085185    8.085185   10.000000    ( 0.0000,  0.0000,  0.0000)
   9 Li     0.000000    0.000000   11.617037    ( 0.0000,  0.0000,  0.0000)
  10 Li     3.234074    0.000000   11.617037    ( 0.0000,  0.0000,  0.0000)
  11 Li     6.468148    0.000000   11.617037    ( 0.0000,  0.0000,  0.0000)
  12 Li     0.000000    3.234074   11.617037    ( 0.0000,  0.0000,  0.0000)
  13 Li     3.234074    3.234074   11.617037    ( 0.0000,  0.0000,  0.0000)
  14 Li     6.468148    3.234074   11.617037    ( 0.0000,  0.0000,  0.0000)
  15 Li     0.000000    6.468148   11.617037    ( 0.0000,  0.0000,  0.0000)
  16 Li     3.234074    6.468148   11.617037    ( 0.0000,  0.0000,  0.0000)
  17 Li     6.468148    6.468148   11.617037    ( 0.0000,  0.0000,  0.0000)
  18 Li     1.705162    1.616968   13.512315    ( 0.0000,  0.0000,  0.0000)
  19 Li     4.846773    1.616911   13.527463    ( 0.0000,  0.0000,  0.0000)
  20 Li     8.064794    1.616300   13.607919    ( 0.0000,  0.0000,  0.0000)
  21 Li     1.648114    4.809033   13.557489    ( 0.0000,  0.0000,  0.0000)
  22 Li     4.928142    4.822586   13.552286    ( 0.0000,  0.0000,  0.0000)
  23 Li     8.137598    4.863591   13.495124    ( 0.0000,  0.0000,  0.0000)
  24 Li     1.648274    8.127795   13.557758    ( 0.0000,  0.0000,  0.0000)
  25 Li     4.927666    8.113876   13.552522    ( 0.0000,  0.0000,  0.0000)
  26 Li     8.137720    8.072858   13.495168    ( 0.0000,  0.0000,  0.0000)
  27 Li     0.030121    0.031947   15.609513    ( 0.0000,  0.0000,  0.0000)
  28 Li     3.404532   -0.030705   15.574616    ( 0.0000,  0.0000,  0.0000)
  29 Li     6.787156    0.111862   15.501389    ( 0.0000,  0.0000,  0.0000)
  30 Li     0.028619    3.198360   15.614326    ( 0.0000,  0.0000,  0.0000)
  31 Li     3.405052    3.264796   15.572159    ( 0.0000,  0.0000,  0.0000)
  32 Li     6.788738    3.121046   15.501815    ( 0.0000,  0.0000,  0.0000)
  33 Li     0.001269    6.468060   15.476757    ( 0.0000,  0.0000,  0.0000)
  34 Li     3.225465    6.468116   15.475683    ( 0.0000,  0.0000,  0.0000)
  35 Li     6.459193    6.467852   15.486250    ( 0.0000,  0.0000,  0.0000)
  36 F      0.610199    1.542497   19.044437    ( 0.0000,  0.0000,  0.0000)
  37 H      0.073849    1.563140   18.268950    ( 0.0000,  0.0000,  0.0000)
  38 N     -0.725564    1.618508   16.578093    ( 0.0000,  0.0000,  0.0000)
  39 N     -1.424941    1.615268   15.536977    ( 0.0000,  0.0000,  0.0000)

Unit cell:
           periodic     x           y           z      points  spacing
  1. axis:    yes    9.702222    0.000000    0.000000    60     0.1617
  2. axis:    yes    0.000000    9.702222    0.000000    60     0.1617
  3. axis:    no     0.000000    0.000000   26.601111   168     0.1583

  Lengths:   9.702222   9.702222  26.601111
  Angles:   90.000000  90.000000  90.000000

Effective grid spacing dv^(1/3) = 0.1606

     iter     time        total  log10-change:
                         energy  eigst   dens
iter:   1 20:41:29  -254.066983  -2.39
iter:   2 20:43:52  -254.067311  -2.76  -2.53
iter:   3 20:46:20  -254.066591c -3.47  -2.53
iter:   4 20:48:52  -254.066438c -3.63  -2.88
Writing to output.gpw (mode='')

iter:   5 20:51:14  -254.066429c -3.75  -3.14
iter:   6 20:53:44  -254.066419c -3.98  -3.23
iter:   7 20:56:06  -254.066446c -3.58  -3.32
iter:   8 20:58:36  -254.066423c -4.52  -3.38
iter:   9 21:01:05  -254.066412c -4.89  -3.56
Writing to output.gpw (mode='')

iter:  10 21:03:28  -254.066409c -4.99  -3.69
iter:  11 21:06:00  -254.066413c -5.23  -3.83
iter:  12 21:08:38  -254.066412c -5.03  -3.83
iter:  13 21:11:11  -254.066415c -5.60  -3.95
iter:  14 21:13:36  -254.066416c -5.63  -4.00
Writing to output.gpw (mode='')

iter:  15 21:16:11  -254.066414c -5.65  -4.09c
iter:  16 21:18:51  -254.066414c -6.04  -4.33c
iter:  17 21:21:19  -254.066413c -6.24  -4.39c
iter:  18 21:23:50  -254.066412c -6.21  -4.54c
iter:  19 21:26:23  -254.066413c -6.52  -4.50c
Writing to output.gpw (mode='')

iter:  20 21:28:48  -254.066414c -6.39  -4.64c
iter:  21 21:31:13  -254.066414c -6.73  -4.74c
iter:  22 21:33:43  -254.066414c -6.95  -4.88c
iter:  23 21:36:13  -254.066413c -6.91  -4.92c
iter:  24 21:38:36  -254.066413c -6.88  -5.09c
Writing to output.gpw (mode='')

iter:  25 21:41:03  -254.066414c -7.29  -5.18c
iter:  26 21:43:33  -254.066414c -7.39  -5.24c
iter:  27 21:46:02  -254.066414c -7.53c -5.32c

Converged after 27 iterations.

Dipole moment: (-4.978131, -3.331513, -0.413947) |e|*Ang

Energy contributions relative to reference atoms: (reference = -12990.375485)

Kinetic:       +105.187776
Potential:      -94.760567
External:        +0.000000
XC:            -264.844621
Entropy (-ST):   -0.181204
Local:           +0.441600
--------------------------
Free energy:   -254.157016
Extrapolated:  -254.066414

Dipole-layer corrected work functions: 3.410613, 4.206362 eV

Showing only first 2 kpts
 Kpt  Band  Eigenvalues  Occupancy
[...]
Writing to output.gpw (mode='')

iter:   5 21:13:18  -254.080652c -4.15  -3.29
iter:   6 21:15:50  -254.080617c -3.82  -3.44
iter:   7 21:18:21  -254.080627c -4.63  -3.53
iter:   8 21:20:55  -254.080640c -4.47  -3.64
iter:   9 21:23:32  -254.080651c -4.76  -3.64
Writing to output.gpw (mode='')

iter:  10 21:26:13  -254.080634c -4.89  -3.65
iter:  11 21:28:51  -254.080635c -5.47  -3.94
iter:  12 21:31:25  -254.080639c -5.24  -3.96
iter:  13 21:33:53  -254.080630c -5.24  -4.05c
iter:  14 21:36:19  -254.080630c -5.93  -4.11c
Writing to output.gpw (mode='')

iter:  15 21:38:50  -254.080634c -6.23  -4.15c
iter:  16 21:41:23  -254.080635c -5.97  -4.31c
iter:  17 21:43:48  -254.080633c -6.23  -4.45c
iter:  18 21:46:18  -254.080634c -6.79  -4.40c
iter:  19 21:48:47  -254.080636c -6.27  -4.45c
Writing to output.gpw (mode='')

iter:  20 21:51:16  -254.080636c -7.02  -4.74c
iter:  21 21:53:54  -254.080634c -6.78  -4.80c
iter:  22 21:56:20  -254.080635c -7.08  -4.84c
iter:  23 21:59:03  -254.080635c -6.91  -5.01c
iter:  24 22:01:31  -254.080635c -7.64c -5.07c

Converged after 24 iterations.

Dipole moment: (-5.215039, -3.626193, -0.411051) |e|*Ang

Energy contributions relative to reference atoms: (reference = -12990.375485)

Kinetic:       +106.247250
Potential:      -95.444942
External:        +0.000000
XC:            -265.232010
Entropy (-ST):   -0.181583
Local:           +0.439859
--------------------------
Free energy:   -254.171427
Extrapolated:  -254.080635

Dipole-layer corrected work functions: 3.412524, 4.202706 eV

Showing only first 2 kpts
 Kpt  Band  Eigenvalues  Occupancy
  0    25     -4.02866    1.97624
  0    26     -3.82276    1.15026
  0    27     -3.75159    0.49186
  0    28     -3.63282    0.05886

  1    25     -3.97392    1.93062
  1    26     -3.81399    1.06367
  1    27     -3.74975    0.47828
  1    28     -3.65958    0.09846


Fermi level: -3.80762

Gap: 0.010 eV
Transition (v -> c):
  (s=0, k=2, n=26, [0.12, 0.12, 0.00]) -> (s=0, k=4, n=27, [0.38, -0.38, 0.00])
Writing to output.gpw (mode='')


Forces in eV/Ang:
  0 Li    0.00389   -0.00010   -0.27996
  1 Li    0.00442   -0.00044   -0.27862
  2 Li   -0.00637   -0.00047   -0.26838
  3 Li   -0.01273    0.01129   -0.28632
  4 Li   -0.01337    0.01264   -0.28594
  5 Li   -0.01665    0.00999   -0.29382
  6 Li   -0.01269   -0.01166   -0.28607
  7 Li   -0.01342   -0.01286   -0.28620
  8 Li   -0.01689   -0.00941   -0.29383
  9 Li   -0.00771    0.03472    0.33361
 10 Li    0.01622   -0.02584    0.25594
 11 Li    0.01014    0.02303    0.30280
 12 Li   -0.00904   -0.03647    0.33569
 13 Li    0.01663    0.02757    0.25639
 14 Li    0.01160   -0.02567    0.30508
 15 Li    0.06762   -0.00075    0.25439
 16 Li    0.04620   -0.00043    0.33501
 17 Li    0.02384    0.00017    0.27081
 18 Li   -0.01042   -0.00052   -0.00235
 19 Li    0.00119    0.00048    0.00685
 20 Li   -0.00795    0.00148    0.01309
 21 Li    0.00031   -0.00069    0.00259
 22 Li   -0.00159   -0.00117    0.00318
 23 Li   -0.00184   -0.00071   -0.00142
 24 Li   -0.00175    0.00406    0.00591
 25 Li   -0.00203    0.00095    0.00269
 26 Li   -0.00023    0.00179    0.00161
 27 Li   -0.00745    0.01036   -0.00366
 28 Li    0.00159   -0.00199   -0.00942
 29 Li   -0.00335    0.00236   -0.00947
 30 Li   -0.00514    0.00038   -0.00878
 31 Li    0.00269    0.00178   -0.00993
 32 Li   -0.00534    0.00593   -0.00664
 33 Li   -0.00395    0.00216   -0.00174
 34 Li   -0.00057   -0.00036   -0.01191
 35 Li    0.00248   -0.00086   -0.00807
 36 F     0.02836    0.02890   -0.00530
 37 H     0.00656   -0.00495    0.00773
 38 N     0.02602    0.00103    0.02453
 39 N    -0.03904   -0.02320   -0.04929

System changes: positions 

Initializing position-dependent things.

Density initialized from wave functions
       .-----------------------.  
      /|                       |  
     / |                       |  
    /  |                       |  
   /   |                       |  
  /    |                       |  
 *     |                       |  
 |     |                       |  
 |     |                       |  
 |     |                       |  
 |     |                       |  
 |     |                       |  
 |     |                       |  
 |     |                       |  
 |     |       Li              |  
 | F   |                       |  
 |   Li|     Li      Li   H    |  
 |     |  Li      Li      Li   |  
 | Li  |   Li       Li  N      |  
 |     |Li      Li    N Li     |  
 Li    |          Li           |  
 |   LLi     LLi     LLi       |  
 |     |  Li      Li      Li   |  
 | Li  |   Li      Li          |  
 |     |Li      Li      Li     |  
 Li    | Li      Li            |  
 |    Li      Li      Li       |  
 |     |                       |  
 |     |                       |  
 |     |                       |  
 |     |                       |  
 |     |                       |  
 |     |                       |  
 |     .-----------------------.  
 |    /                       /   
 |   /                       /    
 |  /                       /     
 | /                       /      
 |/                       /       
 *-----------------------*        

Positions:
   0 Li     1.617037    1.617037   10.000000    ( 0.0000,  0.0000,  0.0000)
   1 Li     4.851111    1.617037   10.000000    ( 0.0000,  0.0000,  0.0000)
   2 Li     8.085185    1.617037   10.000000    ( 0.0000,  0.0000,  0.0000)
   3 Li     1.617037    4.851111   10.000000    ( 0.0000,  0.0000,  0.0000)
   4 Li     4.851111    4.851111   10.000000    ( 0.0000,  0.0000,  0.0000)
   5 Li     8.085185    4.851111   10.000000    ( 0.0000,  0.0000,  0.0000)
   6 Li     1.617037    8.085185   10.000000    ( 0.0000,  0.0000,  0.0000)
   7 Li     4.851111    8.085185   10.000000    ( 0.0000,  0.0000,  0.0000)
   8 Li     8.085185    8.085185   10.000000    ( 0.0000,  0.0000,  0.0000)
   9 Li     0.000000    0.000000   11.617037    ( 0.0000,  0.0000,  0.0000)
  10 Li     3.234074    0.000000   11.617037    ( 0.0000,  0.0000,  0.0000)
  11 Li     6.468148    0.000000   11.617037    ( 0.0000,  0.0000,  0.0000)
  12 Li     0.000000    3.234074   11.617037    ( 0.0000,  0.0000,  0.0000)
  13 Li     3.234074    3.234074   11.617037    ( 0.0000,  0.0000,  0.0000)
  14 Li     6.468148    3.234074   11.617037    ( 0.0000,  0.0000,  0.0000)
  15 Li     0.000000    6.468148   11.617037    ( 0.0000,  0.0000,  0.0000)
  16 Li     3.234074    6.468148   11.617037    ( 0.0000,  0.0000,  0.0000)
  17 Li     6.468148    6.468148   11.617037    ( 0.0000,  0.0000,  0.0000)
  18 Li     1.697260    1.617683   13.479127    ( 0.0000,  0.0000,  0.0000)
  19 Li     4.831838    1.616708   13.514592    ( 0.0000,  0.0000,  0.0000)
  20 Li     8.044304    1.612262   13.536060    ( 0.0000,  0.0000,  0.0000)
  21 Li     1.646463    4.820256   13.541895    ( 0.0000,  0.0000,  0.0000)
  22 Li     4.920562    4.825020   13.554634    ( 0.0000,  0.0000,  0.0000)
  23 Li     8.142249    4.868597   13.480346    ( 0.0000,  0.0000,  0.0000)
  24 Li     1.647193    8.115584   13.540873    ( 0.0000,  0.0000,  0.0000)
  25 Li     4.918977    8.111463   13.554961    ( 0.0000,  0.0000,  0.0000)
  26 Li     8.142239    8.066070   13.480039    ( 0.0000,  0.0000,  0.0000)
  27 Li     0.008051    0.057894   15.557808    ( 0.0000,  0.0000,  0.0000)
  28 Li     3.345620   -0.028248   15.554387    ( 0.0000,  0.0000,  0.0000)
  29 Li     6.767505    0.104037   15.458453    ( 0.0000,  0.0000,  0.0000)
  30 Li     0.013216    3.188041   15.554997    ( 0.0000,  0.0000,  0.0000)
  31 Li     3.348955    3.262869   15.550473    ( 0.0000,  0.0000,  0.0000)
  32 Li     6.773442    3.124674   15.463505    ( 0.0000,  0.0000,  0.0000)
  33 Li     0.021676    6.467423   15.465550    ( 0.0000,  0.0000,  0.0000)
  34 Li     3.225734    6.468072   15.496620    ( 0.0000,  0.0000,  0.0000)
  35 Li     6.470977    6.466213   15.488218    ( 0.0000,  0.0000,  0.0000)
  36 F      0.542883    1.479630   18.911126    ( 0.0000,  0.0000,  0.0000)
  37 H     -0.004612    1.528654   18.141072    ( 0.0000,  0.0000,  0.0000)
  38 N     -0.807619    1.628884   16.513736    ( 0.0000,  0.0000,  0.0000)
  39 N     -1.450599    1.613833   15.437553    ( 0.0000,  0.0000,  0.0000)

Unit cell:
           periodic     x           y           z      points  spacing
  1. axis:    yes    9.702222    0.000000    0.000000    60     0.1617
  2. axis:    yes    0.000000    9.702222    0.000000    60     0.1617
  3. axis:    no     0.000000    0.000000   26.601111   168     0.1583

  Lengths:   9.702222   9.702222  26.601111
  Angles:   90.000000  90.000000  90.000000

Effective grid spacing dv^(1/3) = 0.1606

     iter     time        total  log10-change:
                         energy  eigst   dens
iter:   1 22:04:40  -254.082058  -2.57
iter:   2 22:07:05  -254.081247  -3.03  -2.60
iter:   3 22:09:29  -254.081184c -3.60  -2.65
iter:   4 22:12:03  -254.080973c -3.79  -2.95
Writing to output.gpw (mode='')

iter:   5 22:14:32  -254.080948c -3.62  -3.19
iter:   6 22:17:03  -254.080965c -3.70  -3.37
iter:   7 22:19:33  -254.080921c -4.55  -3.36
iter:   8 22:21:58  -254.080909c -4.51  -3.77
iter:   9 22:24:38  -254.080929c -4.79  -3.72
Writing to output.gpw (mode='')

iter:  10 22:27:17  -254.080919c -5.33  -3.74
iter:  11 22:29:51  -254.080913c -5.23  -3.81
iter:  12 22:32:19  -254.080916c -5.40  -3.77
iter:  13 22:34:46  -254.080917c -5.19  -3.79
iter:  14 22:37:24  -254.080920c -5.83  -4.02c
Writing to output.gpw (mode='')

iter:  15 22:39:56  -254.080922c -6.03  -4.08c
iter:  16 22:42:27  -254.080923c -5.84  -4.12c
iter:  17 22:44:59  -254.080922c -6.28  -4.17c
iter:  18 22:47:27  -254.080916c -6.33  -4.24c
iter:  19 22:49:52  -254.080919c -6.57  -4.32c
Writing to output.gpw (mode='')

iter:  20 22:52:27  -254.080922c -6.68  -4.41c
iter:  21 22:55:06  -254.080916c -6.57  -4.34c
iter:  22 22:57:39  -254.080920c -6.63  -4.50c
iter:  23 23:00:04  -254.080919c -7.13  -4.86c
iter:  24 23:02:30  -254.080920c -7.07  -4.91c
Writing to output.gpw (mode='')

iter:  25 23:04:58  -254.080919c -7.44c -5.12c

Converged after 25 iterations.

Dipole moment: (-5.046773, -3.650062, -0.410605) |e|*Ang

Energy contributions relative to reference atoms: (reference = -12990.375485)

Kinetic:       +106.216106
Potential:      -95.413129
External:        +0.000000
XC:            -265.232877
Entropy (-ST):   -0.181559
Local:           +0.439759
--------------------------
Free energy:   -254.171699
Extrapolated:  -254.080919

Dipole-layer corrected work functions: 3.412542, 4.201866 eV

Showing only first 2 kpts
 Kpt  Band  Eigenvalues  Occupancy
  0    25     -4.02816    1.97620
  0    26     -3.82249    1.15173
  0    27     -3.75113    0.49145
  0    28     -3.63221    0.05863

  1    25     -3.97260    1.92941
  1    26     -3.81415    1.06940
  1    27     -3.74895    0.47552
  1    28     -3.65876    0.09771


Fermi level: -3.80720

Gap: 0.010 eV
Transition (v -> c):
  (s=0, k=2, n=26, [0.12, 0.12, 0.00]) -> (s=0, k=4, n=27, [0.38, -0.38, 0.00])

Forces in eV/Ang:
  0 Li    0.00389   -0.00013   -0.27991
  1 Li    0.00446   -0.00044   -0.27866
  2 Li   -0.00633   -0.00048   -0.26829
  3 Li   -0.01269    0.01133   -0.28643
  4 Li   -0.01333    0.01268   -0.28607
  5 Li   -0.01665    0.01008   -0.29392
  6 Li   -0.01260   -0.01174   -0.28613
  7 Li   -0.01339   -0.01292   -0.28641
  8 Li   -0.01689   -0.00956   -0.29382
  9 Li   -0.00820    0.03383    0.33348
 10 Li    0.01636   -0.02583    0.25674
 11 Li    0.00919    0.02283    0.30339
 12 Li   -0.00950   -0.03550    0.33580
 13 Li    0.01679    0.02765    0.25726
 14 Li    0.01081   -0.02561    0.30581
 15 Li    0.06750   -0.00064    0.25469
 16 Li    0.04602   -0.00038    0.33511
 17 Li    0.02293    0.00023    0.27120
 18 Li   -0.00891   -0.00029   -0.00100
 19 Li   -0.00037    0.00038    0.00280
 20 Li   -0.00701    0.00024    0.01264
 21 Li    0.00034   -0.00044    0.00032
 22 Li    0.00006   -0.00094    0.00077
 23 Li   -0.00100   -0.00090   -0.00207
 24 Li   -0.00191    0.00414    0.00389
 25 Li   -0.00025    0.00116    0.00067
 26 Li    0.00056    0.00282    0.00100
 27 Li    0.00030   -0.00352   -0.00941
 28 Li    0.00138   -0.00060   -0.00782
 29 Li   -0.00626   -0.00167   -0.00768
 30 Li   -0.01265   -0.01015   -0.00443
 31 Li    0.00231    0.00054   -0.00827
 32 Li   -0.00284    0.00415   -0.00433
 33 Li   -0.00337    0.00217   -0.00108
 34 Li   -0.00217   -0.00069   -0.01041
 35 Li    0.00222   -0.00105   -0.00787
 36 F    -0.00063    0.01707   -0.02755
 37 H     0.02561   -0.00420    0.01800
 38 N    -0.00331   -0.00360   -0.01027
 39 N    -0.02181   -0.01932   -0.01638

Timing:                                      incl.     excl.
-------------------------------------------------------------------
Density initialized from wave functions:    69.381    69.380   0.1% |
 Symmetrize density:                         0.001     0.001   0.0% |
Forces:                                    223.818   223.818   0.2% |
Hamiltonian:                              3010.351     0.018   0.0% |
 Atomic:                                     4.625     0.031   0.0% |
  XC Correction:                             4.594     4.594   0.0% |
 Calculate atomic Hamiltonians:             15.133    15.133   0.0% |
 Communicate:                               14.818    14.818   0.0% |
 Hartree integrate/restrict:                 6.112     6.112   0.0% |
 Poisson:                                  118.283    53.612   0.0% |
  Communicate from 1D:                       8.782     8.782   0.0% |
  Communicate from 2D:                      15.824    15.824   0.0% |
  Communicate to 1D:                         3.559     3.559   0.0% |
  Communicate to 2D:                        13.015    13.015   0.0% |
  FFT 1D:                                   11.640    11.640   0.0% |
  FFT 2D:                                   11.851    11.851   0.0% |
 XC 3D grid:                              2849.980   288.564   0.2% |
  VdW-DF integral:                        2561.416     5.729   0.0% |
   Convolution:                            165.326   165.326   0.1% |
   FFT:                                     28.535    28.535   0.0% |
   gather:                                2035.932  2035.932   1.5% ||
   hmm1:                                    28.186    28.186   0.0% |
   hmm2:                                    38.979    38.979   0.0% |
   iFFT:                                    29.751    29.751   0.0% |
   potential:                              214.320     2.470   0.0% |
    collect:                                20.154    20.154   0.0% |
    p1:                                     87.911    87.911   0.1% |
    p2:                                     56.552    56.552   0.0% |
    sum:                                    47.234    47.234   0.0% |
   splines:                                 14.659    14.659   0.0% |
 vbar:                                       1.382     1.382   0.0% |
LCAO initialization:                        11.917     0.612   0.0% |
 LCAO eigensolver:                           4.030     0.001   0.0% |
  Calculate projections:                     0.000     0.000   0.0% |
  DenseAtomicCorrection:                     0.000     0.000   0.0% |
  Distribute overlap matrix:                 3.778     3.778   0.0% |
  Orbital Layouts:                           0.037     0.037   0.0% |
  Potential matrix:                          0.210     0.210   0.0% |
  Sum over cells:                            0.004     0.004   0.0% |
 LCAO to grid:                               5.626     5.626   0.0% |
 Set positions (LCAO WFS):                   1.649     1.146   0.0% |
  Basic WFS set positions:                   0.003     0.003   0.0% |
  Basis functions set positions:             0.001     0.001   0.0% |
  P tci:                                     0.000     0.000   0.0% |
  ST tci:                                    0.300     0.300   0.0% |
  mktci:                                     0.198     0.198   0.0% |
Redistribute:                                0.072     0.072   0.0% |
SCF-cycle:                               128071.044  1702.281   1.3% ||
 Davidson:                               35070.429 14622.711  11.1% |---|
  Apply hamiltonian:                      2247.488  2247.488   1.7% ||
  Subspace diag:                          4814.081     0.237   0.0% |
   calc_h_matrix:                         3005.103   819.859   0.6% |
    Apply hamiltonian:                    2185.245  2185.245   1.7% ||
   diagonalize:                            184.450   184.450   0.1% |
   rotate_psi:                            1624.290  1624.290   1.2% |
  calc. matrices:                        10209.174  6156.354   4.7% |-|
   Apply hamiltonian:                     4052.821  4052.821   3.1% ||
  diagonalize:                              12.156    12.156   0.0% |
  rotate_psi:                             3164.819  3164.819   2.4% ||
 Density:                                  851.930     0.070   0.0% |
  Atomic density matrices:                 221.437   221.437   0.2% |
  Mix:                                     285.511   285.511   0.2% |
  Multipole moments:                         2.997     2.997   0.0% |
  Pseudo density:                          341.914   341.887   0.3% |
   Symmetrize density:                       0.027     0.027   0.0% |
 Hamiltonian:                            90357.426     0.233   0.0% |
  Atomic:                                  135.402     1.653   0.0% |
   XC Correction:                          133.749   133.749   0.1% |
  Calculate atomic Hamiltonians:           449.735   449.735   0.3% |
  Communicate:                             444.172   444.172   0.3% |
  Hartree integrate/restrict:              158.024   158.024   0.1% |
  Poisson:                                3552.346  1609.166   1.2% |
   Communicate from 1D:                    260.560   260.560   0.2% |
   Communicate from 2D:                    448.641   448.641   0.3% |
   Communicate to 1D:                      108.111   108.111   0.1% |
   Communicate to 2D:                      414.092   414.092   0.3% |
   FFT 1D:                                 351.652   351.652   0.3% |
   FFT 2D:                                 360.123   360.123   0.3% |
  XC 3D grid:                            85577.097  8599.788   6.5% |--|
   VdW-DF integral:                      76977.309   175.244   0.1% |
    Convolution:                          4884.280  4884.280   3.7% ||
    FFT:                                   814.720   814.720   0.6% |
    gather:                              61739.699 61739.699  46.7% |------------------|
    hmm1:                                  879.118   879.118   0.7% |
    hmm2:                                 1182.720  1182.720   0.9% |
    iFFT:                                  860.341   860.341   0.7% |
    potential:                            6441.172    72.111   0.1% |
     collect:                              603.228   603.228   0.5% |
     p1:                                  2533.051  2533.051   1.9% ||
     p2:                                  1673.936  1673.936   1.3% ||
     sum:                                 1558.845  1558.845   1.2% |
    splines:                                 0.015     0.015   0.0% |
  vbar:                                     40.418    40.418   0.0% |
 Orthonormalize:                            88.978     0.007   0.0% |
  calc_s_matrix:                            12.750    12.750   0.0% |
  inverse-cholesky:                          3.881     3.881   0.0% |
  projections:                              43.435    43.435   0.0% |
  rotate_psi_s:                             28.905    28.905   0.0% |
Set symmetry:                                0.002     0.002   0.0% |
Other:                                     740.996   740.996   0.6% |
-------------------------------------------------------------------
Total:                                             132127.582 100.0%

Memory usage: 1.60 GiB
Date: Sat Mar 11 23:05:07 2023
