
  ___ ___ ___ _ _ _  
 |   |   |_  | | | | 
 | | | | | . | | | | 
 |__ |  _|___|_____|  22.8.0
 |___|_|             

User:   vazumah@r340.ib.bridges2.psc.edu
Date:   Wed Mar  8 21:58:49 2023
Arch:   x86_64
Pid:    77637
CWD:    /jet/home/vazumah/Calcs/N2_with_proton_donor/CH3CH2OH_x/bridge/8.085_1.617/N2_y
Python: 3.11.0
gpaw:   /jet/home/vazumah/.conda/envs/GPAW_mpich/lib/python3.11/site-packages/gpaw
_gpaw:  /jet/home/vazumah/.conda/envs/GPAW_mpich/lib/python3.11/site-packages/
        _gpaw.cpython-311-x86_64-linux-gnu.so
ase:    /jet/home/vazumah/.conda/envs/GPAW_mpich/lib/python3.11/site-packages/ase (version 3.22.1)
numpy:  /jet/home/vazumah/.conda/envs/GPAW_mpich/lib/python3.11/site-packages/numpy (version 1.24.2)
scipy:  /jet/home/vazumah/.conda/envs/GPAW_mpich/lib/python3.11/site-packages/scipy (version 1.10.1)
libxc:  5.2.3
units:  Angstrom and eV
cores: 128
OpenMP: True
OMP_NUM_THREADS: 1

Input parameters:
  h: 0.16
  kpts: {size: [4, 4, 1]}
  occupations: {name: fermi-dirac,
                width: 0.05}
  poissonsolver: {dipolelayer: xy}
  xc: BEEF-vdW

System changes: positions, numbers, cell, pbc, initial_charges, initial_magmoms 

Initialize ...

species:
  Li:
    name: Lithium
    id: 830b4218f175192f93f959cfc0aad614
    Z: 3.0
    valence: 1
    core: 2
    charge: 0.0
    file: /jet/home/vazumah/datasets/gpaw-setups-0.9.20000/Li.PBE.gz
    compensation charges: {type: gauss,
                           rc: 0.33,
                           lmax: 2}
    cutoffs: {filter: 1.91,
              core: 2.55}
    valence states:
      #              energy  rcut
      - 2s(1.00)    -2.874   1.058
      - 2p(0.00)    -1.090   1.058
      -  s          24.337   1.058
  
    # Using partial waves for Li as LCAO basis

  O:
    name: Oxygen
    id: 32ecd46bf208036f09c70b0ec9a88b78
    Z: 8.0
    valence: 6
    core: 2
    charge: 0.0
    file: /jet/home/vazumah/datasets/gpaw-setups-0.9.20000/O.PBE.gz
    compensation charges: {type: gauss,
                           rc: 0.21,
                           lmax: 2}
    cutoffs: {filter: 1.17,
              core: 0.83}
    valence states:
      #              energy  rcut
      - 2s(2.00)   -23.961   0.688
      - 2p(4.00)    -9.029   0.598
      -  s           3.251   0.688
      -  p          18.182   0.598
      -  d           0.000   0.619
  
    # Using partial waves for O as LCAO basis

  C:
    name: Carbon
    id: 4aa54d4b901d75f77cc0ea3eec22967b
    Z: 6.0
    valence: 4
    core: 2
    charge: 0.0
    file: /jet/home/vazumah/datasets/gpaw-setups-0.9.20000/C.PBE.gz
    compensation charges: {type: gauss,
                           rc: 0.20,
                           lmax: 2}
    cutoffs: {filter: 1.14,
              core: 1.14}
    valence states:
      #              energy  rcut
      - 2s(2.00)   -13.751   0.635
      - 2p(2.00)    -5.284   0.635
      -  s          13.461   0.635
      -  p          21.927   0.635
      -  d           0.000   0.635
  
    # Using partial waves for C as LCAO basis

  H:
    name: Hydrogen
    id: d65de229564ff8ea4db303e23b6d1ecf
    Z: 1.0
    valence: 1
    core: 0
    charge: 0.0
    file: /jet/home/vazumah/datasets/gpaw-setups-0.9.20000/H.PBE.gz
    compensation charges: {type: gauss,
                           rc: 0.15,
                           lmax: 2}
    cutoffs: {filter: 0.85,
              core: 0.53}
    valence states:
      #              energy  rcut
      - 1s(1.00)    -6.494   0.476
      -  s          20.717   0.476
      -  p           0.000   0.476
  
    # Using partial waves for H as LCAO basis

  N:
    name: Nitrogen
    id: f7500608b86eaa90eef8b1d9a670dc53
    Z: 7.0
    valence: 5
    core: 2
    charge: 0.0
    file: /jet/home/vazumah/datasets/gpaw-setups-0.9.20000/N.PBE.gz
    compensation charges: {type: gauss,
                           rc: 0.18,
                           lmax: 2}
    cutoffs: {filter: 1.11,
              core: 0.96}
    valence states:
      #              energy  rcut
      - 2s(2.00)   -18.583   0.603
      - 2p(3.00)    -7.089   0.529
      -  s           8.629   0.603
      -  p          20.123   0.529
      -  d           0.000   0.577
  
    # Using partial waves for N as LCAO basis

Reference energy: -14434.854043  # eV

Spin-paired calculation

Convergence criteria:
 Maximum [total energy] change in last 3 cyles: 0.0005 eV / electron
 Maximum integral of absolute [dens]ity change: 0.0001 electrons / valence electron
 Maximum integral of absolute [eigenst]ate change: 4e-08 eV^2 / valence electron
 Maximum number of scf [iter]ations: 333
 (Square brackets indicate name in SCF output, whereas a 'c' in
 the SCF output indicates the quantity has converged.)

Symmetries present (total): 1

  ( 1  0  0)
  ( 0  1  0)
  ( 0  0  1)

16 k-points: 4 x 4 x 1 Monkhorst-Pack grid
8 k-points in the irreducible part of the Brillouin zone
       k-points in crystal coordinates                weights
   0:     0.12500000   -0.37500000    0.00000000          2/16
   1:     0.12500000   -0.12500000    0.00000000          2/16
   2:     0.12500000    0.12500000    0.00000000          2/16
   3:     0.12500000    0.37500000    0.00000000          2/16
   4:     0.37500000   -0.37500000    0.00000000          2/16
   5:     0.37500000   -0.12500000    0.00000000          2/16
   6:     0.37500000    0.12500000    0.00000000          2/16
   7:     0.37500000    0.37500000    0.00000000          2/16

Wave functions: Uniform real-space grid
  Kinetic energy operator: 6*3+1=19 point O(h^6) finite-difference Laplacian
  ScaLapack parameters: grid=1x1, blocksize=None
  Wavefunction extrapolation:
    Improved wavefunction reuse through dual PAW basis 

Occupation numbers: Fermi-Dirac:
  width: 0.0500  # eV
 

Eigensolver
   Davidson(niter=2) 

Densities:
  Coarse grid: 60*60*164 grid
  Fine grid: 120*120*328 grid
  Total Charge: 0.000000 

Density mixing:
  Method: separate
  Backend: pulay
  Linear mixing parameter: 0.05
  old densities: 5
  Damping of long wavelength oscillations: 50 

Hamiltonian:
  XC and Coulomb potentials evaluated on a 120*120*328 grid
  Using the BEEF-vdW Exchange-Correlation functional
  Interpolation: tri-quintic (5. degree polynomial)
  Poisson solver: FastPoissonSolver using
    Stencil: 6*3+1=19 point O(h^6) finite-difference Laplacian
    FFT axes: [0, 1]
    FST axes: [2]

Dipole correction along z-axis 

XC parameters: BEEF-vdW with 2 nearest neighbor stencil

Memory estimate:
  Process memory now: 127.23 MiB
  Calculator: 80.22 MiB
    Density: 22.47 MiB
      Arrays: 7.22 MiB
      Localized functions: 12.50 MiB
      Mixer: 2.75 MiB
    Hamiltonian: 5.71 MiB
      Arrays: 4.72 MiB
      XC: 0.00 MiB
      Poisson: 0.00 MiB
      vbar: 0.99 MiB
    Wavefunctions: 52.04 MiB
      Arrays psit_nG: 24.17 MiB
      Eigensolver: 27.21 MiB
      Projections: 0.01 MiB
      Projectors: 0.65 MiB

Total number of cores used: 128
Parallelization over k-points: 8
Domain decomposition: 2 x 2 x 4

Number of atoms: 47
Number of atomic orbitals: 170
Number of bands in calculation: 44
Number of valence electrons: 66
Bands to converge: occupied

... initialized

Initializing position-dependent things.

Density initialized from atomic densities
Creating initial wave functions:
  44 bands from LCAO basis set

       .-----------------------.  
      /|                       |  
     / |                       |  
    /  |                       |  
   /   |                       |  
  /    |                       |  
 *     |                       |  
 |     |                       |  
 |     |                       |  
 |     |                       |  
 |     |                       |  
 |     |                       |  
 |     |                       |  
 |     |            H          |  
 |     |      HH    C H        |  
 |   Li|     Li C   HLO        |  
 |     |       H      NN       |  
 | Li  |  LLi     LLi     Li   |  
 |     |                       |  
 Li    |LLi     LLi     Li     |  
 |   Li|     Li      Li        |  
 |    Li  Li  Li  Li  Li  Li   |  
 | Li  |   Li      Li          |  
 |     |Li      Li      Li     |  
 Li    | Li      Li            |  
 |    Li      Li      Li       |  
 |     |                       |  
 |     |                       |  
 |     |                       |  
 |     |                       |  
 |     |                       |  
 |     |                       |  
 |     .-----------------------.  
 |    /                       /   
 |   /                       /    
 |  /                       /     
 | /                       /      
 |/                       /       
 *-----------------------*        

Positions:
   0 Li     1.617037    1.617037   10.000000    ( 0.0000,  0.0000,  0.0000)
   1 Li     4.851111    1.617037   10.000000    ( 0.0000,  0.0000,  0.0000)
   2 Li     8.085185    1.617037   10.000000    ( 0.0000,  0.0000,  0.0000)
   3 Li     1.617037    4.851111   10.000000    ( 0.0000,  0.0000,  0.0000)
   4 Li     4.851111    4.851111   10.000000    ( 0.0000,  0.0000,  0.0000)
   5 Li     8.085185    4.851111   10.000000    ( 0.0000,  0.0000,  0.0000)
   6 Li     1.617037    8.085185   10.000000    ( 0.0000,  0.0000,  0.0000)
   7 Li     4.851111    8.085185   10.000000    ( 0.0000,  0.0000,  0.0000)
   8 Li     8.085185    8.085185   10.000000    ( 0.0000,  0.0000,  0.0000)
   9 Li     0.000000    0.000000   11.617037    ( 0.0000,  0.0000,  0.0000)
  10 Li     3.234074    0.000000   11.617037    ( 0.0000,  0.0000,  0.0000)
  11 Li     6.468148    0.000000   11.617037    ( 0.0000,  0.0000,  0.0000)
  12 Li     0.000000    3.234074   11.617037    ( 0.0000,  0.0000,  0.0000)
  13 Li     3.234074    3.234074   11.617037    ( 0.0000,  0.0000,  0.0000)
  14 Li     6.468148    3.234074   11.617037    ( 0.0000,  0.0000,  0.0000)
  15 Li     0.000000    6.468148   11.617037    ( 0.0000,  0.0000,  0.0000)
  16 Li     3.234074    6.468148   11.617037    ( 0.0000,  0.0000,  0.0000)
  17 Li     6.468148    6.468148   11.617037    ( 0.0000,  0.0000,  0.0000)
  18 Li     1.617038    1.617038   13.469728    ( 0.0000,  0.0000,  0.0000)
  19 Li     4.851111    1.617038   13.469729    ( 0.0000,  0.0000,  0.0000)
  20 Li     8.085184    1.617038   13.469728    ( 0.0000,  0.0000,  0.0000)
  21 Li     1.617038    4.851111   13.469729    ( 0.0000,  0.0000,  0.0000)
  22 Li     4.851111    4.851111   13.469730    ( 0.0000,  0.0000,  0.0000)
  23 Li     8.085184    4.851111   13.469729    ( 0.0000,  0.0000,  0.0000)
  24 Li     1.617038    8.085184   13.469728    ( 0.0000,  0.0000,  0.0000)
  25 Li     4.851111    8.085184   13.469729    ( 0.0000,  0.0000,  0.0000)
  26 Li     8.085184    8.085184   13.469728    ( 0.0000,  0.0000,  0.0000)
  27 Li    -0.000000   -0.000000   15.445939    ( 0.0000,  0.0000,  0.0000)
  28 Li     3.234074    0.000000   15.445939    ( 0.0000,  0.0000,  0.0000)
  29 Li     6.468148    0.000000   15.445939    ( 0.0000,  0.0000,  0.0000)
  30 Li     0.000000    3.234074   15.445939    ( 0.0000,  0.0000,  0.0000)
  31 Li     3.234076    3.234076   15.445938    ( 0.0000,  0.0000,  0.0000)
  32 Li     6.468146    3.234076   15.445938    ( 0.0000,  0.0000,  0.0000)
  33 Li     0.000000    6.468148   15.445939    ( 0.0000,  0.0000,  0.0000)
  34 Li     3.234076    6.468146   15.445938    ( 0.0000,  0.0000,  0.0000)
  35 Li     6.468146    6.468146   15.445938    ( 0.0000,  0.0000,  0.0000)
  36 O      8.085185    1.617037   18.445939    ( 0.0000,  0.0000,  0.0000)
  37 C      6.902778    2.433794   18.450238    ( 0.0000,  0.0000,  0.0000)
  38 C      5.618563    1.614176   18.435704    ( 0.0000,  0.0000,  0.0000)
  39 H      6.911401    3.117330   19.310398    ( 0.0000,  0.0000,  0.0000)
  40 H      6.978166    3.043520   17.547442    ( 0.0000,  0.0000,  0.0000)
  41 H      4.741636    2.268122   18.420269    ( 0.0000,  0.0000,  0.0000)
  42 H      5.583852    0.965153   17.558886    ( 0.0000,  0.0000,  0.0000)
  43 H      5.548375    0.985688   19.328265    ( 0.0000,  0.0000,  0.0000)
  44 H      8.046018    1.034060   19.214164    ( 0.0000,  0.0000,  0.0000)
  45 N      8.085000    1.617000   16.945939    ( 0.0000,  0.0000,  0.0000)
  46 N      8.085000    2.713622   16.945939    ( 0.0000,  0.0000,  0.0000)

Unit cell:
           periodic     x           y           z      points  spacing
  1. axis:    yes    9.702222    0.000000    0.000000    60     0.1617
  2. axis:    yes    0.000000    9.702222    0.000000    60     0.1617
  3. axis:    no     0.000000    0.000000   26.351111   164     0.1607

  Lengths:   9.702222   9.702222  26.351111
  Angles:   90.000000  90.000000  90.000000

Effective grid spacing dv^(1/3) = 0.1614

     iter     time        total  log10-change:
                         energy  eigst   dens
iter:   1 21:59:04  -518.369862
iter:   2 21:59:12  -130.364529  +2.50  -0.02
iter:   3 21:59:19  -139.125797  +3.20  -0.23
iter:   4 21:59:32  -251.608349  +3.07  -0.32
Writing to output.gpw (mode='')

iter:   5 21:59:40  -268.751264  +2.60  -0.38
iter:   6 21:59:48  -292.233315  +2.27  -0.65
iter:   7 21:59:56  -299.450743  +1.88  -0.70
iter:   8 22:00:05  -303.933104  +1.66  -0.70
iter:   9 22:00:15  -326.695820  +1.74  -0.77
Writing to output.gpw (mode='')

iter:  10 22:00:25  -327.778829  +1.40  -0.59
iter:  11 22:00:32  -325.637038  +1.52  -0.60
iter:  12 22:00:39  -313.527547  +0.93  -0.66
iter:  13 22:00:46  -308.749769  +0.79  -0.75
iter:  14 22:00:54  -311.623798  +0.97  -0.78
Writing to output.gpw (mode='')

iter:  15 22:01:01  -305.438861  +0.88  -0.68
iter:  16 22:01:08  -303.097669  +0.31  -0.78
iter:  17 22:01:15  -301.381324  +0.82  -0.86
iter:  18 22:01:22  -302.079638  +0.50  -1.06
iter:  19 22:01:29  -301.842987  +0.57  -1.00
Writing to output.gpw (mode='')

iter:  20 22:01:37  -300.836598  -0.12  -0.99
iter:  21 22:01:44  -300.865016  -0.30  -1.32
iter:  22 22:01:51  -300.490151  -0.39  -1.33
iter:  23 22:01:58  -300.581088  -0.11  -1.45
iter:  24 22:02:06  -300.469719  -0.56  -1.40
Writing to output.gpw (mode='')

iter:  25 22:02:13  -300.442473  -1.14  -1.55
iter:  26 22:02:20  -300.528304  -0.60  -1.60
iter:  27 22:02:27  -300.452604  -1.17  -1.63
iter:  28 22:02:34  -300.431854  -1.26  -1.81
iter:  29 22:02:41  -300.425965c -1.65  -1.93
Writing to output.gpw (mode='')

iter:  30 22:02:49  -300.409497c -1.41  -1.95
iter:  31 22:02:56  -300.417565c -1.60  -2.11
iter:  32 22:03:03  -300.412923c -1.79  -2.10
iter:  33 22:03:10  -300.411614c -1.72  -2.19
iter:  34 22:03:17  -300.410349c -2.07  -2.24
Writing to output.gpw (mode='')

iter:  35 22:03:24  -300.414875c -2.32  -2.31
iter:  36 22:03:32  -300.413782c -2.38  -2.59
iter:  37 22:03:39  -300.413324c -2.54  -2.81
iter:  38 22:03:46  -300.413739c -2.70  -2.83
iter:  39 22:03:53  -300.413777c -2.81  -3.05
Writing to output.gpw (mode='')

iter:  40 22:04:00  -300.414317c -2.78  -3.11
iter:  41 22:04:07  -300.414584c -2.90  -3.21
iter:  42 22:04:15  -300.414887c -2.93  -3.26
iter:  43 22:04:22  -300.414803c -3.16  -3.35
iter:  44 22:04:35  -300.415005c -3.40  -3.42
Writing to output.gpw (mode='')

iter:  45 22:04:42  -300.415105c -3.17  -3.52
iter:  46 22:04:49  -300.415170c -3.35  -3.58
iter:  47 22:04:56  -300.415258c -3.56  -3.67
iter:  48 22:05:03  -300.415311c -3.51  -3.72
iter:  49 22:05:11  -300.415368c -3.55  -3.78
Writing to output.gpw (mode='')

iter:  50 22:05:18  -300.415397c -3.69  -3.80
iter:  51 22:05:25  -300.415453c -4.03  -3.85
iter:  52 22:05:32  -300.415477c -3.90  -4.00
iter:  53 22:05:39  -300.415492c -3.85  -4.11c
iter:  54 22:05:46  -300.415527c -4.12  -4.13c
Writing to output.gpw (mode='')

iter:  55 22:05:53  -300.415536c -4.10  -4.21c
iter:  56 22:06:01  -300.415544c -4.16  -4.23c
iter:  57 22:06:08  -300.415568c -4.28  -4.23c
iter:  58 22:06:15  -300.415562c -4.39  -4.31c
iter:  59 22:06:22  -300.415580c -4.65  -4.37c
Writing to output.gpw (mode='')

iter:  60 22:06:29  -300.415586c -4.68  -4.71c
iter:  61 22:06:36  -300.415594c -4.52  -4.76c
iter:  62 22:06:43  -300.415600c -4.64  -4.88c
iter:  63 22:06:50  -300.415601c -4.67  -4.90c
iter:  64 22:06:58  -300.415604c -4.79  -4.86c
Writing to output.gpw (mode='')

iter:  65 22:07:05  -300.415604c -4.68  -4.83c
iter:  66 22:07:12  -300.415608c -4.89  -4.66c
iter:  67 22:07:19  -300.415611c -4.92  -4.71c
iter:  68 22:07:26  -300.415613c -4.99  -4.72c
iter:  69 22:07:33  -300.415615c -5.02  -4.72c
Writing to output.gpw (mode='')

iter:  70 22:07:40  -300.415620c -4.99  -4.78c
iter:  71 22:07:48  -300.415623c -5.11  -4.90c
iter:  72 22:07:55  -300.415623c -5.31  -4.88c
iter:  73 22:08:02  -300.415627c -5.45  -4.95c
iter:  74 22:08:09  -300.415624c -5.46  -5.18c
Writing to output.gpw (mode='')

iter:  75 22:08:16  -300.415623c -5.41  -5.18c
iter:  76 22:08:23  -300.415627c -5.55  -5.15c
iter:  77 22:08:30  -300.415626c -5.72  -5.50c
iter:  78 22:08:38  -300.415626c -5.64  -5.56c
iter:  79 22:08:45  -300.415627c -5.74  -5.63c
Writing to output.gpw (mode='')

iter:  80 22:08:52  -300.415627c -5.72  -5.68c
iter:  81 22:08:59  -300.415628c -5.69  -5.74c
iter:  82 22:09:06  -300.415627c -5.80  -5.83c
iter:  83 22:09:13  -300.415628c -5.92  -5.78c
iter:  84 22:09:20  -300.415628c -5.91  -5.75c
Writing to output.gpw (mode='')

iter:  85 22:09:34  -300.415628c -5.97  -5.56c
iter:  86 22:09:42  -300.415628c -6.05  -5.52c
iter:  87 22:09:49  -300.415628c -6.11  -5.48c
iter:  88 22:09:56  -300.415628c -6.15  -5.40c
iter:  89 22:10:04  -300.415627c -6.11  -5.40c
Writing to output.gpw (mode='')

iter:  90 22:10:12  -300.415628c -6.11  -5.25c
iter:  91 22:10:19  -300.415628c -6.24  -5.29c
iter:  92 22:10:26  -300.415628c -6.23  -5.39c
iter:  93 22:10:33  -300.415629c -6.39  -5.40c
iter:  94 22:10:40  -300.415630c -6.44  -5.40c
Writing to output.gpw (mode='')

iter:  95 22:10:47  -300.415629c -6.53  -5.74c
iter:  96 22:10:54  -300.415629c -6.54  -5.63c
iter:  97 22:11:01  -300.415629c -6.47  -5.85c
iter:  98 22:11:09  -300.415629c -6.55  -6.01c
iter:  99 22:11:16  -300.415629c -6.69  -6.14c
Writing to output.gpw (mode='')

iter: 100 22:11:23  -300.415629c -6.69  -6.17c
iter: 101 22:11:30  -300.415630c -6.76  -6.29c
iter: 102 22:11:37  -300.415630c -6.80  -6.29c
iter: 103 22:11:44  -300.415630c -6.78  -6.38c
iter: 104 22:11:51  -300.415630c -6.90  -6.56c
Writing to output.gpw (mode='')

iter: 105 22:11:59  -300.415630c -6.96  -6.54c
iter: 106 22:12:06  -300.415629c -6.92  -6.41c
iter: 107 22:12:13  -300.415629c -6.94  -6.28c
iter: 108 22:12:20  -300.415629c -6.92  -6.16c
iter: 109 22:12:27  -300.415629c -7.09  -6.08c
Writing to output.gpw (mode='')

iter: 110 22:12:34  -300.415629c -7.08  -6.08c
iter: 111 22:12:42  -300.415629c -7.14  -6.02c
iter: 112 22:12:49  -300.415629c -7.23  -6.00c
iter: 113 22:12:56  -300.415629c -7.24  -5.90c
iter: 114 22:13:03  -300.415629c -7.25  -5.91c
Writing to output.gpw (mode='')

iter: 115 22:13:10  -300.415629c -7.29  -5.87c
iter: 116 22:13:17  -300.415629c -7.31  -6.04c
iter: 117 22:13:24  -300.415630c -7.33  -5.89c
iter: 118 22:13:31  -300.415629c -7.43c -6.17c

Converged after 118 iterations.

Dipole moment: (-1.923245, -4.427664, 0.518419) |e|*Ang

Energy contributions relative to reference atoms: (reference = -14434.854043)

Kinetic:       +192.078072
Potential:     -171.137849
External:        +0.000000
XC:            -322.009328
Entropy (-ST):   -0.166431
Local:           +0.736691
--------------------------
Free energy:   -300.498845
Extrapolated:  -300.415629

Dipole-layer corrected work functions: 3.375102, 2.378522 eV

Showing only first 2 kpts
 Kpt  Band  Eigenvalues  Occupancy
  0    31     -3.12560    1.98629
  0    32     -3.03153    1.91333
  0    33     -2.76356    0.18811
  0    34     -2.65130    0.02175

  1    31     -2.92127    1.41740
  1    32     -2.87335    0.96542
  1    33     -2.82895    0.55490
  1    34     -2.76794    0.20360


Fermi level: -2.87681

No gap
Writing to output.gpw (mode='')


Forces in eV/Ang:
  0 Li    0.01977    0.00384   -0.27363
  1 Li   -0.02233    0.00368   -0.27010
  2 Li    0.00206   -0.00644   -0.28226
  3 Li    0.01071   -0.00549   -0.27760
  4 Li   -0.00654   -0.00109   -0.27547
  5 Li   -0.00231    0.02043   -0.27584
  6 Li   -0.00066    0.00177   -0.27335
  7 Li    0.00154   -0.00342   -0.27316
  8 Li   -0.00271   -0.01360   -0.26659
  9 Li   -0.00197   -0.00644    0.29662
 10 Li    0.00123    0.01632    0.23899
 11 Li    0.00351   -0.00832    0.30001
 12 Li   -0.00825   -0.00417    0.32544
 13 Li   -0.00133   -0.00889    0.22754
 14 Li    0.00775    0.00179    0.31409
 15 Li   -0.00380    0.00897    0.24543
 16 Li    0.00049   -0.00586    0.28570
 17 Li    0.00378    0.00650    0.23981
 18 Li   -0.00218    0.00642    0.04204
 19 Li    0.01703    0.00875    0.04718
 20 Li   -0.01195   -0.02317   -0.24628
 21 Li   -0.03317   -0.02619    0.05207
 22 Li    0.03425   -0.03314    0.07827
 23 Li   -0.00095    0.04769   -0.07138
 24 Li   -0.00881    0.01988    0.04934
 25 Li    0.00716    0.02269    0.04664
 26 Li    0.00172   -0.01277    0.04529
 27 Li   -0.01816   -0.03182    0.03277
 28 Li   -0.03414    0.00023   -0.06378
 29 Li    0.04688   -0.11958   -0.09765
 30 Li   -0.04764    0.08120    0.07211
 31 Li   -0.01672    0.01617   -0.06975
 32 Li    0.07568    0.08920   -0.36431
 33 Li    0.01752    0.04678   -0.03195
 34 Li    0.01367   -0.01522    0.00416
 35 Li   -0.03376    0.04183   -0.03470
 36 O    -0.29270   -1.36164   10.19665
 37 C    -4.77934    0.95852    5.54468
 38 C     0.20940   -0.22843    0.43283
 39 H     0.20342   -0.19007   -0.02152
 40 H    -2.07350    1.17211    1.97963
 41 H     0.19001    0.02924   -0.08080
 42 H    -0.15711   -0.03608   -0.00848
 43 H    -0.09092   -0.13630   -0.00069
 44 H    -0.16174   -1.32805    1.10434
 45 N     2.32645   -9.33033   -9.31990
 46 N     4.63420   10.29909   -9.30039

System changes: positions 

Initializing position-dependent things.

Density initialized from wave functions
       .-----------------------.  
      /|                       |  
     / |                       |  
    /  |                       |  
   /   |                       |  
  /    |                       |  
 *     |                       |  
 |     |                       |  
 |     |                       |  
 |     |                       |  
 |     |                       |  
 |     |                       |  
 |     |                       |  
 |     |            H  Li      Li 
 |     |      HH    C H        |  
 |   Li|     Li C   HLO        |  
 |     |       H      NN       |  
 |     |  LLi     LLi     LLi  |  
 |     |                       |  
 |     |LLi     Li      Li     |  
 |   Li|     Li      Li        |  
 |    Li  Li  Li  Li  Li  Li   |  
 | Li  |   Li      Li          |  
 |     |Li      Li      Li     |  
 Li    | Li      Li            |  
 |    Li      Li      Li       |  
 |     |                       |  
 |     |                       |  
 |     |                       |  
 |     |                       |  
 |     |                       |  
 |     |                       |  
 |     .-----------------------.  
 |    /                       /   
 |   /                       /    
 |  /                       /     
 | /                       /      
 |/                       /       
 *-----------------------*        

Positions:
   0 Li     1.617037    1.617037   10.000000    ( 0.0000,  0.0000,  0.0000)
   1 Li     4.851111    1.617037   10.000000    ( 0.0000,  0.0000,  0.0000)
   2 Li     8.085185    1.617037   10.000000    ( 0.0000,  0.0000,  0.0000)
   3 Li     1.617037    4.851111   10.000000    ( 0.0000,  0.0000,  0.0000)
   4 Li     4.851111    4.851111   10.000000    ( 0.0000,  0.0000,  0.0000)
   5 Li     8.085185    4.851111   10.000000    ( 0.0000,  0.0000,  0.0000)
   6 Li     1.617037    8.085185   10.000000    ( 0.0000,  0.0000,  0.0000)
   7 Li     4.851111    8.085185   10.000000    ( 0.0000,  0.0000,  0.0000)
   8 Li     8.085185    8.085185   10.000000    ( 0.0000,  0.0000,  0.0000)
   9 Li     0.000000    0.000000   11.617037    ( 0.0000,  0.0000,  0.0000)
  10 Li     3.234074    0.000000   11.617037    ( 0.0000,  0.0000,  0.0000)
  11 Li     6.468148    0.000000   11.617037    ( 0.0000,  0.0000,  0.0000)
  12 Li     0.000000    3.234074   11.617037    ( 0.0000,  0.0000,  0.0000)
  13 Li     3.234074    3.234074   11.617037    ( 0.0000,  0.0000,  0.0000)
  14 Li     6.468148    3.234074   11.617037    ( 0.0000,  0.0000,  0.0000)
  15 Li     0.000000    6.468148   11.617037    ( 0.0000,  0.0000,  0.0000)
  16 Li     3.234074    6.468148   11.617037    ( 0.0000,  0.0000,  0.0000)
  17 Li     6.468148    6.468148   11.617037    ( 0.0000,  0.0000,  0.0000)
  18 Li     1.617032    1.617056   13.469843    ( 0.0000,  0.0000,  0.0000)
  19 Li     4.851158    1.617062   13.469858    ( 0.0000,  0.0000,  0.0000)
  20 Li     8.085151    1.616975   13.469055    ( 0.0000,  0.0000,  0.0000)
  21 Li     1.616948    4.851039   13.469872    ( 0.0000,  0.0000,  0.0000)
  22 Li     4.851205    4.851020   13.469944    ( 0.0000,  0.0000,  0.0000)
  23 Li     8.085181    4.851241   13.469534    ( 0.0000,  0.0000,  0.0000)
  24 Li     1.617014    8.085238   13.469863    ( 0.0000,  0.0000,  0.0000)
  25 Li     4.851131    8.085246   13.469857    ( 0.0000,  0.0000,  0.0000)
  26 Li     8.085189    8.085149   13.469852    ( 0.0000,  0.0000,  0.0000)
  27 Li    -0.000050   -0.000087   15.446029    ( 0.0000,  0.0000,  0.0000)
  28 Li     3.233980    0.000001   15.445764    ( 0.0000,  0.0000,  0.0000)
  29 Li     6.468276   -0.000327   15.445672    ( 0.0000,  0.0000,  0.0000)
  30 Li    -0.000130    3.234296   15.446136    ( 0.0000,  0.0000,  0.0000)
  31 Li     3.234031    3.234121   15.445747    ( 0.0000,  0.0000,  0.0000)
  32 Li     6.468352    3.234320   15.444942    ( 0.0000,  0.0000,  0.0000)
  33 Li     0.000048    6.468276   15.445851    ( 0.0000,  0.0000,  0.0000)
  34 Li     3.234114    6.468104   15.445949    ( 0.0000,  0.0000,  0.0000)
  35 Li     6.468053    6.468260   15.445843    ( 0.0000,  0.0000,  0.0000)
  36 O      8.084385    1.613314   18.473818    ( 0.0000,  0.0000,  0.0000)
  37 C      6.889711    2.436415   18.465397    ( 0.0000,  0.0000,  0.0000)
  38 C      5.619136    1.613551   18.436887    ( 0.0000,  0.0000,  0.0000)
  39 H      6.911957    3.116810   19.310339    ( 0.0000,  0.0000,  0.0000)
  40 H      6.972497    3.046724   17.552854    ( 0.0000,  0.0000,  0.0000)
  41 H      4.742156    2.268202   18.420048    ( 0.0000,  0.0000,  0.0000)
  42 H      5.583422    0.965055   17.558863    ( 0.0000,  0.0000,  0.0000)
  43 H      5.548127    0.985316   19.328264    ( 0.0000,  0.0000,  0.0000)
  44 H      8.045576    1.030429   19.217183    ( 0.0000,  0.0000,  0.0000)
  45 N      8.091361    1.591490   16.920458    ( 0.0000,  0.0000,  0.0000)
  46 N      8.097670    2.741780   16.920512    ( 0.0000,  0.0000,  0.0000)

Unit cell:
           periodic     x           y           z      points  spacing
  1. axis:    yes    9.702222    0.000000    0.000000    60     0.1617
  2. axis:    yes    0.000000    9.702222    0.000000    60     0.1617
  3. axis:    no     0.000000    0.000000   26.351111   164     0.1607

  Lengths:   9.702222   9.702222  26.351111
  Angles:   90.000000  90.000000  90.000000

Effective grid spacing dv^(1/3) = 0.1614

     iter     time        total  log10-change:
                         energy  eigst   dens
iter:   1 22:13:40  -303.256809  -0.23
iter:   2 22:13:48  -302.136865  -0.38  -1.28
iter:   3 22:13:55  -302.073911  -0.67  -1.28
iter:   4 22:14:02  -302.058472  -0.47  -1.36
Writing to output.gpw (mode='')

iter:   5 22:14:09  -301.726022  -0.76  -1.58
iter:   6 22:14:16  -302.395813  -0.24  -1.87
iter:   7 22:14:24  -301.732416  -1.13  -1.34
iter:   8 22:14:36  -301.750993  -1.20  -1.95
iter:   9 22:14:43  -301.713021  -1.43  -1.93
Writing to output.gpw (mode='')

iter:  10 22:14:51  -301.699076  -1.95  -2.02
iter:  11 22:14:58  -301.696512c -2.20  -2.20
iter:  12 22:15:05  -301.694601c -2.19  -2.39
iter:  13 22:15:12  -301.695021c -2.85  -2.53
iter:  14 22:15:19  -301.693916c -3.13  -2.57
Writing to output.gpw (mode='')

iter:  15 22:15:26  -301.693347c -3.23  -2.61
iter:  16 22:15:34  -301.694270c -2.89  -2.68
iter:  17 22:15:41  -301.693133c -3.43  -2.80
iter:  18 22:15:48  -301.693543c -3.44  -2.98
iter:  19 22:15:55  -301.693599c -3.64  -3.12
Writing to output.gpw (mode='')

iter:  20 22:16:02  -301.693309c -3.78  -3.13
iter:  21 22:16:10  -301.693550c -3.85  -3.17
iter:  22 22:16:17  -301.693496c -4.09  -3.32
iter:  23 22:16:24  -301.693461c -4.12  -3.35
iter:  24 22:16:31  -301.693681c -4.29  -3.49
Writing to output.gpw (mode='')

iter:  25 22:16:38  -301.693505c -4.68  -3.39
iter:  26 22:16:45  -301.693525c -4.84  -3.66
iter:  27 22:16:53  -301.693470c -4.72  -3.69
iter:  28 22:17:00  -301.693516c -4.99  -3.78
iter:  29 22:17:07  -301.693533c -4.93  -3.88
Writing to output.gpw (mode='')

iter:  30 22:17:14  -301.693527c -5.46  -4.16c
iter:  31 22:17:21  -301.693522c -5.48  -4.20c
iter:  32 22:17:29  -301.693527c -5.38  -4.26c
iter:  33 22:17:36  -301.693522c -5.87  -4.43c
iter:  34 22:17:43  -301.693529c -5.92  -4.47c
Writing to output.gpw (mode='')

iter:  35 22:17:50  -301.693529c -6.12  -4.72c
iter:  36 22:17:57  -301.693528c -6.16  -4.71c
iter:  37 22:18:04  -301.693527c -6.08  -4.71c
iter:  38 22:18:12  -301.693526c -6.12  -4.78c
iter:  39 22:18:19  -301.693528c -6.18  -4.73c
Writing to output.gpw (mode='')

iter:  40 22:18:26  -301.693531c -6.43  -4.70c
iter:  41 22:18:33  -301.693533c -6.45  -4.76c
iter:  42 22:18:40  -301.693533c -6.64  -4.74c
iter:  43 22:18:47  -301.693533c -6.72  -4.73c
iter:  44 22:18:55  -301.693527c -6.62  -4.71c
Writing to output.gpw (mode='')

iter:  45 22:19:02  -301.693529c -6.79  -4.70c
iter:  46 22:19:09  -301.693530c -7.00  -4.82c
iter:  47 22:19:16  -301.693530c -6.90  -4.84c
iter:  48 22:19:23  -301.693528c -7.12  -4.88c
iter:  49 22:19:36  -301.693529c -7.05  -5.01c
Writing to output.gpw (mode='')

iter:  50 22:19:43  -301.693529c -7.35  -5.12c
iter:  51 22:19:50  -301.693528c -7.46c -5.32c

Converged after 51 iterations.

Dipole moment: (-2.137256, -4.256796, 0.473017) |e|*Ang

Energy contributions relative to reference atoms: (reference = -14434.854043)

Kinetic:       +181.402385
Potential:     -163.313212
External:        +0.000000
XC:            -320.436757
Entropy (-ST):   -0.175030
Local:           +0.741571
--------------------------
Free energy:   -301.781043
Extrapolated:  -301.693528

Dipole-layer corrected work functions: 3.380421, 2.471119 eV

Showing only first 2 kpts
 Kpt  Band  Eigenvalues  Occupancy
  0    31     -3.16927    1.98477
  0    32     -3.06891    1.89196
  0    33     -2.84408    0.32663
  0    34     -2.69180    0.01840

  1    31     -2.96959    1.41211
  1    32     -2.91824    0.92481
  1    33     -2.87345    0.51981
  1    34     -2.80753    0.17178


Fermi level: -2.92577

No gap
Writing to output.gpw (mode='')


Forces in eV/Ang:
  0 Li    0.01974    0.00430   -0.27521
  1 Li   -0.02189    0.00376   -0.27141
  2 Li    0.00174   -0.00592   -0.28383
  3 Li    0.01260   -0.00442   -0.27931
  4 Li   -0.00852   -0.00032   -0.27642
  5 Li   -0.00195    0.01852   -0.27683
  6 Li    0.00105    0.00081   -0.27373
  7 Li   -0.00017   -0.00394   -0.27400
  8 Li   -0.00273   -0.01250   -0.26651
  9 Li   -0.00332   -0.00471    0.30088
 10 Li    0.00211    0.01486    0.23783
 11 Li    0.00439   -0.00735    0.30356
 12 Li   -0.00834   -0.00463    0.32946
 13 Li   -0.00100   -0.00823    0.22627
 14 Li    0.00736    0.00172    0.31738
 15 Li   -0.00357    0.00820    0.24574
 16 Li    0.00003   -0.00554    0.28304
 17 Li    0.00399    0.00666    0.24031
 18 Li    0.00629    0.00575    0.02833
 19 Li    0.00993    0.00845    0.03633
 20 Li   -0.01271   -0.02068   -0.23224
 21 Li   -0.03294   -0.02797    0.04986
 22 Li    0.03395   -0.03409    0.07585
 23 Li   -0.00148    0.05424   -0.08548
 24 Li   -0.01134    0.02189    0.05150
 25 Li    0.00850    0.02290    0.04694
 26 Li    0.00218   -0.01733    0.03909
 27 Li   -0.05788    0.01159    0.09267
 28 Li   -0.03190   -0.00605   -0.06788
 29 Li    0.07479   -0.08141   -0.04249
 30 Li   -0.10932    0.03713    0.16510
 31 Li   -0.01593    0.02143   -0.07657
 32 Li    0.14483    0.02813   -0.25796
 33 Li    0.02467    0.04748   -0.03479
 34 Li    0.01349   -0.01369    0.00137
 35 Li   -0.04025    0.04211   -0.03956
 36 O    -0.53657   -0.06631    7.52428
 37 C    -3.70192    0.47426    4.51435
 38 C     0.02277   -0.21351    0.47408
 39 H     0.10274    0.05746    0.32336
 40 H    -1.60821    0.85269    1.82974
 41 H     0.15136   -0.00498   -0.06543
 42 H    -0.10672    0.00440    0.01674
 43 H    -0.13833   -0.17350    0.02968
 44 H    -0.26839   -1.74880    1.68775
 45 N     2.09032   -3.34339   -7.95265
 46 N     3.99569    4.09495   -8.10544

System changes: positions 

Initializing position-dependent things.

Density initialized from wave functions
       .-----------------------.  
      /|                       |  
     / |                       |  
    /  |                       |  
   /   |                       |  
  /    |                       |  
 *     |                       |  
 |     |                       |  
 |     |                       |  
 |     |                       |  
 |     |                       |  
 |     |                       |  
 |     |                       |  
 |     |       Li   H  Li      |  
 |     |      HH    C H        |  
 |   Li|     Li C   HLO        |  
 |     |       H       N       |  
 |     |  LLi     LLi N   LLi  |  
 |     |                       |  
 |     |Li      Li      LLi    |  
 |   Li|     Li      Li        |  
 |    Li  Li  Li  Li  Li  Li   |  
 | Li  |   Li      Li          |  
 |     |Li      Li      Li     |  
 Li    | Li      Li            |  
 |    Li      Li      Li       |  
 |     |                       |  
 |     |                       |  
 |     |                       |  
 |     |                       |  
 |     |                       |  
 |     |                       |  
 |     .-----------------------.  
 |    /                       /   
 |   /                       /    
 |  /                       /     
 | /                       /      
 |/                       /       
 *-----------------------*        

Positions:
   0 Li     1.617037    1.617037   10.000000    ( 0.0000,  0.0000,  0.0000)
   1 Li     4.851111    1.617037   10.000000    ( 0.0000,  0.0000,  0.0000)
   2 Li     8.085185    1.617037   10.000000    ( 0.0000,  0.0000,  0.0000)
   3 Li     1.617037    4.851111   10.000000    ( 0.0000,  0.0000,  0.0000)
   4 Li     4.851111    4.851111   10.000000    ( 0.0000,  0.0000,  0.0000)
   5 Li     8.085185    4.851111   10.000000    ( 0.0000,  0.0000,  0.0000)
   6 Li     1.617037    8.085185   10.000000    ( 0.0000,  0.0000,  0.0000)
   7 Li     4.851111    8.085185   10.000000    ( 0.0000,  0.0000,  0.0000)
   8 Li     8.085185    8.085185   10.000000    ( 0.0000,  0.0000,  0.0000)
   9 Li     0.000000    0.000000   11.617037    ( 0.0000,  0.0000,  0.0000)
  10 Li     3.234074    0.000000   11.617037    ( 0.0000,  0.0000,  0.0000)
  11 Li     6.468148    0.000000   11.617037    ( 0.0000,  0.0000,  0.0000)
  12 Li     0.000000    3.234074   11.617037    ( 0.0000,  0.0000,  0.0000)
  13 Li     3.234074    3.234074   11.617037    ( 0.0000,  0.0000,  0.0000)
  14 Li     6.468148    3.234074   11.617037    ( 0.0000,  0.0000,  0.0000)
  15 Li     0.000000    6.468148   11.617037    ( 0.0000,  0.0000,  0.0000)
  16 Li     3.234074    6.468148   11.617037    ( 0.0000,  0.0000,  0.0000)
  17 Li     6.468148    6.468148   11.617037    ( 0.0000,  0.0000,  0.0000)
  18 Li     1.617089    1.617082   13.469939    ( 0.0000,  0.0000,  0.0000)
  19 Li     4.851184    1.617103   13.470002    ( 0.0000,  0.0000,  0.0000)
  20 Li     8.085087    1.616881   13.467962    ( 0.0000,  0.0000,  0.0000)
  21 Li     1.616787    4.850897   13.470109    ( 0.0000,  0.0000,  0.0000)
  22 Li     4.851370    4.850851   13.470308    ( 0.0000,  0.0000,  0.0000)
  23 Li     8.085172    4.851527   13.469072    ( 0.0000,  0.0000,  0.0000)
  24 Li     1.616951    8.085352   13.470122    ( 0.0000,  0.0000,  0.0000)
  25 Li     4.851176    8.085358   13.470088    ( 0.0000,  0.0000,  0.0000)
  26 Li     8.085201    8.085050   13.470024    ( 0.0000,  0.0000,  0.0000)
  27 Li    -0.000457    0.000106   15.446670    ( 0.0000,  0.0000,  0.0000)
  28 Li     3.233831   -0.000049   15.445419    ( 0.0000,  0.0000,  0.0000)
  29 Li     6.468730   -0.000606   15.445637    ( 0.0000,  0.0000,  0.0000)
  30 Li    -0.000858    3.234339   15.447235    ( 0.0000,  0.0000,  0.0000)
  31 Li     3.233955    3.234242   15.445351    ( 0.0000,  0.0000,  0.0000)
  32 Li     6.469278    3.234267   15.444012    ( 0.0000,  0.0000,  0.0000)
  33 Li     0.000191    6.468511   15.445672    ( 0.0000,  0.0000,  0.0000)
  34 Li     3.234179    6.468042   15.445947    ( 0.0000,  0.0000,  0.0000)
  35 Li     6.467836    6.468467   15.445634    ( 0.0000,  0.0000,  0.0000)
  36 O      8.080995    1.617045   18.502282    ( 0.0000,  0.0000,  0.0000)
  37 C      6.874963    2.437220   18.484269    ( 0.0000,  0.0000,  0.0000)
  38 C      5.618663    1.612553   18.439337    ( 0.0000,  0.0000,  0.0000)
  39 H      6.912145    3.117866   19.313001    ( 0.0000,  0.0000,  0.0000)
  40 H      6.966082    3.049898   17.561342    ( 0.0000,  0.0000,  0.0000)
  41 H      4.742776    2.268071   18.419776    ( 0.0000,  0.0000,  0.0000)
  42 H      5.583058    0.965203   17.559024    ( 0.0000,  0.0000,  0.0000)
  43 H      5.547301    0.984350   19.328504    ( 0.0000,  0.0000,  0.0000)
  44 H      8.043928    1.020552   19.227271    ( 0.0000,  0.0000,  0.0000)
  45 N      8.100853    1.593867   16.885811    ( 0.0000,  0.0000,  0.0000)
  46 N      8.115230    2.742402   16.884577    ( 0.0000,  0.0000,  0.0000)

Unit cell:
           periodic     x           y           z      points  spacing
  1. axis:    yes    9.702222    0.000000    0.000000    60     0.1617
  2. axis:    yes    0.000000    9.702222    0.000000    60     0.1617
  3. axis:    no     0.000000    0.000000   26.351111   164     0.1607

  Lengths:   9.702222   9.702222  26.351111
  Angles:   90.000000  90.000000  90.000000

Effective grid spacing dv^(1/3) = 0.1614

     iter     time        total  log10-change:
                         energy  eigst   dens
iter:   1 22:19:59  -302.854346  -0.71
iter:   2 22:20:06  -302.792117  -0.75  -1.52
iter:   3 22:20:13  -302.715616  -1.57  -1.54
iter:   4 22:20:20  -302.717289  -1.80  -2.02
Writing to output.gpw (mode='')

iter:   5 22:20:28  -302.735512c -1.61  -2.04
iter:   6 22:20:35  -302.697068  -1.61  -1.96
iter:   7 22:20:42  -302.705630  -1.98  -2.03
iter:   8 22:20:49  -302.702721c -2.15  -2.16
iter:   9 22:20:56  -302.690233c -2.15  -2.21
Writing to output.gpw (mode='')

iter:  10 22:21:03  -302.689803c -2.71  -2.40
iter:  11 22:21:10  -302.690034c -2.69  -2.84
iter:  12 22:21:18  -302.690655c -3.42  -2.84
iter:  13 22:21:25  -302.690718c -3.52  -2.97
iter:  14 22:21:32  -302.690218c -3.69  -3.01
Writing to output.gpw (mode='')

iter:  15 22:21:39  -302.690032c -3.82  -3.18
iter:  16 22:21:46  -302.690562c -3.68  -3.14
iter:  17 22:21:53  -302.690396c -4.03  -3.28
iter:  18 22:22:01  -302.690393c -4.15  -3.46
iter:  19 22:22:08  -302.690390c -4.29  -3.57
Writing to output.gpw (mode='')

iter:  20 22:22:15  -302.690401c -4.60  -3.81
iter:  21 22:22:22  -302.690404c -4.48  -3.88
iter:  22 22:22:29  -302.690413c -5.00  -3.94
iter:  23 22:22:36  -302.690412c -4.98  -3.99
iter:  24 22:22:43  -302.690431c -5.07  -4.04c
Writing to output.gpw (mode='')

iter:  25 22:22:51  -302.690403c -5.11  -4.07c
iter:  26 22:22:58  -302.690418c -5.52  -4.12c
iter:  27 22:23:05  -302.690421c -5.31  -4.18c
iter:  28 22:23:12  -302.690414c -5.55  -4.27c
iter:  29 22:23:19  -302.690417c -5.73  -4.34c
Writing to output.gpw (mode='')

iter:  30 22:23:26  -302.690419c -5.65  -4.53c
iter:  31 22:23:33  -302.690419c -6.25  -4.63c
iter:  32 22:23:40  -302.690425c -6.12  -4.66c
iter:  33 22:23:48  -302.690421c -6.29  -4.74c
iter:  34 22:23:55  -302.690422c -6.20  -4.79c
Writing to output.gpw (mode='')

iter:  35 22:24:02  -302.690421c -6.29  -4.88c
iter:  36 22:24:09  -302.690422c -6.47  -4.98c
iter:  37 22:24:16  -302.690421c -6.50  -5.13c
iter:  38 22:24:23  -302.690422c -6.53  -5.16c
iter:  39 22:24:36  -302.690422c -6.70  -5.24c
Writing to output.gpw (mode='')

iter:  40 22:24:43  -302.690423c -6.89  -5.33c
iter:  41 22:24:51  -302.690423c -7.02  -5.38c
iter:  42 22:24:58  -302.690422c -7.25  -5.49c
iter:  43 22:25:05  -302.690423c -7.25  -5.57c
iter:  44 22:25:12  -302.690423c -7.24  -5.59c
Writing to output.gpw (mode='')

iter:  45 22:25:19  -302.690423c -7.38  -5.70c
iter:  46 22:25:26  -302.690423c -7.49c -5.75c

Converged after 46 iterations.

Dipole moment: (-2.159082, -4.196837, 0.457948) |e|*Ang

Energy contributions relative to reference atoms: (reference = -14434.854043)

Kinetic:       +178.510770
Potential:     -161.802596
External:        +0.000000
XC:            -320.055393
Entropy (-ST):   -0.175878
Local:           +0.744735
--------------------------
Free energy:   -302.778361
Extrapolated:  -302.690423

Dipole-layer corrected work functions: 3.382408, 2.502076 eV

Showing only first 2 kpts
 Kpt  Band  Eigenvalues  Occupancy
  0    31     -3.18500    1.98454
  0    32     -3.08292    1.88682
  0    33     -2.86415    0.34674
  0    34     -2.70119    0.01599

  1    31     -2.99022    1.44606
  1    32     -2.93581    0.93574
  1    33     -2.89404    0.55214
  1    34     -2.82324    0.16943


Fermi level: -2.94224

No gap
Writing to output.gpw (mode='')


Forces in eV/Ang:
  0 Li    0.02082    0.00490   -0.27560
  1 Li   -0.02226    0.00384   -0.27208
  2 Li    0.00152   -0.00606   -0.28418
  3 Li    0.01265   -0.00386   -0.28010
  4 Li   -0.00907   -0.00042   -0.27645
  5 Li   -0.00184    0.01888   -0.27725
  6 Li    0.00109    0.00063   -0.27405
  7 Li   -0.00043   -0.00358   -0.27471
  8 Li   -0.00280   -0.01319   -0.26684
  9 Li   -0.00352   -0.00464    0.30123
 10 Li    0.00161    0.01489    0.23773
 11 Li    0.00492   -0.00675    0.30416
 12 Li   -0.00945   -0.00483    0.33187
 13 Li   -0.00054   -0.00836    0.22600
 14 Li    0.00767    0.00127    0.31840
 15 Li   -0.00342    0.00858    0.24543
 16 Li    0.00086   -0.00641    0.28207
 17 Li    0.00391    0.00829    0.23957
 18 Li    0.00597    0.00589    0.02717
 19 Li    0.00951    0.00810    0.03567
 20 Li   -0.01279   -0.02192   -0.23121
 21 Li   -0.03299   -0.02930    0.05097
 22 Li    0.03541   -0.03449    0.07528
 23 Li   -0.00272    0.05545   -0.08570
 24 Li   -0.01151    0.02232    0.05171
 25 Li    0.00811    0.02210    0.04664
 26 Li    0.00250   -0.01669    0.03791
 27 Li   -0.05869    0.00770    0.09726
 28 Li   -0.03033   -0.00595   -0.06810
 29 Li    0.07022   -0.08564   -0.04327
 30 Li   -0.08518    0.04363    0.14856
 31 Li   -0.01610    0.02167   -0.07715
 32 Li    0.11544    0.01976   -0.25169
 33 Li    0.02489    0.04722   -0.03606
 34 Li    0.01212   -0.01334    0.00059
 35 Li   -0.03936    0.03754   -0.03960
 36 O    -0.70614    0.34689    6.15872
 37 C    -2.61527    0.29271    3.27529
 38 C    -0.17497   -0.21031    0.49353
 39 H    -0.02580    0.29105    0.65018
 40 H    -1.35323    0.53918    2.00828
 41 H     0.09121   -0.03368   -0.05489
 42 H    -0.06085    0.04477    0.04192
 43 H    -0.17484   -0.21443    0.07325
 44 H    -0.35370   -1.67089    1.77551
 45 N     1.97998   -2.66057   -7.12642
 46 N     3.43864    3.21243   -6.97959

System changes: positions 

Initializing position-dependent things.

Density initialized from wave functions
       .-----------------------.  
      /|                       |  
     / |                       |  
    /  |                       |  
   /   |                       |  
  /    |                       |  
 *     |                       |  
 |     |                       |  
 |     |                       |  
 |     |                       |  
 |     |                       |  
 |     |                       |  
 |     |                       |  
 |     |       Li   H  Li      |  
 |     |      HH   C  H        |  
 |   Li|     Li C   HLi        |  
 |     |       H       N       |  
 |     |  LLi     LLi N   LLi  |  
 |     |                       |  
 |     |Li      Li      LLi    |  
 |   Li|     Li      Li        |  
 |    Li  Li  Li  Li  Li  Li   |  
 | Li  |   Li      Li          |  
 |     |Li      Li      Li     |  
 Li    | Li      Li            |  
 |    Li      Li      Li       |  
 |     |                       |  
 |     |                       |  
 |     |                       |  
 |     |                       |  
 |     |                       |  
 |     |                       |  
 |     .-----------------------.  
 |    /                       /   
 |   /                       /    
 |  /                       /     
 | /                       /      
 |/                       /       
 *-----------------------*        

Positions:
   0 Li     1.617037    1.617037   10.000000    ( 0.0000,  0.0000,  0.0000)
   1 Li     4.851111    1.617037   10.000000    ( 0.0000,  0.0000,  0.0000)
   2 Li     8.085185    1.617037   10.000000    ( 0.0000,  0.0000,  0.0000)
   3 Li     1.617037    4.851111   10.000000    ( 0.0000,  0.0000,  0.0000)
   4 Li     4.851111    4.851111   10.000000    ( 0.0000,  0.0000,  0.0000)
   5 Li     8.085185    4.851111   10.000000    ( 0.0000,  0.0000,  0.0000)
   6 Li     1.617037    8.085185   10.000000    ( 0.0000,  0.0000,  0.0000)
   7 Li     4.851111    8.085185   10.000000    ( 0.0000,  0.0000,  0.0000)
   8 Li     8.085185    8.085185   10.000000    ( 0.0000,  0.0000,  0.0000)
   9 Li     0.000000    0.000000   11.617037    ( 0.0000,  0.0000,  0.0000)
  10 Li     3.234074    0.000000   11.617037    ( 0.0000,  0.0000,  0.0000)
  11 Li     6.468148    0.000000   11.617037    ( 0.0000,  0.0000,  0.0000)
  12 Li     0.000000    3.234074   11.617037    ( 0.0000,  0.0000,  0.0000)
  13 Li     3.234074    3.234074   11.617037    ( 0.0000,  0.0000,  0.0000)
  14 Li     6.468148    3.234074   11.617037    ( 0.0000,  0.0000,  0.0000)
  15 Li     0.000000    6.468148   11.617037    ( 0.0000,  0.0000,  0.0000)
  16 Li     3.234074    6.468148   11.617037    ( 0.0000,  0.0000,  0.0000)
  17 Li     6.468148    6.468148   11.617037    ( 0.0000,  0.0000,  0.0000)
  18 Li     1.617147    1.617120   13.470078    ( 0.0000,  0.0000,  0.0000)
  19 Li     4.851227    1.617153   13.470208    ( 0.0000,  0.0000,  0.0000)
  20 Li     8.084999    1.616733   13.466470    ( 0.0000,  0.0000,  0.0000)
  21 Li     1.616569    4.850689   13.470449    ( 0.0000,  0.0000,  0.0000)
  22 Li     4.851614    4.850617   13.470797    ( 0.0000,  0.0000,  0.0000)
  23 Li     8.085144    4.851919   13.468468    ( 0.0000,  0.0000,  0.0000)
  24 Li     1.616867    8.085507   13.470471    ( 0.0000,  0.0000,  0.0000)
  25 Li     4.851231    8.085500   13.470395    ( 0.0000,  0.0000,  0.0000)
  26 Li     8.085221    8.084933   13.470252    ( 0.0000,  0.0000,  0.0000)
  27 Li    -0.000947    0.000233   15.447490    ( 0.0000,  0.0000,  0.0000)
  28 Li     3.233646   -0.000102   15.444957    ( 0.0000,  0.0000,  0.0000)
  29 Li     6.469230   -0.001112   15.445476    ( 0.0000,  0.0000,  0.0000)
  30 Li    -0.001401    3.234569   15.448326    ( 0.0000,  0.0000,  0.0000)
  31 Li     3.233849    3.234400   15.444819    ( 0.0000,  0.0000,  0.0000)
  32 Li     6.470003    3.234194   15.442642    ( 0.0000,  0.0000,  0.0000)
  33 Li     0.000375    6.468824   15.445418    ( 0.0000,  0.0000,  0.0000)
  34 Li     3.234250    6.467959   15.445939    ( 0.0000,  0.0000,  0.0000)
  35 Li     6.467566    6.468684   15.445360    ( 0.0000,  0.0000,  0.0000)
  36 O      8.074546    1.625327   18.527174    ( 0.0000,  0.0000,  0.0000)
  37 C      6.867801    2.436734   18.494853    ( 0.0000,  0.0000,  0.0000)
  38 C      5.615674    1.611217   18.442843    ( 0.0000,  0.0000,  0.0000)
  39 H      6.910834    3.122020   19.320421    ( 0.0000,  0.0000,  0.0000)
  40 H      6.960006    3.050517   17.575546    ( 0.0000,  0.0000,  0.0000)
  41 H      4.742867    2.267565   18.419523    ( 0.0000,  0.0000,  0.0000)
  42 H      5.583095    0.965879   17.559538    ( 0.0000,  0.0000,  0.0000)
  43 H      5.545774    0.982553   19.329367    ( 0.0000,  0.0000,  0.0000)
  44 H      8.040732    1.009016   19.241048    ( 0.0000,  0.0000,  0.0000)
  45 N      8.112643    1.595302   16.847615    ( 0.0000,  0.0000,  0.0000)
  46 N      8.132603    2.742710   16.849039    ( 0.0000,  0.0000,  0.0000)

Unit cell:
           periodic     x           y           z      points  spacing
  1. axis:    yes    9.702222    0.000000    0.000000    60     0.1617
  2. axis:    yes    0.000000    9.702222    0.000000    60     0.1617
  3. axis:    no     0.000000    0.000000   26.351111   164     0.1607

  Lengths:   9.702222   9.702222  26.351111
  Angles:   90.000000  90.000000  90.000000

Effective grid spacing dv^(1/3) = 0.1614

     iter     time        total  log10-change:
                         energy  eigst   dens
iter:   1 22:25:35  -303.674876  -0.76
iter:   2 22:25:42  -303.616578  -0.87  -1.58
iter:   3 22:25:50  -303.562153  -1.68  -1.60
iter:   4 22:25:57  -303.565574  -1.90  -2.10
Writing to output.gpw (mode='')

iter:   5 22:26:04  -303.547876c -1.76  -2.08
iter:   6 22:26:14  -303.563989c -1.56  -2.31
iter:   7 22:26:21  -303.558451c -1.94  -1.86
iter:   8 22:26:28  -303.542001c -2.28  -2.14
iter:   9 22:26:35  -303.540441c -2.45  -2.57
Writing to output.gpw (mode='')

iter:  10 22:26:43  -303.542301c -2.26  -2.62
iter:  11 22:26:50  -303.540560c -2.82  -2.25
iter:  12 22:26:57  -303.540541c -3.34  -2.82
iter:  13 22:27:04  -303.540772c -3.03  -2.88
iter:  14 22:27:11  -303.540510c -3.77  -2.99
Writing to output.gpw (mode='')

iter:  15 22:27:19  -303.540579c -3.81  -3.07
iter:  16 22:27:26  -303.540404c -3.86  -3.22
iter:  17 22:27:33  -303.540421c -4.00  -3.39
iter:  18 22:27:40  -303.540436c -4.34  -3.38
iter:  19 22:27:48  -303.540378c -4.15  -3.44
Writing to output.gpw (mode='')

iter:  20 22:27:55  -303.540418c -4.62  -3.68
iter:  21 22:28:02  -303.540415c -4.78  -3.83
iter:  22 22:28:09  -303.540451c -4.79  -3.92
iter:  23 22:28:16  -303.540441c -4.93  -4.02c
iter:  24 22:28:24  -303.540444c -5.13  -4.26c
Writing to output.gpw (mode='')

iter:  25 22:28:31  -303.540446c -5.09  -4.29c
iter:  26 22:28:38  -303.540449c -5.52  -4.26c
iter:  27 22:28:45  -303.540448c -5.43  -4.28c
iter:  28 22:28:52  -303.540445c -5.53  -4.19c
iter:  29 22:29:00  -303.540447c -5.47  -4.31c
Writing to output.gpw (mode='')

iter:  30 22:29:07  -303.540444c -5.65  -4.50c
iter:  31 22:29:14  -303.540447c -5.51  -4.46c
iter:  32 22:29:21  -303.540445c -5.94  -4.46c
iter:  33 22:29:33  -303.540450c -5.80  -4.54c
iter:  34 22:29:41  -303.540444c -5.81  -4.51c
Writing to output.gpw (mode='')

iter:  35 22:29:49  -303.540455c -5.92  -4.40c
iter:  36 22:30:02  -303.540455c -6.37  -4.55c
iter:  37 22:30:13  -303.540455c -6.41  -4.57c
iter:  38 22:30:20  -303.540457c -6.27  -4.57c
iter:  39 22:30:27  -303.540458c -6.31  -4.58c
Writing to output.gpw (mode='')

iter:  40 22:30:34  -303.540456c -6.41  -4.71c
iter:  41 22:30:42  -303.540458c -6.56  -4.69c
iter:  42 22:30:49  -303.540451c -6.38  -4.78c
iter:  43 22:30:56  -303.540458c -6.55  -4.71c
iter:  44 22:31:03  -303.540455c -7.03  -5.04c
Writing to output.gpw (mode='')

iter:  45 22:31:10  -303.540457c -6.90  -5.13c
iter:  46 22:31:18  -303.540458c -6.76  -5.27c
iter:  47 22:31:25  -303.540458c -7.00  -5.32c
iter:  48 22:31:32  -303.540457c -7.13  -5.44c
iter:  49 22:31:39  -303.540457c -7.16  -5.48c
Writing to output.gpw (mode='')

iter:  50 22:31:47  -303.540457c -7.34  -5.46c
iter:  51 22:31:54  -303.540458c -7.22  -5.54c
iter:  52 22:32:01  -303.540457c -7.51c -5.61c

Converged after 52 iterations.

Dipole moment: (-2.177714, -4.139995, 0.440831) |e|*Ang

Energy contributions relative to reference atoms: (reference = -14434.854043)

Kinetic:       +175.636227
Potential:     -160.177117
External:        +0.000000
XC:            -319.658792
Entropy (-ST):   -0.176110
Local:           +0.747279
--------------------------
Free energy:   -303.628512
Extrapolated:  -303.540457

Dipole-layer corrected work functions: 3.384113, 2.536685 eV

Showing only first 2 kpts
 Kpt  Band  Eigenvalues  Occupancy
  0    31     -3.20184    1.98413
  0    32     -3.09887    1.88200
  0    33     -2.88385    0.35568
  0    34     -2.71347    0.01423

  1    31     -3.01436    1.49271
  1    32     -2.95502    0.94630
  1    33     -2.91498    0.57466
  1    34     -2.83867    0.16116


Fermi level: -2.96040

No gap
Writing to output.gpw (mode='')


Forces in eV/Ang:
  0 Li    0.02176    0.00555   -0.27600
  1 Li   -0.02254    0.00399   -0.27268
  2 Li    0.00132   -0.00605   -0.28439
  3 Li    0.01268   -0.00334   -0.28086
  4 Li   -0.00953   -0.00042   -0.27647
  5 Li   -0.00181    0.01906   -0.27767
  6 Li    0.00120    0.00058   -0.27430
  7 Li   -0.00076   -0.00326   -0.27538
  8 Li   -0.00293   -0.01389   -0.26714
  9 Li   -0.00384   -0.00451    0.30144
 10 Li    0.00125    0.01472    0.23798
 11 Li    0.00544   -0.00613    0.30463
 12 Li   -0.01043   -0.00492    0.33374
 13 Li   -0.00018   -0.00861    0.22592
 14 Li    0.00790    0.00105    0.31898
 15 Li   -0.00307    0.00889    0.24539
 16 Li    0.00156   -0.00727    0.28086
 17 Li    0.00380    0.00985    0.23905
 18 Li    0.00563    0.00572    0.02588
 19 Li    0.00917    0.00764    0.03470
 20 Li   -0.01296   -0.02256   -0.22760
 21 Li   -0.03251   -0.03030    0.05151
 22 Li    0.03617   -0.03464    0.07411
 23 Li   -0.00379    0.05581   -0.08479
 24 Li   -0.01176    0.02272    0.05197
 25 Li    0.00775    0.02081    0.04595
 26 Li    0.00287   -0.01610    0.03618
 27 Li   -0.06012    0.00468    0.10129
 28 Li   -0.02885   -0.00575   -0.06758
 29 Li    0.06685   -0.08821   -0.04294
 30 Li   -0.05220    0.05460    0.12460
 31 Li   -0.01633    0.02199   -0.07757
 32 Li    0.08868    0.01107   -0.24175
 33 Li    0.02493    0.04708   -0.03709
 34 Li    0.01093   -0.01293   -0.00024
 35 Li   -0.03843    0.03317   -0.03982
 36 O    -0.67837    0.26182    5.29419
 37 C    -2.02244    0.26106    2.83418
 38 C    -0.19077   -0.18916    0.42645
 39 H    -0.13532    0.28694    0.62829
 40 H    -1.15165    0.41228    1.90289
 41 H     0.00810   -0.02808   -0.04275
 42 H    -0.04607    0.06523    0.07286
 43 H    -0.19449   -0.23957    0.12141
 44 H    -0.40545   -1.27662    1.45512
 45 N     1.77102   -2.11849   -6.28447
 46 N     3.02598    2.57055   -6.10578

System changes: positions 

Initializing position-dependent things.

Density initialized from wave functions
       .-----------------------.  
      /|                       |  
     / |                       |  
    /  |                       |  
   /   |                       |  
  /    |                       |  
 *     |                       |  
 |     |                       |  
 |     |                       |  
 |     |                       |  
 |     |                       |  
 |     |                       |  
 |     |                       |  
 |     |       Li   H  Li      |  
 |     |      HH   C HO        |  
 |   Li|     Li C   HLi        |  
 |     |       H       N       |  
 |     |  LLi     LLi N   LLi  |  
 |     |                       |  
 |     |Li      Li      LLi    |  
 |   Li|     Li      Li        |  
 |    Li  Li  Li  Li  Li  Li   |  
 | Li  |   Li      Li          |  
 |     |Li      Li      Li     |  
 Li    | Li      Li            |  
 |    Li      Li      Li       |  
 |     |                       |  
 |     |                       |  
 |     |                       |  
 |     |                       |  
 |     |                       |  
 |     |                       |  
 |     .-----------------------.  
 |    /                       /   
 |   /                       /    
 |  /                       /     
 | /                       /      
 |/                       /       
 *-----------------------*        

Positions:
   0 Li     1.617037    1.617037   10.000000    ( 0.0000,  0.0000,  0.0000)
   1 Li     4.851111    1.617037   10.000000    ( 0.0000,  0.0000,  0.0000)
   2 Li     8.085185    1.617037   10.000000    ( 0.0000,  0.0000,  0.0000)
   3 Li     1.617037    4.851111   10.000000    ( 0.0000,  0.0000,  0.0000)
   4 Li     4.851111    4.851111   10.000000    ( 0.0000,  0.0000,  0.0000)
   5 Li     8.085185    4.851111   10.000000    ( 0.0000,  0.0000,  0.0000)
   6 Li     1.617037    8.085185   10.000000    ( 0.0000,  0.0000,  0.0000)
   7 Li     4.851111    8.085185   10.000000    ( 0.0000,  0.0000,  0.0000)
   8 Li     8.085185    8.085185   10.000000    ( 0.0000,  0.0000,  0.0000)
   9 Li     0.000000    0.000000   11.617037    ( 0.0000,  0.0000,  0.0000)
  10 Li     3.234074    0.000000   11.617037    ( 0.0000,  0.0000,  0.0000)
  11 Li     6.468148    0.000000   11.617037    ( 0.0000,  0.0000,  0.0000)
  12 Li     0.000000    3.234074   11.617037    ( 0.0000,  0.0000,  0.0000)
  13 Li     3.234074    3.234074   11.617037    ( 0.0000,  0.0000,  0.0000)
  14 Li     6.468148    3.234074   11.617037    ( 0.0000,  0.0000,  0.0000)
  15 Li     0.000000    6.468148   11.617037    ( 0.0000,  0.0000,  0.0000)
  16 Li     3.234074    6.468148   11.617037    ( 0.0000,  0.0000,  0.0000)
  17 Li     6.468148    6.468148   11.617037    ( 0.0000,  0.0000,  0.0000)
  18 Li     1.617206    1.617166   13.470248    ( 0.0000,  0.0000,  0.0000)
  19 Li     4.851284    1.617210   13.470462    ( 0.0000,  0.0000,  0.0000)
  20 Li     8.084889    1.616540   13.464650    ( 0.0000,  0.0000,  0.0000)
  21 Li     1.616304    4.850420   13.470881    ( 0.0000,  0.0000,  0.0000)
  22 Li     4.851927    4.850325   13.471393    ( 0.0000,  0.0000,  0.0000)
  23 Li     8.085096    4.852403   13.467745    ( 0.0000,  0.0000,  0.0000)
  24 Li     1.616762    8.085705   13.470908    ( 0.0000,  0.0000,  0.0000)
  25 Li     4.851292    8.085658   13.470769    ( 0.0000,  0.0000,  0.0000)
  26 Li     8.085250    8.084799   13.470519    ( 0.0000,  0.0000,  0.0000)
  27 Li    -0.001537    0.000312   15.448502    ( 0.0000,  0.0000,  0.0000)
  28 Li     3.233433   -0.000160   15.444393    ( 0.0000,  0.0000,  0.0000)
  29 Li     6.469785   -0.001810   15.445228    ( 0.0000,  0.0000,  0.0000)
  30 Li    -0.001571    3.235051   15.449267    ( 0.0000,  0.0000,  0.0000)
  31 Li     3.233713    3.234596   15.444159    ( 0.0000,  0.0000,  0.0000)
  32 Li     6.470498    3.234051   15.440964    ( 0.0000,  0.0000,  0.0000)
  33 Li     0.000596    6.469211   15.445091    ( 0.0000,  0.0000,  0.0000)
  34 Li     3.234323    6.467861   15.445921    ( 0.0000,  0.0000,  0.0000)
  35 Li     6.467248    6.468899   15.445020    ( 0.0000,  0.0000,  0.0000)
  36 O      8.067578    1.632080   18.550914    ( 0.0000,  0.0000,  0.0000)
  37 C      6.864264    2.436560   18.505274    ( 0.0000,  0.0000,  0.0000)
  38 C      5.612363    1.609852   18.446102    ( 0.0000,  0.0000,  0.0000)
  39 H      6.907938    3.126335   19.328215    ( 0.0000,  0.0000,  0.0000)
  40 H      6.954440    3.050414   17.591364    ( 0.0000,  0.0000,  0.0000)
  41 H      4.741896    2.267122   18.419352    ( 0.0000,  0.0000,  0.0000)
  42 H      5.583209    0.966896   17.560565    ( 0.0000,  0.0000,  0.0000)
  43 H      5.543705    0.980066   19.331042    ( 0.0000,  0.0000,  0.0000)
  44 H      8.036271    1.000886   19.252541    ( 0.0000,  0.0000,  0.0000)
  45 N      8.124644    1.597744   16.809536    ( 0.0000,  0.0000,  0.0000)
  46 N      8.149915    2.741607   16.814222    ( 0.0000,  0.0000,  0.0000)

Unit cell:
           periodic     x           y           z      points  spacing
  1. axis:    yes    9.702222    0.000000    0.000000    60     0.1617
  2. axis:    yes    0.000000    9.702222    0.000000    60     0.1617
  3. axis:    no     0.000000    0.000000   26.351111   164     0.1607

  Lengths:   9.702222   9.702222  26.351111
  Angles:   90.000000  90.000000  90.000000

Effective grid spacing dv^(1/3) = 0.1614

     iter     time        total  log10-change:
                         energy  eigst   dens
iter:   1 22:32:10  -304.440659  -0.79
iter:   2 22:32:17  -304.328265  -0.82  -1.53
iter:   3 22:32:24  -304.280640  -1.75  -1.60
iter:   4 22:32:31  -304.290383  -1.97  -2.01
Writing to output.gpw (mode='')

iter:   5 22:32:39  -304.307268c -1.30  -1.97
iter:   6 22:32:46  -304.307451c -1.93  -1.70
iter:   7 22:32:53  -304.268248  -2.29  -1.71
iter:   8 22:33:00  -304.270666  -2.50  -1.96
iter:   9 22:33:07  -304.254071c -2.09  -1.92
Writing to output.gpw (mode='')

iter:  10 22:33:15  -304.254190c -2.80  -2.44
iter:  11 22:33:22  -304.254112c -2.68  -2.51
iter:  12 22:33:29  -304.255326c -2.65  -2.70
iter:  13 22:33:36  -304.254210c -3.16  -2.72
iter:  14 22:33:43  -304.253789c -3.32  -2.92
Writing to output.gpw (mode='')

iter:  15 22:33:50  -304.253681c -3.85  -3.00
iter:  16 22:33:57  -304.253902c -3.42  -3.07
iter:  17 22:34:05  -304.253485c -3.95  -3.15
iter:  18 22:34:12  -304.253680c -3.87  -3.28
iter:  19 22:34:19  -304.253674c -4.40  -3.42
Writing to output.gpw (mode='')

iter:  20 22:34:32  -304.253688c -4.09  -3.50
iter:  21 22:34:40  -304.253717c -4.46  -3.49
iter:  22 22:34:47  -304.253700c -4.94  -3.73
iter:  23 22:34:54  -304.253706c -4.85  -3.87
iter:  24 22:35:02  -304.253694c -5.01  -3.99
Writing to output.gpw (mode='')

iter:  25 22:35:09  -304.253730c -5.10  -4.08c
iter:  26 22:35:16  -304.253716c -5.30  -4.12c
iter:  27 22:35:23  -304.253698c -5.40  -4.18c
iter:  28 22:35:30  -304.253711c -5.39  -4.35c
iter:  29 22:35:37  -304.253722c -5.71  -4.55c
Writing to output.gpw (mode='')

iter:  30 22:35:45  -304.253714c -5.72  -4.52c
iter:  31 22:35:52  -304.253716c -5.68  -4.62c
iter:  32 22:35:59  -304.253714c -5.88  -4.64c
iter:  33 22:36:06  -304.253722c -5.92  -4.68c
iter:  34 22:36:13  -304.253717c -6.12  -4.72c
Writing to output.gpw (mode='')

iter:  35 22:36:20  -304.253715c -6.13  -4.78c
iter:  36 22:36:28  -304.253717c -6.26  -4.87c
iter:  37 22:36:35  -304.253716c -6.20  -4.99c
iter:  38 22:36:42  -304.253718c -6.49  -5.14c
iter:  39 22:36:49  -304.253718c -6.48  -5.27c
Writing to output.gpw (mode='')

iter:  40 22:36:56  -304.253718c -6.52  -5.30c
iter:  41 22:37:03  -304.253718c -6.83  -5.37c
iter:  42 22:37:11  -304.253717c -6.71  -5.37c
iter:  43 22:37:18  -304.253717c -6.79  -5.28c
iter:  44 22:37:25  -304.253717c -6.68  -5.26c
Writing to output.gpw (mode='')

iter:  45 22:37:32  -304.253718c -6.88  -5.22c
iter:  46 22:37:39  -304.253718c -6.88  -5.29c
iter:  47 22:37:46  -304.253718c -7.06  -5.24c
iter:  48 22:37:54  -304.253719c -7.07  -5.26c
iter:  49 22:38:01  -304.253719c -7.22  -5.22c
Writing to output.gpw (mode='')

iter:  50 22:38:08  -304.253719c -7.32  -5.24c
iter:  51 22:38:15  -304.253719c -7.42c -5.21c

Converged after 51 iterations.

Dipole moment: (-2.189513, -4.087886, 0.425645) |e|*Ang

Energy contributions relative to reference atoms: (reference = -14434.854043)

Kinetic:       +173.580879
Potential:     -159.065330
External:        +0.000000
XC:            -319.430762
Entropy (-ST):   -0.175782
Local:           +0.749384
--------------------------
Free energy:   -304.341610
Extrapolated:  -304.253719

Dipole-layer corrected work functions: 3.385415, 2.567179 eV

Showing only first 2 kpts
 Kpt  Band  Eigenvalues  Occupancy
  0    31     -3.21644    1.98372
  0    32     -3.11307    1.87818
  0    33     -2.89949    0.35420
  0    34     -2.72599    0.01330

  1    31     -3.03722    1.54357
  1    32     -2.97164    0.95342
  1    33     -2.93258    0.58870
  1    34     -2.85204    0.15381


Fermi level: -2.97630

No gap
Writing to output.gpw (mode='')


Forces in eV/Ang:
  0 Li    0.02256    0.00617   -0.27643
  1 Li   -0.02286    0.00422   -0.27325
  2 Li    0.00121   -0.00592   -0.28451
  3 Li    0.01257   -0.00293   -0.28154
  4 Li   -0.00987   -0.00038   -0.27652
  5 Li   -0.00182    0.01917   -0.27810
  6 Li    0.00126    0.00067   -0.27453
  7 Li   -0.00106   -0.00291   -0.27597
  8 Li   -0.00305   -0.01464   -0.26743
  9 Li   -0.00414   -0.00442    0.30147
 10 Li    0.00087    0.01444    0.23839
 11 Li    0.00596   -0.00549    0.30504
 12 Li   -0.01125   -0.00482    0.33504
 13 Li    0.00004   -0.00897    0.22602
 14 Li    0.00814    0.00088    0.31939
 15 Li   -0.00268    0.00918    0.24547
 16 Li    0.00229   -0.00806    0.27976
 17 Li    0.00359    0.01133    0.23862
 18 Li    0.00493    0.00538    0.02500
 19 Li    0.00908    0.00700    0.03394
 20 Li   -0.01293   -0.02288   -0.22314
 21 Li   -0.03168   -0.03091    0.05164
 22 Li    0.03651   -0.03462    0.07256
 23 Li   -0.00467    0.05540   -0.08280
 24 Li   -0.01200    0.02293    0.05202
 25 Li    0.00744    0.01942    0.04518
 26 Li    0.00325   -0.01531    0.03444
 27 Li   -0.05976   -0.00031    0.10212
 28 Li   -0.02754   -0.00521   -0.06657
 29 Li    0.06359   -0.09096   -0.04386
 30 Li   -0.00903    0.07099    0.09077
 31 Li   -0.01638    0.02202   -0.07749
 32 Li    0.06220    0.00559   -0.23376
 33 Li    0.02456    0.04701   -0.03787
 34 Li    0.00987   -0.01254   -0.00092
 35 Li   -0.03730    0.02924   -0.03993
 36 O    -0.55066    0.27843    4.35933
 37 C    -1.63768    0.19117    2.51163
 38 C    -0.16048   -0.14010    0.40508
 39 H    -0.22176    0.28862    0.60968
 40 H    -0.96491    0.34672    1.71644
 41 H    -0.04916   -0.02743   -0.03145
 42 H    -0.03324    0.06996    0.08380
 43 H    -0.20909   -0.24152    0.13764
 44 H    -0.45735   -1.07365    1.30901
 45 N     1.61494   -2.02804   -5.57905
 46 N     2.59873    2.29721   -5.24757

System changes: positions 

Initializing position-dependent things.

Density initialized from wave functions
       .-----------------------.  
      /|                       |  
     / |                       |  
    /  |                       |  
   /   |                       |  
  /    |                       |  
 *     |                       |  
 |     |                       |  
 |     |                       |  
 |     |                       |  
 |     |                       |  
 |     |                       |  
 |     |                       |  
 |     |       Li   H  Li      |  
 |     |      HH   C HO        |  
 |   Li|     Li C   HLi        |  
 |     |       H       N       |  
 |     |  LLi     LLi N   LLi  |  
 |     |                       |  
 |     |Li      Li      LLi    |  
 |   Li|     Li      Li        |  
 |    Li  Li  Li  Li  Li  Li   |  
 | Li  |   Li      Li          |  
 |     |Li      Li      Li     |  
 Li    | Li      Li            |  
 |    Li      Li      Li       |  
 |     |                       |  
 |     |                       |  
 |     |                       |  
 |     |                       |  
 |     |                       |  
 |     |                       |  
 |     .-----------------------.  
 |    /                       /   
 |   /                       /    
 |  /                       /     
 | /                       /      
 |/                       /       
 *-----------------------*        

Positions:
   0 Li     1.617037    1.617037   10.000000    ( 0.0000,  0.0000,  0.0000)
   1 Li     4.851111    1.617037   10.000000    ( 0.0000,  0.0000,  0.0000)
   2 Li     8.085185    1.617037   10.000000    ( 0.0000,  0.0000,  0.0000)
   3 Li     1.617037    4.851111   10.000000    ( 0.0000,  0.0000,  0.0000)
   4 Li     4.851111    4.851111   10.000000    ( 0.0000,  0.0000,  0.0000)
   5 Li     8.085185    4.851111   10.000000    ( 0.0000,  0.0000,  0.0000)
   6 Li     1.617037    8.085185   10.000000    ( 0.0000,  0.0000,  0.0000)
   7 Li     4.851111    8.085185   10.000000    ( 0.0000,  0.0000,  0.0000)
   8 Li     8.085185    8.085185   10.000000    ( 0.0000,  0.0000,  0.0000)
   9 Li     0.000000    0.000000   11.617037    ( 0.0000,  0.0000,  0.0000)
  10 Li     3.234074    0.000000   11.617037    ( 0.0000,  0.0000,  0.0000)
  11 Li     6.468148    0.000000   11.617037    ( 0.0000,  0.0000,  0.0000)
  12 Li     0.000000    3.234074   11.617037    ( 0.0000,  0.0000,  0.0000)
  13 Li     3.234074    3.234074   11.617037    ( 0.0000,  0.0000,  0.0000)
  14 Li     6.468148    3.234074   11.617037    ( 0.0000,  0.0000,  0.0000)
  15 Li     0.000000    6.468148   11.617037    ( 0.0000,  0.0000,  0.0000)
  16 Li     3.234074    6.468148   11.617037    ( 0.0000,  0.0000,  0.0000)
  17 Li     6.468148    6.468148   11.617037    ( 0.0000,  0.0000,  0.0000)
  18 Li     1.617263    1.617215   13.470446    ( 0.0000,  0.0000,  0.0000)
  19 Li     4.851353    1.617270   13.470759    ( 0.0000,  0.0000,  0.0000)
  20 Li     8.084760    1.616308   13.462545    ( 0.0000,  0.0000,  0.0000)
  21 Li     1.616001    4.850096   13.471393    ( 0.0000,  0.0000,  0.0000)
  22 Li     4.852299    4.849981   13.472079    ( 0.0000,  0.0000,  0.0000)
  23 Li     8.085031    4.852966   13.466921    ( 0.0000,  0.0000,  0.0000)
  24 Li     1.616636    8.085939   13.471425    ( 0.0000,  0.0000,  0.0000)
  25 Li     4.851362    8.085828   13.471202    ( 0.0000,  0.0000,  0.0000)
  26 Li     8.085289    8.084652   13.470816    ( 0.0000,  0.0000,  0.0000)
  27 Li    -0.002214    0.000328   15.449680    ( 0.0000,  0.0000,  0.0000)
  28 Li     3.233193   -0.000219   15.443740    ( 0.0000,  0.0000,  0.0000)
  29 Li     6.470399   -0.002679   15.444902    ( 0.0000,  0.0000,  0.0000)
  30 Li    -0.001203    3.235852   15.449914    ( 0.0000,  0.0000,  0.0000)
  31 Li     3.233552    3.234825   15.443380    ( 0.0000,  0.0000,  0.0000)
  32 Li     6.470766    3.233849   15.439032    ( 0.0000,  0.0000,  0.0000)
  33 Li     0.000851    6.469670   15.444696    ( 0.0000,  0.0000,  0.0000)
  34 Li     3.234398    6.467748   15.445893    ( 0.0000,  0.0000,  0.0000)
  35 Li     6.466886    6.469111   15.444617    ( 0.0000,  0.0000,  0.0000)
  36 O      8.061594    1.639300   18.569894    ( 0.0000,  0.0000,  0.0000)
  37 C      6.862443    2.435848   18.516203    ( 0.0000,  0.0000,  0.0000)
  38 C      5.609355    1.608927   18.449715    ( 0.0000,  0.0000,  0.0000)
  39 H      6.903664    3.130966   19.336491    ( 0.0000,  0.0000,  0.0000)
  40 H      6.949674    3.050219   17.607205    ( 0.0000,  0.0000,  0.0000)
  41 H      4.740152    2.266662   18.419273    ( 0.0000,  0.0000,  0.0000)
  42 H      5.583409    0.968050   17.561838    ( 0.0000,  0.0000,  0.0000)
  43 H      5.541149    0.977221   19.333097    ( 0.0000,  0.0000,  0.0000)
  44 H      8.030480    0.993598   19.264182    ( 0.0000,  0.0000,  0.0000)
  45 N      8.137173    1.597837   16.771549    ( 0.0000,  0.0000,  0.0000)
  46 N      8.165972    2.740960   16.781851    ( 0.0000,  0.0000,  0.0000)

Unit cell:
           periodic     x           y           z      points  spacing
  1. axis:    yes    9.702222    0.000000    0.000000    60     0.1617
  2. axis:    yes    0.000000    9.702222    0.000000    60     0.1617
  3. axis:    no     0.000000    0.000000   26.351111   164     0.1607

  Lengths:   9.702222   9.702222  26.351111
  Angles:   90.000000  90.000000  90.000000

Effective grid spacing dv^(1/3) = 0.1614

     iter     time        total  log10-change:
                         energy  eigst   dens
iter:   1 22:38:24  -304.959403  -0.89
iter:   2 22:38:31  -304.905793  -1.01  -1.62
iter:   3 22:38:38  -304.858906  -1.94  -1.64
iter:   4 22:38:46  -304.860137  -2.22  -2.15
Writing to output.gpw (mode='')

iter:   5 22:38:53  -304.854139c -2.22  -2.14
iter:   6 22:39:00  -304.861193c -1.73  -2.26
iter:   7 22:39:07  -304.857846c -1.87  -1.93
iter:   8 22:39:14  -304.843445c -2.43  -2.19
iter:   9 22:39:22  -304.842659c -2.55  -2.69
Writing to output.gpw (mode='')

iter:  10 22:39:36  -304.842601c -2.64  -2.71
iter:  11 22:39:43  -304.843106c -3.10  -2.73
iter:  12 22:39:50  -304.842853c -3.33  -2.84
iter:  13 22:39:57  -304.843391c -3.17  -2.91
iter:  14 22:40:04  -304.843025c -3.94  -2.94
Writing to output.gpw (mode='')

iter:  15 22:40:12  -304.843025c -3.93  -3.06
iter:  16 22:40:19  -304.842947c -3.86  -3.17
iter:  17 22:40:26  -304.843046c -3.86  -3.25
iter:  18 22:40:33  -304.842916c -3.89  -3.44
iter:  19 22:40:40  -304.842967c -4.43  -3.47
Writing to output.gpw (mode='')

iter:  20 22:40:48  -304.843012c -4.46  -3.68
iter:  21 22:40:55  -304.842979c -4.43  -3.72
iter:  22 22:41:02  -304.843043c -4.76  -3.71
iter:  23 22:41:09  -304.843035c -4.64  -3.85
iter:  24 22:41:16  -304.843024c -4.90  -3.90
Writing to output.gpw (mode='')

iter:  25 22:41:24  -304.843008c -4.94  -3.93
iter:  26 22:41:31  -304.843038c -5.21  -4.12c
iter:  27 22:41:38  -304.843034c -5.49  -4.09c
iter:  28 22:41:45  -304.843031c -5.40  -4.11c
iter:  29 22:41:52  -304.843026c -5.31  -4.21c
Writing to output.gpw (mode='')

iter:  30 22:42:00  -304.843049c -5.54  -4.29c
iter:  31 22:42:07  -304.843047c -5.95  -4.17c
iter:  32 22:42:17  -304.843047c -6.03  -4.20c
iter:  33 22:42:24  -304.843039c -5.70  -4.20c
iter:  34 22:42:31  -304.843039c -6.04  -4.46c
Writing to output.gpw (mode='')

iter:  35 22:42:38  -304.843037c -5.89  -4.46c
iter:  36 22:42:45  -304.843026c -5.59  -4.46c
iter:  37 22:42:53  -304.843043c -6.09  -4.29c
iter:  38 22:43:00  -304.843036c -6.13  -4.43c
iter:  39 22:43:07  -304.843044c -6.00  -4.54c
Writing to output.gpw (mode='')

iter:  40 22:43:14  -304.843038c -6.24  -4.51c
iter:  41 22:43:22  -304.843042c -6.23  -4.69c
iter:  42 22:43:29  -304.843040c -6.24  -4.70c
iter:  43 22:43:36  -304.843038c -6.60  -4.68c
iter:  44 22:43:43  -304.843042c -6.51  -4.73c
Writing to output.gpw (mode='')

iter:  45 22:43:50  -304.843040c -6.96  -4.93c
iter:  46 22:43:58  -304.843041c -6.54  -4.97c
iter:  47 22:44:05  -304.843041c -6.96  -4.88c
iter:  48 22:44:12  -304.843040c -6.70  -5.00c
iter:  49 22:44:19  -304.843041c -7.20  -5.23c
Writing to output.gpw (mode='')

iter:  50 22:44:32  -304.843041c -7.26  -5.36c
iter:  51 22:44:41  -304.843042c -7.34  -5.40c
iter:  52 22:44:48  -304.843041c -7.15  -5.57c
iter:  53 22:44:55  -304.843041c -7.56c -5.81c

Converged after 53 iterations.

Dipole moment: (-2.213774, -4.033002, 0.409672) |e|*Ang

Energy contributions relative to reference atoms: (reference = -14434.854043)

Kinetic:       +171.393771
Potential:     -157.741521
External:        +0.000000
XC:            -319.159094
Entropy (-ST):   -0.175658
Local:           +0.751631
--------------------------
Free energy:   -304.930870
Extrapolated:  -304.843041

Dipole-layer corrected work functions: 3.386557, 2.599028 eV

Showing only first 2 kpts
 Kpt  Band  Eigenvalues  Occupancy
  0    31     -3.23104    1.98310
  0    32     -3.12733    1.87295
  0    33     -2.91620    0.35544
  0    34     -2.74185    0.01314

  1    31     -3.06103    1.59308
  1    32     -2.98817    0.95377
  1    33     -2.94958    0.59295
  1    34     -2.86521    0.14464


Fermi level: -2.99279

No gap
Writing to output.gpw (mode='')


Forces in eV/Ang:
  0 Li    0.02312    0.00674   -0.27693
  1 Li   -0.02305    0.00448   -0.27383
  2 Li    0.00111   -0.00565   -0.28455
  3 Li    0.01255   -0.00252   -0.28223
  4 Li   -0.01019   -0.00025   -0.27665
  5 Li   -0.00181    0.01898   -0.27855
  6 Li    0.00145    0.00078   -0.27475
  7 Li   -0.00148   -0.00258   -0.27652
  8 Li   -0.00315   -0.01523   -0.26765
  9 Li   -0.00454   -0.00423    0.30174
 10 Li    0.00075    0.01397    0.23892
 11 Li    0.00646   -0.00487    0.30560
 12 Li   -0.01182   -0.00460    0.33590
 13 Li    0.00016   -0.00935    0.22626
 14 Li    0.00825    0.00085    0.31969
 15 Li   -0.00221    0.00936    0.24571
 16 Li    0.00287   -0.00871    0.27875
 17 Li    0.00326    0.01255    0.23846
 18 Li    0.00487    0.00472    0.02322
 19 Li    0.00851    0.00619    0.03231
 20 Li   -0.01275   -0.02250   -0.21582
 21 Li   -0.03044   -0.03109    0.05096
 22 Li    0.03627   -0.03450    0.07048
 23 Li   -0.00534    0.05497   -0.08126
 24 Li   -0.01247    0.02315    0.05199
 25 Li    0.00731    0.01805    0.04437
 26 Li    0.00361   -0.01502    0.03202
 27 Li   -0.06269   -0.00141    0.10601
 28 Li   -0.02633   -0.00497   -0.06538
 29 Li    0.06334   -0.08979   -0.04128
 30 Li    0.03373    0.08606    0.05935
 31 Li   -0.01606    0.02226   -0.07743
 32 Li    0.04652   -0.00171   -0.21886
 33 Li    0.02455    0.04690   -0.03843
 34 Li    0.00895   -0.01206   -0.00159
 35 Li   -0.03660    0.02626   -0.04022
 36 O    -0.36752    0.07897    3.77457
 37 C    -1.38265    0.15881    2.21866
 38 C    -0.12833   -0.11785    0.38751
 39 H    -0.28295    0.27731    0.59241
 40 H    -0.79174    0.30340    1.50698
 41 H    -0.08097   -0.02868   -0.01776
 42 H    -0.01921    0.07842    0.09981
 43 H    -0.22469   -0.23716    0.14136
 44 H    -0.47263   -0.79422    1.04700
 45 N     1.45790   -1.81375   -4.85088
 46 N     2.29131    2.02613   -4.54354

System changes: positions 

Initializing position-dependent things.

Density initialized from wave functions
       .-----------------------.  
      /|                       |  
     / |                       |  
    /  |                       |  
   /   |                       |  
  /    |                       |  
 *     |                       |  
 |     |                       |  
 |     |                       |  
 |     |                       |  
 |     |                       |  
 |     |                       |  
 |     |                       |  
 |     |       Li   H  Li      |  
 |     |      HH   C HO        |  
 |   Li|     Li C   HLi        |  
 |     |       H       N       |  
 |     |  LLi     LLi N   LLi  |  
 |     |                       |  
 |     |Li      Li      LLi    |  
 |   Li|     Li      Li        |  
 |    Li  Li  Li  Li  Li  Li   |  
 | Li  |   Li      Li          |  
 |     |Li      Li      Li     |  
 Li    | Li      Li            |  
 |    Li      Li      Li       |  
 |     |                       |  
 |     |                       |  
 |     |                       |  
 |     |                       |  
 |     |                       |  
 |     |                       |  
 |     .-----------------------.  
 |    /                       /   
 |   /                       /    
 |  /                       /     
 | /                       /      
 |/                       /       
 *-----------------------*        

Positions:
   0 Li     1.617037    1.617037   10.000000    ( 0.0000,  0.0000,  0.0000)
   1 Li     4.851111    1.617037   10.000000    ( 0.0000,  0.0000,  0.0000)
   2 Li     8.085185    1.617037   10.000000    ( 0.0000,  0.0000,  0.0000)
   3 Li     1.617037    4.851111   10.000000    ( 0.0000,  0.0000,  0.0000)
   4 Li     4.851111    4.851111   10.000000    ( 0.0000,  0.0000,  0.0000)
   5 Li     8.085185    4.851111   10.000000    ( 0.0000,  0.0000,  0.0000)
   6 Li     1.617037    8.085185   10.000000    ( 0.0000,  0.0000,  0.0000)
   7 Li     4.851111    8.085185   10.000000    ( 0.0000,  0.0000,  0.0000)
   8 Li     8.085185    8.085185   10.000000    ( 0.0000,  0.0000,  0.0000)
   9 Li     0.000000    0.000000   11.617037    ( 0.0000,  0.0000,  0.0000)
  10 Li     3.234074    0.000000   11.617037    ( 0.0000,  0.0000,  0.0000)
  11 Li     6.468148    0.000000   11.617037    ( 0.0000,  0.0000,  0.0000)
  12 Li     0.000000    3.234074   11.617037    ( 0.0000,  0.0000,  0.0000)
  13 Li     3.234074    3.234074   11.617037    ( 0.0000,  0.0000,  0.0000)
  14 Li     6.468148    3.234074   11.617037    ( 0.0000,  0.0000,  0.0000)
  15 Li     0.000000    6.468148   11.617037    ( 0.0000,  0.0000,  0.0000)
  16 Li     3.234074    6.468148   11.617037    ( 0.0000,  0.0000,  0.0000)
  17 Li     6.468148    6.468148   11.617037    ( 0.0000,  0.0000,  0.0000)
  18 Li     1.617331    1.617264   13.470664    ( 0.0000,  0.0000,  0.0000)
  19 Li     4.851431    1.617331   13.471096    ( 0.0000,  0.0000,  0.0000)
  20 Li     8.084607    1.616037   13.460114    ( 0.0000,  0.0000,  0.0000)
[...]
iter:  24 05:31:03  -309.931480c -7.11  -5.07c
Writing to output.gpw (mode='')

iter:  25 05:31:11  -309.931480c -7.33  -5.17c
iter:  26 05:31:18  -309.931480c -7.56c -5.28c

Converged after 26 iterations.

Dipole moment: (-2.713441, -3.791408, 0.251118) |e|*Ang

Energy contributions relative to reference atoms: (reference = -14434.854043)

Kinetic:       +148.900596
Potential:     -140.965963
External:        +0.000000
XC:            -318.565042
Entropy (-ST):   -0.162031
Local:           +0.779944
--------------------------
Free energy:   -310.012496
Extrapolated:  -309.931480

Dipole-layer corrected work functions: 3.403262, 2.920527 eV

Showing only first 2 kpts
 Kpt  Band  Eigenvalues  Occupancy
  0    31     -3.37062    1.96970
  0    32     -3.17488    1.12914
  0    33     -3.14576    0.84004
  0    34     -3.05741    0.22020

  1    31     -3.47994    1.99655
  1    32     -3.11548    0.56657
  1    33     -3.05403    0.20730
  1    34     -3.03885    0.15730


Fermi level: -3.16189

No gap
Writing to output.gpw (mode='')


Forces in eV/Ang:
  0 Li   -0.01381   -0.01300   -0.29100
  1 Li    0.00691    0.00925   -0.29260
  2 Li   -0.00103   -0.00228   -0.24775
  3 Li    0.01502    0.01392   -0.28554
  4 Li   -0.01035    0.00705   -0.29216
  5 Li   -0.01062   -0.01336   -0.29406
  6 Li    0.00508   -0.00932   -0.29257
  7 Li   -0.01752   -0.01957   -0.28267
  8 Li    0.00970    0.00567   -0.28935
  9 Li   -0.00644    0.03075    0.28633
 10 Li    0.01790    0.01555    0.27523
 11 Li    0.05023    0.03682    0.24935
 12 Li   -0.01163   -0.01271    0.24023
 13 Li   -0.01542   -0.01513    0.29255
 14 Li    0.03432    0.00376    0.31260
 15 Li   -0.00789    0.01156    0.26880
 16 Li   -0.00773    0.02400    0.25996
 17 Li    0.03293    0.03114    0.26812
 18 Li   -0.00048    0.01930   -0.00042
 19 Li   -0.00634   -0.00540    0.00262
 20 Li    0.00879   -0.00027   -0.02551
 21 Li    0.00136   -0.00781    0.01012
 22 Li    0.00814   -0.01034    0.00702
 23 Li    0.02286   -0.00848   -0.00840
 24 Li   -0.00011   -0.00089    0.00822
 25 Li   -0.01055   -0.00321    0.01120
 26 Li   -0.00402   -0.02750   -0.00853
 27 Li   -0.00916    0.00592    0.01178
 28 Li   -0.02047   -0.00453    0.00073
 29 Li    0.00251    0.01352    0.00201
 30 Li    0.01299    0.01363    0.00022
 31 Li   -0.00279    0.00202   -0.00914
 32 Li   -0.03170   -0.00836    0.00832
 33 Li   -0.00000   -0.00274   -0.00080
 34 Li   -0.00114    0.00029    0.00354
 35 Li   -0.00367   -0.01709   -0.00064
 36 O    -0.00233    0.00835   -0.00199
 37 C     0.01074   -0.01349    0.00510
 38 C    -0.00191   -0.00347    0.01595
 39 H     0.00049    0.00185    0.00042
 40 H    -0.00314   -0.00159    0.03062
 41 H     0.00070    0.00288    0.00880
 42 H    -0.01450    0.00036    0.01066
 43 H     0.02085   -0.00079    0.01738
 44 H     0.00847   -0.00050    0.00168
 45 N    -0.03061    0.00316    0.00693
 46 N     0.00975   -0.03691    0.04318

System changes: positions 

Initializing position-dependent things.

Density initialized from wave functions
       .-----------------------.  
      /|                       |  
     / |                       |  
    /  |                       |  
   /   |                       |  
  /    |                       |  
 *     |                       |  
 |     |                       |  
 |     |                       |  
 |     |                       |  
 |     |                       |  
 |     |                       |  
 |     |           H           |  
 |     Li      Li  C H         |  
 |     |      HHC   H O        |  
 |   Li|     Li      Li        |  
 |     |       H               |  
 |     |  LLi     LLi     Li   |  
 |     |             N N       |  
 |     |Li      LiLi    Li     |  
 |   Li|     Li      Li        |  
 |    Li  Li  Li  Li  Li  Li   |  
 | Li  |   Li      Li          |  
 |     |Li      Li      Li     |  
 Li    | Li      Li            |  
 |    Li      Li      Li       |  
 |     |                       |  
 |     |                       |  
 |     |                       |  
 |     |                       |  
 |     |                       |  
 |     |                       |  
 |     .-----------------------.  
 |    /                       /   
 |   /                       /    
 |  /                       /     
 | /                       /      
 |/                       /       
 *-----------------------*        

Positions:
   0 Li     1.617037    1.617037   10.000000    ( 0.0000,  0.0000,  0.0000)
   1 Li     4.851111    1.617037   10.000000    ( 0.0000,  0.0000,  0.0000)
   2 Li     8.085185    1.617037   10.000000    ( 0.0000,  0.0000,  0.0000)
   3 Li     1.617037    4.851111   10.000000    ( 0.0000,  0.0000,  0.0000)
   4 Li     4.851111    4.851111   10.000000    ( 0.0000,  0.0000,  0.0000)
   5 Li     8.085185    4.851111   10.000000    ( 0.0000,  0.0000,  0.0000)
   6 Li     1.617037    8.085185   10.000000    ( 0.0000,  0.0000,  0.0000)
   7 Li     4.851111    8.085185   10.000000    ( 0.0000,  0.0000,  0.0000)
   8 Li     8.085185    8.085185   10.000000    ( 0.0000,  0.0000,  0.0000)
   9 Li     0.000000    0.000000   11.617037    ( 0.0000,  0.0000,  0.0000)
  10 Li     3.234074    0.000000   11.617037    ( 0.0000,  0.0000,  0.0000)
  11 Li     6.468148    0.000000   11.617037    ( 0.0000,  0.0000,  0.0000)
  12 Li     0.000000    3.234074   11.617037    ( 0.0000,  0.0000,  0.0000)
  13 Li     3.234074    3.234074   11.617037    ( 0.0000,  0.0000,  0.0000)
  14 Li     6.468148    3.234074   11.617037    ( 0.0000,  0.0000,  0.0000)
  15 Li     0.000000    6.468148   11.617037    ( 0.0000,  0.0000,  0.0000)
  16 Li     3.234074    6.468148   11.617037    ( 0.0000,  0.0000,  0.0000)
  17 Li     6.468148    6.468148   11.617037    ( 0.0000,  0.0000,  0.0000)
  18 Li     1.616245    1.556789   13.500749    ( 0.0000,  0.0000,  0.0000)
  19 Li     4.883731    1.665549   13.474201    ( 0.0000,  0.0000,  0.0000)
  20 Li     8.117259    1.645073   13.513634    ( 0.0000,  0.0000,  0.0000)
  21 Li     1.550485    4.808124   13.476761    ( 0.0000,  0.0000,  0.0000)
  22 Li     4.798616    4.925407   13.454580    ( 0.0000,  0.0000,  0.0000)
  23 Li     8.048875    4.889769   13.483958    ( 0.0000,  0.0000,  0.0000)
  24 Li     1.664471    8.053379   13.477871    ( 0.0000,  0.0000,  0.0000)
  25 Li     4.940301    8.155670   13.461231    ( 0.0000,  0.0000,  0.0000)
  26 Li     8.159675    8.137959   13.502338    ( 0.0000,  0.0000,  0.0000)
  27 Li     0.160832   -0.079221   15.509016    ( 0.0000,  0.0000,  0.0000)
  28 Li     3.431231   -0.064490   15.389648    ( 0.0000,  0.0000,  0.0000)
  29 Li     6.784830    0.271888   15.529118    ( 0.0000,  0.0000,  0.0000)
  30 Li    -0.216510    3.034180   15.583984    ( 0.0000,  0.0000,  0.0000)
  31 Li     3.106211    3.296435   15.392555    ( 0.0000,  0.0000,  0.0000)
  32 Li     6.396843    3.416296   15.345588    ( 0.0000,  0.0000,  0.0000)
  33 Li     0.054551    6.357327   15.431118    ( 0.0000,  0.0000,  0.0000)
  34 Li     3.242375    6.471738   15.420544    ( 0.0000,  0.0000,  0.0000)
  35 Li     6.422856    6.669409   15.417882    ( 0.0000,  0.0000,  0.0000)
  36 O      7.950723    1.617185   19.048052    ( 0.0000,  0.0000,  0.0000)
  37 C      6.756541    2.419591   19.028620    ( 0.0000,  0.0000,  0.0000)
  38 C      5.495512    1.605396   18.773787    ( 0.0000,  0.0000,  0.0000)
  39 H      6.661404    2.986666   19.963925    ( 0.0000,  0.0000,  0.0000)
  40 H      6.917133    3.138118   18.220818    ( 0.0000,  0.0000,  0.0000)
  41 H      4.622955    2.261782   18.705995    ( 0.0000,  0.0000,  0.0000)
  42 H      5.571310    1.053922   17.833606    ( 0.0000,  0.0000,  0.0000)
  43 H      5.313272    0.886937   19.578247    ( 0.0000,  0.0000,  0.0000)
  44 H      7.878277    0.993088   19.780698    ( 0.0000,  0.0000,  0.0000)
  45 N      8.572345    1.229537   15.531024    ( 0.0000,  0.0000,  0.0000)
  46 N      7.678892    2.112297   15.501010    ( 0.0000,  0.0000,  0.0000)

Unit cell:
           periodic     x           y           z      points  spacing
  1. axis:    yes    9.702222    0.000000    0.000000    60     0.1617
  2. axis:    yes    0.000000    9.702222    0.000000    60     0.1617
  3. axis:    no     0.000000    0.000000   26.351111   164     0.1607

  Lengths:   9.702222   9.702222  26.351111
  Angles:   90.000000  90.000000  90.000000

Effective grid spacing dv^(1/3) = 0.1614

     iter     time        total  log10-change:
                         energy  eigst   dens
iter:   1 05:31:27  -309.935374  -2.17
iter:   2 05:31:34  -309.933558  -2.78  -2.32
iter:   3 05:31:41  -309.932572c -3.59  -2.57
iter:   4 05:31:49  -309.932226c -4.02  -2.86
Writing to output.gpw (mode='')

iter:   5 05:31:56  -309.932071c -3.87  -3.05
iter:   6 05:32:03  -309.931996c -3.76  -3.20
iter:   7 05:32:10  -309.931940c -3.69  -3.38
iter:   8 05:32:17  -309.931968c -4.33  -3.63
iter:   9 05:32:24  -309.931996c -4.71  -3.71
Writing to output.gpw (mode='')

iter:  10 05:32:32  -309.931983c -4.76  -3.79
iter:  11 05:32:39  -309.931997c -5.26  -3.83
iter:  12 05:32:46  -309.931996c -5.54  -3.96
iter:  13 05:32:53  -309.931984c -5.57  -4.02c
iter:  14 05:33:00  -309.931983c -5.52  -4.22c
Writing to output.gpw (mode='')

iter:  15 05:33:08  -309.931986c -6.09  -4.40c
iter:  16 05:33:15  -309.931986c -6.33  -4.44c
iter:  17 05:33:22  -309.931988c -6.41  -4.50c
iter:  18 05:33:29  -309.931987c -6.54  -4.60c
iter:  19 05:33:36  -309.931989c -6.71  -4.63c
Writing to output.gpw (mode='')

iter:  20 05:33:44  -309.931989c -6.88  -4.77c
iter:  21 05:33:51  -309.931989c -6.98  -4.83c
iter:  22 05:33:58  -309.931989c -7.29  -4.85c
iter:  23 05:34:05  -309.931988c -7.20  -5.05c
iter:  24 05:34:12  -309.931987c -7.55c -5.34c

Converged after 24 iterations.

Dipole moment: (-2.669912, -3.763844, 0.251741) |e|*Ang

Energy contributions relative to reference atoms: (reference = -14434.854043)

Kinetic:       +148.877815
Potential:     -140.952020
External:        +0.000000
XC:            -318.556789
Entropy (-ST):   -0.162011
Local:           +0.780012
--------------------------
Free energy:   -310.012993
Extrapolated:  -309.931987

Dipole-layer corrected work functions: 3.403138, 2.919204 eV

Showing only first 2 kpts
 Kpt  Band  Eigenvalues  Occupancy
  0    31     -3.36949    1.96946
  0    32     -3.17419    1.12951
  0    33     -3.14507    0.84038
  0    34     -3.05640    0.21908

  1    31     -3.47903    1.99654
  1    32     -3.11449    0.56437
  1    33     -3.05350    0.20803
  1    34     -3.03798    0.15687


Fermi level: -3.16117

No gap
Writing to output.gpw (mode='')


Forces in eV/Ang:
  0 Li   -0.01353   -0.01299   -0.29099
  1 Li    0.00704    0.00931   -0.29259
  2 Li   -0.00097   -0.00220   -0.24794
  3 Li    0.01517    0.01400   -0.28560
  4 Li   -0.01026    0.00721   -0.29198
  5 Li   -0.01052   -0.01316   -0.29411
  6 Li    0.00506   -0.00911   -0.29245
  7 Li   -0.01739   -0.01938   -0.28298
  8 Li    0.00967    0.00578   -0.28931
  9 Li   -0.00755    0.03095    0.28664
 10 Li    0.01764    0.01494    0.27572
 11 Li    0.04978    0.03632    0.24986
 12 Li   -0.01272   -0.01373    0.24267
 13 Li   -0.01681   -0.01600    0.29206
 14 Li    0.03357    0.00320    0.31278
 15 Li   -0.00814    0.01002    0.26908
 16 Li   -0.00826    0.02375    0.26030
 17 Li    0.03288    0.02965    0.26840
 18 Li   -0.00088    0.02126   -0.00056
 19 Li   -0.00588   -0.00534    0.00276
 20 Li    0.01164   -0.00006   -0.02732
 21 Li    0.00025   -0.00868    0.01008
 22 Li    0.00977   -0.01038    0.00772
 23 Li    0.02361   -0.00848   -0.00957
 24 Li    0.00011   -0.00133    0.00831
 25 Li   -0.01089   -0.00204    0.01166
 26 Li   -0.00461   -0.02656   -0.00787
 27 Li   -0.00629    0.00236    0.01003
 28 Li   -0.02102   -0.00450    0.00135
 29 Li   -0.00209    0.01411    0.00352
 30 Li    0.01802    0.01641    0.00099
 31 Li   -0.00196    0.00171   -0.01097
 32 Li   -0.02924   -0.00914    0.00805
 33 Li    0.00062   -0.00164   -0.00115
 34 Li   -0.00156   -0.00017    0.00423
 35 Li   -0.00401   -0.01767   -0.00113
 36 O    -0.00018    0.01945   -0.00483
 37 C     0.00678   -0.01971    0.00566
 38 C    -0.00677   -0.00397    0.01739
 39 H     0.00289    0.00060   -0.00187
 40 H    -0.00074   -0.00634    0.03529
 41 H    -0.00212    0.00709    0.01056
 42 H    -0.01036   -0.00129    0.01072
 43 H     0.01948   -0.00314    0.02171
 44 H     0.00658    0.00037    0.00220
 45 N    -0.02296    0.00650    0.00055
 46 N    -0.00338   -0.01909    0.03356

Timing:                                      incl.     excl.
-------------------------------------------------------------------
Density initialized from wave functions:     7.439     7.437   0.0% |
 Symmetrize density:                         0.002     0.002   0.0% |
Forces:                                     42.453    42.453   0.2% |
Hamiltonian:                               572.866     0.013   0.0% |
 Atomic:                                     0.022     0.021   0.0% |
  XC Correction:                             0.000     0.000   0.0% |
 Calculate atomic Hamiltonians:              0.037     0.037   0.0% |
 Communicate:                               10.080    10.080   0.0% |
 Hartree integrate/restrict:                 2.418     2.418   0.0% |
 Initialize Hamiltonian:                     0.000     0.000   0.0% |
 Poisson:                                   26.879     9.711   0.0% |
  Communicate from 1D:                       2.602     2.602   0.0% |
  Communicate from 2D:                       2.906     2.906   0.0% |
  Communicate to 1D:                         1.718     1.718   0.0% |
  Communicate to 2D:                         3.096     3.096   0.0% |
  FFT 1D:                                    3.538     3.538   0.0% |
  FFT 2D:                                    3.308     3.308   0.0% |
 XC 3D grid:                               532.898    80.369   0.3% |
  VdW-DF integral:                         452.528     3.739   0.0% |
   Convolution:                             40.537    40.537   0.1% |
   FFT:                                     17.541    17.541   0.1% |
   gather:                                 159.562   159.562   0.6% |
   hmm1:                                    14.503    14.503   0.1% |
   hmm2:                                    18.902    18.902   0.1% |
   iFFT:                                    18.104    18.104   0.1% |
   potential:                              176.022     4.736   0.0% |
    collect:                                28.910    28.910   0.1% |
    p1:                                     78.335    78.335   0.3% |
    p2:                                     28.907    28.907   0.1% |
    sum:                                    35.134    35.134   0.1% |
   splines:                                  3.618     3.618   0.0% |
 vbar:                                       0.518     0.518   0.0% |
LCAO initialization:                         1.170     0.182   0.0% |
 LCAO eigensolver:                           0.299     0.000   0.0% |
  Calculate projections:                     0.000     0.000   0.0% |
  DenseAtomicCorrection:                     0.000     0.000   0.0% |
  Distribute overlap matrix:                 0.229     0.229   0.0% |
  Orbital Layouts:                           0.068     0.068   0.0% |
  Potential matrix:                          0.001     0.001   0.0% |
  Sum over cells:                            0.001     0.001   0.0% |
 LCAO to grid:                               0.549     0.549   0.0% |
 Set positions (LCAO WFS):                   0.139     0.078   0.0% |
  Basic WFS set positions:                   0.001     0.001   0.0% |
  Basis functions set positions:             0.000     0.000   0.0% |
  P tci:                                     0.000     0.000   0.0% |
  ST tci:                                    0.029     0.029   0.0% |
  mktci:                                     0.031     0.031   0.0% |
Redistribute:                                0.065     0.065   0.0% |
SCF-cycle:                               26586.395   498.579   1.8% ||
 Davidson:                                6659.895  2000.388   7.3% |--|
  Apply hamiltonian:                       411.657   411.657   1.5% ||
  Subspace diag:                          1244.383     0.484   0.0% |
   calc_h_matrix:                          606.178   184.778   0.7% |
    Apply hamiltonian:                     421.400   421.400   1.5% ||
   diagonalize:                             70.783    70.783   0.3% |
   rotate_psi:                             566.939   566.939   2.1% ||
  calc. matrices:                         2090.119  1053.734   3.9% |-|
   Apply hamiltonian:                     1036.384  1036.384   3.8% |-|
  diagonalize:                              17.924    17.924   0.1% |
  rotate_psi:                              895.424   895.424   3.3% ||
 Density:                                  131.528     0.087   0.0% |
  Atomic density matrices:                  15.714    15.714   0.1% |
  Mix:                                      58.164    58.164   0.2% |
  Multipole moments:                         6.412     6.412   0.0% |
  Pseudo density:                           51.151    51.077   0.2% |
   Symmetrize density:                       0.074     0.074   0.0% |
 Hamiltonian:                            19277.564     0.449   0.0% |
  Atomic:                                    0.865     0.856   0.0% |
   XC Correction:                            0.009     0.009   0.0% |
  Calculate atomic Hamiltonians:             1.496     1.496   0.0% |
  Communicate:                             275.222   275.222   1.0% |
  Hartree integrate/restrict:               68.590    68.590   0.3% |
  Poisson:                                 914.748   335.506   1.2% |
   Communicate from 1D:                     91.202    91.202   0.3% |
   Communicate from 2D:                     91.802    91.802   0.3% |
   Communicate to 1D:                       52.045    52.045   0.2% |
   Communicate to 2D:                      108.594   108.594   0.4% |
   FFT 1D:                                 120.202   120.202   0.4% |
   FFT 2D:                                 115.395   115.395   0.4% |
  XC 3D grid:                            18001.014  2762.765  10.1% |---|
   VdW-DF integral:                      15238.249   128.730   0.5% |
    Convolution:                          1398.821  1398.821   5.1% |-|
    FFT:                                   605.591   605.591   2.2% ||
    gather:                               5372.605  5372.605  19.7% |-------|
    hmm1:                                  493.391   493.391   1.8% ||
    hmm2:                                  651.893   651.893   2.4% ||
    iFFT:                                  626.388   626.388   2.3% ||
    potential:                            5960.800   165.676   0.6% |
     collect:                              919.896   919.896   3.4% ||
     p1:                                  2694.707  2694.707   9.9% |---|
     p2:                                  1003.554  1003.554   3.7% ||
     sum:                                 1176.966  1176.966   4.3% |-|
    splines:                                 0.032     0.032   0.0% |
  vbar:                                     15.181    15.181   0.1% |
 Orthonormalize:                            18.830     0.013   0.0% |
  calc_s_matrix:                             2.472     2.472   0.0% |
  inverse-cholesky:                          6.595     6.595   0.0% |
  projections:                               0.002     0.002   0.0% |
  rotate_psi_s:                              9.747     9.747   0.0% |
Set symmetry:                                0.013     0.013   0.0% |
Other:                                     113.928   113.928   0.4% |
-------------------------------------------------------------------
Total:                                             27324.328 100.0%

Memory usage: 1.11 GiB
Date: Thu Mar  9 05:34:14 2023
