
  ___ ___ ___ _ _ _  
 |   |   |_  | | | | 
 | | | | | . | | | | 
 |__ |  _|___|_____|  22.8.0
 |___|_|             

User:   vazumah@r307.ib.bridges2.psc.edu
Date:   Fri Mar 10 12:22:51 2023
Arch:   x86_64
Pid:    91346
CWD:    /jet/home/vazumah/Calcs/LiMEAS/proton_donors/ethanediol_y/ontop/9.702_9.702/N2_z
Python: 3.11.0
gpaw:   /jet/home/vazumah/.conda/envs/GPAW_mpich/lib/python3.11/site-packages/gpaw
_gpaw:  /jet/home/vazumah/.conda/envs/GPAW_mpich/lib/python3.11/site-packages/
        _gpaw.cpython-311-x86_64-linux-gnu.so
ase:    /jet/home/vazumah/.conda/envs/GPAW_mpich/lib/python3.11/site-packages/ase (version 3.22.1)
numpy:  /jet/home/vazumah/.conda/envs/GPAW_mpich/lib/python3.11/site-packages/numpy (version 1.24.2)
scipy:  /jet/home/vazumah/.conda/envs/GPAW_mpich/lib/python3.11/site-packages/scipy (version 1.10.1)
libxc:  5.2.3
units:  Angstrom and eV
cores: 128
OpenMP: True
OMP_NUM_THREADS: 1

Input parameters:
  h: 0.16
  kpts: {size: [4, 4, 1]}
  occupations: {name: fermi-dirac,
                width: 0.05}
  poissonsolver: {dipolelayer: xy}
  xc: BEEF-vdW

System changes: positions, numbers, cell, pbc, initial_charges, initial_magmoms 

Initialize ...

species:
  Li:
    name: Lithium
    id: 830b4218f175192f93f959cfc0aad614
    Z: 3.0
    valence: 1
    core: 2
    charge: 0.0
    file: /jet/home/vazumah/datasets/gpaw-setups-0.9.20000/Li.PBE.gz
    compensation charges: {type: gauss,
                           rc: 0.33,
                           lmax: 2}
    cutoffs: {filter: 1.91,
              core: 2.55}
    valence states:
      #              energy  rcut
      - 2s(1.00)    -2.874   1.058
      - 2p(0.00)    -1.090   1.058
      -  s          24.337   1.058
  
    # Using partial waves for Li as LCAO basis

  O:
    name: Oxygen
    id: 32ecd46bf208036f09c70b0ec9a88b78
    Z: 8.0
    valence: 6
    core: 2
    charge: 0.0
    file: /jet/home/vazumah/datasets/gpaw-setups-0.9.20000/O.PBE.gz
    compensation charges: {type: gauss,
                           rc: 0.21,
                           lmax: 2}
    cutoffs: {filter: 1.17,
              core: 0.83}
    valence states:
      #              energy  rcut
      - 2s(2.00)   -23.961   0.688
      - 2p(4.00)    -9.029   0.598
      -  s           3.251   0.688
      -  p          18.182   0.598
      -  d           0.000   0.619
  
    # Using partial waves for O as LCAO basis

  C:
    name: Carbon
    id: 4aa54d4b901d75f77cc0ea3eec22967b
    Z: 6.0
    valence: 4
    core: 2
    charge: 0.0
    file: /jet/home/vazumah/datasets/gpaw-setups-0.9.20000/C.PBE.gz
    compensation charges: {type: gauss,
                           rc: 0.20,
                           lmax: 2}
    cutoffs: {filter: 1.14,
              core: 1.14}
    valence states:
      #              energy  rcut
      - 2s(2.00)   -13.751   0.635
      - 2p(2.00)    -5.284   0.635
      -  s          13.461   0.635
      -  p          21.927   0.635
      -  d           0.000   0.635
  
    # Using partial waves for C as LCAO basis

  H:
    name: Hydrogen
    id: d65de229564ff8ea4db303e23b6d1ecf
    Z: 1.0
    valence: 1
    core: 0
    charge: 0.0
    file: /jet/home/vazumah/datasets/gpaw-setups-0.9.20000/H.PBE.gz
    compensation charges: {type: gauss,
                           rc: 0.15,
                           lmax: 2}
    cutoffs: {filter: 0.85,
              core: 0.53}
    valence states:
      #              energy  rcut
      - 1s(1.00)    -6.494   0.476
      -  s          20.717   0.476
      -  p           0.000   0.476
  
    # Using partial waves for H as LCAO basis

  N:
    name: Nitrogen
    id: f7500608b86eaa90eef8b1d9a670dc53
    Z: 7.0
    valence: 5
    core: 2
    charge: 0.0
    file: /jet/home/vazumah/datasets/gpaw-setups-0.9.20000/N.PBE.gz
    compensation charges: {type: gauss,
                           rc: 0.18,
                           lmax: 2}
    cutoffs: {filter: 1.11,
              core: 0.96}
    valence states:
      #              energy  rcut
      - 2s(2.00)   -18.583   0.603
      - 2p(3.00)    -7.089   0.529
      -  s           8.629   0.603
      -  p          20.123   0.529
      -  d           0.000   0.577
  
    # Using partial waves for N as LCAO basis

Reference energy: -16475.706344  # eV

Spin-paired calculation

Convergence criteria:
 Maximum [total energy] change in last 3 cyles: 0.0005 eV / electron
 Maximum integral of absolute [dens]ity change: 0.0001 electrons / valence electron
 Maximum integral of absolute [eigenst]ate change: 4e-08 eV^2 / valence electron
 Maximum number of scf [iter]ations: 333
 (Square brackets indicate name in SCF output, whereas a 'c' in
 the SCF output indicates the quantity has converged.)

Symmetries present (total): 1

  ( 1  0  0)
  ( 0  1  0)
  ( 0  0  1)

16 k-points: 4 x 4 x 1 Monkhorst-Pack grid
8 k-points in the irreducible part of the Brillouin zone
       k-points in crystal coordinates                weights
   0:     0.12500000   -0.37500000    0.00000000          2/16
   1:     0.12500000   -0.12500000    0.00000000          2/16
   2:     0.12500000    0.12500000    0.00000000          2/16
   3:     0.12500000    0.37500000    0.00000000          2/16
   4:     0.37500000   -0.37500000    0.00000000          2/16
   5:     0.37500000   -0.12500000    0.00000000          2/16
   6:     0.37500000    0.12500000    0.00000000          2/16
   7:     0.37500000    0.37500000    0.00000000          2/16

Wave functions: Uniform real-space grid
  Kinetic energy operator: 6*3+1=19 point O(h^6) finite-difference Laplacian
  ScaLapack parameters: grid=1x1, blocksize=None
  Wavefunction extrapolation:
    Improved wavefunction reuse through dual PAW basis 

Occupation numbers: Fermi-Dirac:
  width: 0.0500  # eV
 

Eigensolver
   Davidson(niter=2) 

Densities:
  Coarse grid: 60*60*168 grid
  Fine grid: 120*120*336 grid
  Total Charge: 0.000000 

Density mixing:
  Method: separate
  Backend: pulay
  Linear mixing parameter: 0.05
  old densities: 5
  Damping of long wavelength oscillations: 50 

Hamiltonian:
  XC and Coulomb potentials evaluated on a 120*120*336 grid
  Using the BEEF-vdW Exchange-Correlation functional
  Interpolation: tri-quintic (5. degree polynomial)
  Poisson solver: FastPoissonSolver using
    Stencil: 6*3+1=19 point O(h^6) finite-difference Laplacian
    FFT axes: [0, 1]
    FST axes: [2]

Dipole correction along z-axis 

XC parameters: BEEF-vdW with 2 nearest neighbor stencil

Memory estimate:
  Process memory now: 128.70 MiB
  Calculator: 86.74 MiB
    Density: 22.99 MiB
      Arrays: 7.40 MiB
      Localized functions: 12.78 MiB
      Mixer: 2.82 MiB
    Hamiltonian: 5.85 MiB
      Arrays: 4.84 MiB
      XC: 0.00 MiB
      Poisson: 0.00 MiB
      vbar: 1.01 MiB
    Wavefunctions: 57.90 MiB
      Arrays psit_nG: 27.03 MiB
      Eigensolver: 30.19 MiB
      Projections: 0.01 MiB
      Projectors: 0.66 MiB

Total number of cores used: 128
Parallelization over k-points: 8
Domain decomposition: 2 x 2 x 4

Number of atoms: 48
Number of atomic orbitals: 174
Number of bands in calculation: 48
Number of valence electrons: 72
Bands to converge: occupied

... initialized

Initializing position-dependent things.

Density initialized from atomic densities
Creating initial wave functions:
  48 bands from LCAO basis set

       .-----------------------.  
      /|                       |  
     / |                       |  
    /  |                       |  
   /   |                       |  
  /    |                       |  
 *     |                       |  
 |     |                       |  
 |     H                       |  
 |     |                       |  
 |     |                       N  
 |     |                       |  
 |   H |                       N  
 | O C |H                H     |  
 |     |                       |  
 O  C H|                       |  
 |  HLi|     Li      Li        |  
 |     |  Li      Li      Li   |  
 | Li  |   Li      Li          |  
 |     |Li      Li      Li     |  
 Li    | Li      Li            |  
 |   LLi     LLi     LLi       |  
 |     |  Li      Li      Li   |  
 | Li  |   Li      Li          |  
 |     |Li      Li      Li     |  
 Li    | Li      Li            |  
 |    Li      Li      Li       |  
 |     |                       |  
 |     |                       |  
 |     |                       |  
 |     |                       |  
 |     |                       |  
 |     |                       |  
 |     .-----------------------.  
 |    /                       /   
 |   /                       /    
 |  /                       /     
 | /                       /      
 |/                       /       
 *-----------------------*        

Positions:
   0 Li     1.617037    1.617037   10.000000    ( 0.0000,  0.0000,  0.0000)
   1 Li     4.851111    1.617037   10.000000    ( 0.0000,  0.0000,  0.0000)
   2 Li     8.085185    1.617037   10.000000    ( 0.0000,  0.0000,  0.0000)
   3 Li     1.617037    4.851111   10.000000    ( 0.0000,  0.0000,  0.0000)
   4 Li     4.851111    4.851111   10.000000    ( 0.0000,  0.0000,  0.0000)
   5 Li     8.085185    4.851111   10.000000    ( 0.0000,  0.0000,  0.0000)
   6 Li     1.617037    8.085185   10.000000    ( 0.0000,  0.0000,  0.0000)
   7 Li     4.851111    8.085185   10.000000    ( 0.0000,  0.0000,  0.0000)
   8 Li     8.085185    8.085185   10.000000    ( 0.0000,  0.0000,  0.0000)
   9 Li     0.000000    0.000000   11.617037    ( 0.0000,  0.0000,  0.0000)
  10 Li     3.234074    0.000000   11.617037    ( 0.0000,  0.0000,  0.0000)
  11 Li     6.468148    0.000000   11.617037    ( 0.0000,  0.0000,  0.0000)
  12 Li     0.000000    3.234074   11.617037    ( 0.0000,  0.0000,  0.0000)
  13 Li     3.234074    3.234074   11.617037    ( 0.0000,  0.0000,  0.0000)
  14 Li     6.468148    3.234074   11.617037    ( 0.0000,  0.0000,  0.0000)
  15 Li     0.000000    6.468148   11.617037    ( 0.0000,  0.0000,  0.0000)
  16 Li     3.234074    6.468148   11.617037    ( 0.0000,  0.0000,  0.0000)
  17 Li     6.468148    6.468148   11.617037    ( 0.0000,  0.0000,  0.0000)
  18 Li     1.617038    1.617038   13.469728    ( 0.0000,  0.0000,  0.0000)
  19 Li     4.851111    1.617038   13.469729    ( 0.0000,  0.0000,  0.0000)
  20 Li     8.085184    1.617038   13.469728    ( 0.0000,  0.0000,  0.0000)
  21 Li     1.617038    4.851111   13.469729    ( 0.0000,  0.0000,  0.0000)
  22 Li     4.851111    4.851111   13.469730    ( 0.0000,  0.0000,  0.0000)
  23 Li     8.085184    4.851111   13.469729    ( 0.0000,  0.0000,  0.0000)
  24 Li     1.617038    8.085184   13.469728    ( 0.0000,  0.0000,  0.0000)
  25 Li     4.851111    8.085184   13.469729    ( 0.0000,  0.0000,  0.0000)
  26 Li     8.085184    8.085184   13.469728    ( 0.0000,  0.0000,  0.0000)
  27 Li    -0.000000   -0.000000   15.445939    ( 0.0000,  0.0000,  0.0000)
  28 Li     3.234074    0.000000   15.445939    ( 0.0000,  0.0000,  0.0000)
  29 Li     6.468148    0.000000   15.445939    ( 0.0000,  0.0000,  0.0000)
  30 Li     0.000000    3.234074   15.445939    ( 0.0000,  0.0000,  0.0000)
  31 Li     3.234076    3.234076   15.445938    ( 0.0000,  0.0000,  0.0000)
  32 Li     6.468146    3.234076   15.445938    ( 0.0000,  0.0000,  0.0000)
  33 Li     0.000000    6.468148   15.445939    ( 0.0000,  0.0000,  0.0000)
  34 Li     3.234076    6.468146   15.445938    ( 0.0000,  0.0000,  0.0000)
  35 Li     6.468146    6.468146   15.445938    ( 0.0000,  0.0000,  0.0000)
  36 O      9.702222    9.702222   19.645939    ( 0.0000,  0.0000,  0.0000)
  37 O      9.746216   12.600420   19.413250    ( 0.0000,  0.0000,  0.0000)
  38 C     10.873434   10.430783   19.233562    ( 0.0000,  0.0000,  0.0000)
  39 C     10.887124   11.839968   19.802713    ( 0.0000,  0.0000,  0.0000)
  40 H     11.787824    9.902657   19.526395    ( 0.0000,  0.0000,  0.0000)
  41 H     10.826136   10.463532   18.143996    ( 0.0000,  0.0000,  0.0000)
  42 H     11.761390   12.376687   19.426232    ( 0.0000,  0.0000,  0.0000)
  43 H     10.962625   11.790239   20.901774    ( 0.0000,  0.0000,  0.0000)
  44 H      9.776737    9.532798   20.593261    ( 0.0000,  0.0000,  0.0000)
  45 H      8.979095   12.020954   19.509689    ( 0.0000,  0.0000,  0.0000)
  46 N      9.702000    9.702000   17.195939    ( 0.0000,  0.0000,  0.0000)
  47 N      9.702000    9.702000   18.292561    ( 0.0000,  0.0000,  0.0000)

Unit cell:
           periodic     x           y           z      points  spacing
  1. axis:    yes    9.702222    0.000000    0.000000    60     0.1617
  2. axis:    yes    0.000000    9.702222    0.000000    60     0.1617
  3. axis:    no     0.000000    0.000000   26.601111   168     0.1583

  Lengths:   9.702222   9.702222  26.601111
  Angles:   90.000000  90.000000  90.000000

Effective grid spacing dv^(1/3) = 0.1606

     iter     time        total  log10-change:
                         energy  eigst   dens
iter:   1 12:23:06  -689.334144
iter:   2 12:23:14    -1.539394  +2.66  +0.04
iter:   3 12:23:21     9.706963  +3.26  -0.15
iter:   4 12:23:29  -204.525124  +3.20  -0.25
Writing to output.gpw (mode='')

iter:   5 12:23:36  -237.406302  +2.78  -0.24
iter:   6 12:23:44  -306.053689  +2.54  -0.53
iter:   7 12:23:51  -321.870215  +2.21  -0.56
iter:   8 12:23:58  -325.262610  +1.93  -0.57
iter:   9 12:24:06  -356.878756  +1.91  -0.65
Writing to output.gpw (mode='')

iter:  10 12:24:13  -343.041448  +1.48  -0.55
iter:  11 12:24:21  -364.018118  +1.61  -0.61
iter:  12 12:24:28  -318.421156  +1.22  -0.60
iter:  13 12:24:35  -316.029458  +0.94  -0.78
iter:  14 12:24:48  -315.585938  +0.55  -0.80
Writing to output.gpw (mode='')

iter:  15 12:24:59  -315.238277  +0.60  -0.88
iter:  16 12:25:07  -314.881269  +0.44  -0.93
iter:  17 12:25:14  -314.100494  +0.43  -1.02
iter:  18 12:25:21  -314.190395  +0.03  -1.24
iter:  19 12:25:29  -314.157485  +0.09  -1.26
Writing to output.gpw (mode='')

iter:  20 12:25:36  -314.136014  +0.20  -1.30
iter:  21 12:25:44  -313.839964  -0.37  -1.35
iter:  22 12:25:51  -313.810817  -0.28  -1.49
iter:  23 12:25:58  -313.793330  -0.66  -1.57
iter:  24 12:26:06  -313.808304c -1.01  -1.78
Writing to output.gpw (mode='')

iter:  25 12:26:13  -313.814290c -1.20  -1.75
iter:  26 12:26:21  -313.797212c -1.31  -1.74
iter:  27 12:26:28  -313.786932c -1.06  -1.80
iter:  28 12:26:36  -313.794206c -1.38  -1.92
iter:  29 12:26:43  -313.816447c -1.40  -1.91
Writing to output.gpw (mode='')

iter:  30 12:26:50  -313.803914c -1.70  -1.81
iter:  31 12:26:58  -313.802993c -1.72  -1.93
iter:  32 12:27:05  -313.800052c -1.55  -2.03
iter:  33 12:27:13  -313.804496c -1.71  -2.34
iter:  34 12:27:20  -313.804751c -2.24  -2.42
Writing to output.gpw (mode='')

iter:  35 12:27:28  -313.806673c -2.26  -2.53
iter:  36 12:27:35  -313.807197c -2.34  -2.65
iter:  37 12:27:42  -313.808479c -2.34  -2.68
iter:  38 12:27:50  -313.809660c -2.52  -2.77
iter:  39 12:27:57  -313.810894c -2.51  -2.90
Writing to output.gpw (mode='')

iter:  40 12:28:05  -313.811354c -2.40  -2.94
iter:  41 12:28:12  -313.811529c -2.69  -3.07
iter:  42 12:28:20  -313.811798c -2.94  -3.24
iter:  43 12:28:27  -313.812074c -2.81  -3.31
iter:  44 12:28:35  -313.812192c -3.13  -3.45
Writing to output.gpw (mode='')

iter:  45 12:28:42  -313.812424c -3.14  -3.51
iter:  46 12:28:50  -313.812583c -3.15  -3.51
iter:  47 12:28:57  -313.812720c -3.39  -3.51
iter:  48 12:29:05  -313.812785c -3.37  -3.65
iter:  49 12:29:12  -313.812914c -3.26  -3.66
Writing to output.gpw (mode='')

iter:  50 12:29:20  -313.812978c -3.47  -3.77
iter:  51 12:29:27  -313.813042c -3.54  -3.77
iter:  52 12:29:34  -313.813085c -3.65  -3.83
iter:  53 12:29:48  -313.813145c -3.62  -3.92
iter:  54 12:29:56  -313.813197c -3.58  -3.99
Writing to output.gpw (mode='')

iter:  55 12:30:04  -313.813234c -3.67  -4.02c
iter:  56 12:30:11  -313.813261c -3.81  -4.04c
iter:  57 12:30:18  -313.813264c -3.94  -4.12c
iter:  58 12:30:26  -313.813292c -4.13  -4.21c
iter:  59 12:30:33  -313.813309c -3.95  -4.36c
Writing to output.gpw (mode='')

iter:  60 12:30:41  -313.813317c -4.22  -4.31c
iter:  61 12:30:48  -313.813326c -4.32  -4.26c
iter:  62 12:30:55  -313.813333c -4.38  -4.27c
iter:  63 12:31:03  -313.813338c -4.43  -4.16c
iter:  64 12:31:10  -313.813345c -4.55  -4.17c
Writing to output.gpw (mode='')

iter:  65 12:31:18  -313.813348c -4.41  -4.30c
iter:  66 12:31:25  -313.813355c -4.45  -4.41c
iter:  67 12:31:32  -313.813358c -4.54  -4.46c
iter:  68 12:31:40  -313.813359c -4.59  -4.47c
iter:  69 12:31:47  -313.813363c -4.66  -4.45c
Writing to output.gpw (mode='')

iter:  70 12:31:55  -313.813356c -4.79  -4.33c
iter:  71 12:32:02  -313.813360c -4.84  -4.46c
iter:  72 12:32:09  -313.813361c -4.81  -4.60c
iter:  73 12:32:17  -313.813363c -4.86  -4.64c
iter:  74 12:32:24  -313.813366c -5.06  -4.64c
Writing to output.gpw (mode='')

iter:  75 12:32:32  -313.813368c -5.27  -4.80c
iter:  76 12:32:39  -313.813369c -5.26  -4.79c
iter:  77 12:32:46  -313.813368c -5.18  -4.79c
iter:  78 12:32:54  -313.813369c -5.26  -4.82c
iter:  79 12:33:01  -313.813371c -5.33  -4.93c
Writing to output.gpw (mode='')

iter:  80 12:33:09  -313.813370c -5.35  -5.13c
iter:  81 12:33:16  -313.813370c -5.39  -5.21c
iter:  82 12:33:23  -313.813369c -5.40  -5.29c
iter:  83 12:33:31  -313.813369c -5.46  -5.31c
iter:  84 12:33:38  -313.813369c -5.60  -5.39c
Writing to output.gpw (mode='')

iter:  85 12:33:45  -313.813369c -5.73  -5.57c
iter:  86 12:33:53  -313.813369c -5.66  -5.57c
iter:  87 12:34:00  -313.813369c -5.71  -5.56c
iter:  88 12:34:08  -313.813369c -5.68  -5.39c
iter:  89 12:34:15  -313.813369c -5.86  -5.31c
Writing to output.gpw (mode='')

iter:  90 12:34:23  -313.813369c -5.94  -5.36c
iter:  91 12:34:30  -313.813369c -5.95  -5.26c
iter:  92 12:34:37  -313.813369c -5.99  -5.22c
iter:  93 12:34:51  -313.813368c -5.99  -5.22c
iter:  94 12:34:58  -313.813368c -6.03  -5.22c
Writing to output.gpw (mode='')

iter:  95 12:35:06  -313.813368c -6.14  -5.24c
iter:  96 12:35:13  -313.813369c -6.27  -5.20c
iter:  97 12:35:21  -313.813368c -6.16  -5.21c
iter:  98 12:35:28  -313.813368c -6.23  -5.22c
iter:  99 12:35:35  -313.813368c -6.28  -5.26c
Writing to output.gpw (mode='')

iter: 100 12:35:43  -313.813368c -6.35  -5.34c
iter: 101 12:35:50  -313.813367c -6.21  -5.51c
iter: 102 12:35:58  -313.813367c -6.41  -5.53c
iter: 103 12:36:05  -313.813367c -6.49  -5.59c
iter: 104 12:36:13  -313.813367c -6.48  -5.59c
Writing to output.gpw (mode='')

iter: 105 12:36:20  -313.813367c -6.61  -5.74c
iter: 106 12:36:28  -313.813367c -6.70  -5.86c
iter: 107 12:36:35  -313.813367c -6.71  -5.95c
iter: 108 12:36:42  -313.813367c -6.69  -6.02c
iter: 109 12:36:50  -313.813367c -6.72  -6.12c
Writing to output.gpw (mode='')

iter: 110 12:36:57  -313.813367c -6.84  -6.26c
iter: 111 12:37:05  -313.813367c -6.87  -6.31c
iter: 112 12:37:12  -313.813367c -6.97  -6.33c
iter: 113 12:37:20  -313.813367c -6.99  -6.24c
iter: 114 12:37:27  -313.813367c -7.01  -6.39c
Writing to output.gpw (mode='')

iter: 115 12:37:35  -313.813367c -7.06  -6.38c
iter: 116 12:37:42  -313.813367c -7.14  -6.38c
iter: 117 12:37:49  -313.813367c -7.13  -6.32c
iter: 118 12:37:57  -313.813367c -7.17  -6.25c
iter: 119 12:38:04  -313.813367c -7.25  -6.17c
Writing to output.gpw (mode='')

iter: 120 12:38:12  -313.813367c -7.26  -6.14c
iter: 121 12:38:19  -313.813367c -7.30  -6.15c
iter: 122 12:38:27  -313.813367c -7.34  -6.08c
iter: 123 12:38:34  -313.813367c -7.35  -6.04c
iter: 124 12:38:42  -313.813367c -7.48c -6.07c

Converged after 124 iterations.

Dipole moment: (-25.444376, -17.762283, -0.038358) |e|*Ang

Energy contributions relative to reference atoms: (reference = -16475.706344)

Kinetic:       +217.046729
Potential:     -191.276822
External:        +0.000000
XC:            -340.549206
Entropy (-ST):   -0.152904
Local:           +1.042385
--------------------------
Free energy:   -313.889818
Extrapolated:  -313.813367

Dipole-layer corrected work functions: 3.394529, 3.468266 eV

Showing only first 2 kpts
 Kpt  Band  Eigenvalues  Occupancy
  0    34     -3.65127    1.97568
  0    35     -3.58942    1.91864
  0    36     -3.27342    0.08143
  0    37     -3.19668    0.01813

  1    34     -3.49575    1.56731
  1    35     -3.41880    0.87465
  1    36     -3.39544    0.65518
  1    37     -3.32587    0.21615


Fermi level: -3.43140

No gap
Writing to output.gpw (mode='')


Forces in eV/Ang:
  0 Li    0.00545    0.00538   -0.26904
  1 Li   -0.00382    0.00191   -0.27268
  2 Li   -0.00161    0.01063   -0.26679
  3 Li    0.00120   -0.00400   -0.27109
  4 Li    0.00308    0.00308   -0.28799
  5 Li   -0.00508   -0.00177   -0.27151
  6 Li    0.00936   -0.00164   -0.26870
  7 Li   -0.00177   -0.00492   -0.27290
  8 Li   -0.00874   -0.00951   -0.26778
  9 Li   -0.00262   -0.00277    0.30723
 10 Li    0.01168    0.00155    0.25729
 11 Li   -0.00937    0.00032    0.26709
 12 Li    0.00193    0.01043    0.25850
 13 Li   -0.00308   -0.00347    0.26145
 14 Li    0.00099    0.00813    0.25441
 15 Li    0.00038   -0.00715    0.26521
 16 Li    0.00417    0.00250    0.25849
 17 Li   -0.00269   -0.00731    0.24952
 18 Li   -0.00360   -0.00136    0.03635
 19 Li    0.00754    0.00276    0.03112
 20 Li   -0.00412    0.00628    0.00540
 21 Li    0.00150    0.00658    0.02891
 22 Li   -0.00474   -0.00278    0.03513
 23 Li    0.00399    0.00573    0.04157
 24 Li    0.00374   -0.00478    0.00394
 25 Li    0.00724   -0.00019    0.04158
 26 Li   -0.00928   -0.01010   -0.01680
 27 Li    0.02909    0.01019   -1.53657
 28 Li    0.00034    0.02072   -0.00928
 29 Li   -0.02015    0.00633   -0.02258
 30 Li    0.01562   -0.00120    0.05326
 31 Li   -0.01474   -0.02669   -0.00182
 32 Li   -0.00289    0.00596   -0.02679
 33 Li    0.00656   -0.01148   -0.01217
 34 Li    0.01124   -0.00052   -0.02326
 35 Li   -0.02091   -0.01612   -0.03379
 36 O    -0.22750   -0.34339   14.58588
 37 O    -0.11119   -0.01081   -0.26739
 38 C     5.48220    3.46307    3.17685
 39 C    -0.05819    0.17757    0.87364
 40 H    -0.20365   -0.31928    0.30677
 41 H     3.64516    2.31287    1.59714
 42 H     0.02475   -0.13711   -0.08228
 43 H    -0.01761    0.17211   -0.23139
 44 H     0.63125   -1.21074    7.18038
 45 H    -0.14558    0.18644    0.10904
 46 N    -2.13616   -3.10650   -7.59001
 47 N    -6.89911   -1.14376  -18.19559

System changes: positions 

Initializing position-dependent things.

Density initialized from wave functions
       .-----------------------.  
      /|                       |  
     / |                       |  
    /  |                       |  
   /   |                       |  
  /    |                       |  
 *     |                       |  
 |     |                       |  
 |     H                       |  
 |     |                       O  
 |     |                       N  
 |     |                       |  
 |   H |                       N  
 | O C |H                H     |  
 |     |                       |  
 |  C H|                       |  
 |  HLi|     Li      Li        |  
 |     |  Li      Li      Li   |  
 | Li  |   Li      Li          |  
 |     |Li      Li      Li     |  
 Li    | Li      Li            |  
 |   LLi     LLi     LLi       |  
 |     |  Li      Li      Li   |  
 | Li  |   Li      Li          |  
 |     |Li      Li      Li     |  
 Li    | Li      Li            |  
 |    Li      Li      Li       |  
 |     |                       |  
 |     |                       |  
 |     |                       |  
 |     |                       |  
 |     |                       |  
 |     |                       |  
 |     .-----------------------.  
 |    /                       /   
 |   /                       /    
 |  /                       /     
 | /                       /      
 |/                       /       
 *-----------------------*        

Positions:
   0 Li     1.617037    1.617037   10.000000    ( 0.0000,  0.0000,  0.0000)
   1 Li     4.851111    1.617037   10.000000    ( 0.0000,  0.0000,  0.0000)
   2 Li     8.085185    1.617037   10.000000    ( 0.0000,  0.0000,  0.0000)
   3 Li     1.617037    4.851111   10.000000    ( 0.0000,  0.0000,  0.0000)
   4 Li     4.851111    4.851111   10.000000    ( 0.0000,  0.0000,  0.0000)
   5 Li     8.085185    4.851111   10.000000    ( 0.0000,  0.0000,  0.0000)
   6 Li     1.617037    8.085185   10.000000    ( 0.0000,  0.0000,  0.0000)
   7 Li     4.851111    8.085185   10.000000    ( 0.0000,  0.0000,  0.0000)
   8 Li     8.085185    8.085185   10.000000    ( 0.0000,  0.0000,  0.0000)
   9 Li     0.000000    0.000000   11.617037    ( 0.0000,  0.0000,  0.0000)
  10 Li     3.234074    0.000000   11.617037    ( 0.0000,  0.0000,  0.0000)
  11 Li     6.468148    0.000000   11.617037    ( 0.0000,  0.0000,  0.0000)
  12 Li     0.000000    3.234074   11.617037    ( 0.0000,  0.0000,  0.0000)
  13 Li     3.234074    3.234074   11.617037    ( 0.0000,  0.0000,  0.0000)
  14 Li     6.468148    3.234074   11.617037    ( 0.0000,  0.0000,  0.0000)
  15 Li     0.000000    6.468148   11.617037    ( 0.0000,  0.0000,  0.0000)
  16 Li     3.234074    6.468148   11.617037    ( 0.0000,  0.0000,  0.0000)
  17 Li     6.468148    6.468148   11.617037    ( 0.0000,  0.0000,  0.0000)
  18 Li     1.617031    1.617035   13.469802    ( 0.0000,  0.0000,  0.0000)
  19 Li     4.851126    1.617044   13.469793    ( 0.0000,  0.0000,  0.0000)
  20 Li     8.085175    1.617051   13.469739    ( 0.0000,  0.0000,  0.0000)
  21 Li     1.617042    4.851125   13.469789    ( 0.0000,  0.0000,  0.0000)
  22 Li     4.851101    4.851105   13.469802    ( 0.0000,  0.0000,  0.0000)
  23 Li     8.085192    4.851123   13.469815    ( 0.0000,  0.0000,  0.0000)
  24 Li     1.617046    8.085174   13.469736    ( 0.0000,  0.0000,  0.0000)
  25 Li     4.851126    8.085183   13.469815    ( 0.0000,  0.0000,  0.0000)
  26 Li     8.085165    8.085163   13.469693    ( 0.0000,  0.0000,  0.0000)
  27 Li     0.000060    0.000021   15.442786    ( 0.0000,  0.0000,  0.0000)
  28 Li     3.234074    0.000043   15.445920    ( 0.0000,  0.0000,  0.0000)
  29 Li     6.468107    0.000013   15.445892    ( 0.0000,  0.0000,  0.0000)
  30 Li     0.000032    3.234071   15.446048    ( 0.0000,  0.0000,  0.0000)
  31 Li     3.234046    3.234022   15.445934    ( 0.0000,  0.0000,  0.0000)
  32 Li     6.468140    3.234089   15.445883    ( 0.0000,  0.0000,  0.0000)
  33 Li     0.000013    6.468125   15.445914    ( 0.0000,  0.0000,  0.0000)
  34 Li     3.234100    6.468144   15.445890    ( 0.0000,  0.0000,  0.0000)
  35 Li     6.468103    6.468112   15.445869    ( 0.0000,  0.0000,  0.0000)
  36 O      9.701755    9.701517   19.675870    ( 0.0000,  0.0000,  0.0000)
  37 O      9.745987   12.600398   19.412702    ( 0.0000,  0.0000,  0.0000)
  38 C     10.884683   10.437889   19.240081    ( 0.0000,  0.0000,  0.0000)
  39 C     10.887005   11.840333   19.804506    ( 0.0000,  0.0000,  0.0000)
  40 H     11.787407    9.902002   19.527025    ( 0.0000,  0.0000,  0.0000)
  41 H     10.833616   10.468278   18.147273    ( 0.0000,  0.0000,  0.0000)
  42 H     11.761440   12.376405   19.426063    ( 0.0000,  0.0000,  0.0000)
  43 H     10.962589   11.790592   20.901299    ( 0.0000,  0.0000,  0.0000)
  44 H      9.778032    9.530313   20.607995    ( 0.0000,  0.0000,  0.0000)
  45 H      8.978797   12.021337   19.509913    ( 0.0000,  0.0000,  0.0000)
  46 N      9.697617    9.695625   17.180365    ( 0.0000,  0.0000,  0.0000)
  47 N      9.687843    9.699653   18.255224    ( 0.0000,  0.0000,  0.0000)

Unit cell:
           periodic     x           y           z      points  spacing
  1. axis:    yes    9.702222    0.000000    0.000000    60     0.1617
  2. axis:    yes    0.000000    9.702222    0.000000    60     0.1617
  3. axis:    no     0.000000    0.000000   26.601111   168     0.1583

  Lengths:   9.702222   9.702222  26.601111
  Angles:   90.000000  90.000000  90.000000

Effective grid spacing dv^(1/3) = 0.1606

     iter     time        total  log10-change:
                         energy  eigst   dens
iter:   1 12:38:51  -315.661716  -0.55
iter:   2 12:38:58  -315.536598  -0.71  -1.44
iter:   3 12:39:06  -315.470967  -1.21  -1.57
iter:   4 12:39:13  -315.436410  -1.10  -1.90
Writing to output.gpw (mode='')

iter:   5 12:39:21  -315.422175  -1.40  -2.09
iter:   6 12:39:28  -315.415069c -1.78  -2.14
iter:   7 12:39:36  -315.405995c -1.73  -2.18
iter:   8 12:39:48  -315.407117c -1.76  -2.43
iter:   9 12:39:56  -315.406818c -2.34  -2.56
Writing to output.gpw (mode='')

iter:  10 12:40:04  -315.406382c -2.46  -2.63
iter:  11 12:40:11  -315.406320c -3.13  -2.72
iter:  12 12:40:19  -315.406166c -3.20  -2.81
iter:  13 12:40:26  -315.406167c -3.39  -3.04
iter:  14 12:40:34  -315.406133c -3.39  -3.10
Writing to output.gpw (mode='')

iter:  15 12:40:41  -315.406141c -3.55  -3.29
iter:  16 12:40:49  -315.406147c -4.06  -3.23
iter:  17 12:40:59  -315.406159c -3.99  -3.30
iter:  18 12:41:06  -315.406171c -4.26  -3.62
iter:  19 12:41:14  -315.406178c -4.45  -3.54
Writing to output.gpw (mode='')

iter:  20 12:41:21  -315.406194c -4.68  -3.63
iter:  21 12:41:29  -315.406203c -4.58  -3.72
iter:  22 12:41:36  -315.406190c -4.83  -3.82
iter:  23 12:41:44  -315.406189c -5.05  -4.03c
iter:  24 12:41:52  -315.406194c -4.97  -4.07c
Writing to output.gpw (mode='')

iter:  25 12:42:05  -315.406192c -5.38  -4.19c
iter:  26 12:42:16  -315.406193c -5.38  -4.33c
iter:  27 12:42:24  -315.406193c -5.59  -4.38c
iter:  28 12:42:31  -315.406196c -5.53  -4.49c
iter:  29 12:42:39  -315.406196c -5.80  -4.58c
Writing to output.gpw (mode='')

iter:  30 12:42:46  -315.406195c -5.86  -4.66c
iter:  31 12:42:54  -315.406196c -6.07  -4.77c
iter:  32 12:43:01  -315.406198c -6.08  -4.84c
iter:  33 12:43:08  -315.406197c -6.17  -4.96c
iter:  34 12:43:16  -315.406197c -6.20  -5.00c
Writing to output.gpw (mode='')

iter:  35 12:43:23  -315.406197c -6.43  -5.11c
iter:  36 12:43:31  -315.406197c -6.54  -5.15c
iter:  37 12:43:38  -315.406197c -6.65  -5.32c
iter:  38 12:43:46  -315.406197c -6.62  -5.30c
iter:  39 12:43:53  -315.406197c -6.77  -5.21c
Writing to output.gpw (mode='')

iter:  40 12:44:01  -315.406197c -7.06  -5.22c
iter:  41 12:44:08  -315.406197c -6.94  -5.26c
iter:  42 12:44:16  -315.406197c -7.25  -5.22c
iter:  43 12:44:23  -315.406197c -7.32  -5.21c
iter:  44 12:44:31  -315.406198c -7.38  -5.26c
Writing to output.gpw (mode='')

iter:  45 12:44:38  -315.406198c -7.16  -5.29c
iter:  46 12:44:51  -315.406198c -7.52c -5.40c

Converged after 46 iterations.

Dipole moment: (-23.562888, -16.733356, 0.066529) |e|*Ang

Energy contributions relative to reference atoms: (reference = -16475.706344)

Kinetic:       +219.727085
Potential:     -194.724415
External:        +0.000000
XC:            -341.378993
Entropy (-ST):   -0.145007
Local:           +1.042628
--------------------------
Free energy:   -315.478701
Extrapolated:  -315.406198

Dipole-layer corrected work functions: 3.393813, 3.265921 eV

Showing only first 2 kpts
 Kpt  Band  Eigenvalues  Occupancy
  0    34     -3.57594    1.98553
  0    35     -3.50435    1.94079
  0    36     -3.16519    0.07159
  0    37     -3.08302    0.01425

  1    34     -3.38786    1.52260
  1    35     -3.31638    0.86597
  1    36     -3.29320    0.64888
  1    37     -3.23220    0.24840


Fermi level: -3.32987

No gap
Writing to output.gpw (mode='')


Forces in eV/Ang:
  0 Li    0.00592    0.00503   -0.26898
  1 Li   -0.00399    0.00090   -0.27110
  2 Li   -0.00200    0.00893   -0.26674
  3 Li    0.00033   -0.00288   -0.26991
  4 Li    0.00238    0.00299   -0.28703
  5 Li   -0.00357    0.00016   -0.27033
  6 Li    0.00819   -0.00233   -0.26909
  7 Li   -0.00110   -0.00365   -0.27229
  8 Li   -0.00799   -0.00950   -0.26830
  9 Li   -0.00189   -0.00217    0.30680
 10 Li    0.01156    0.00138    0.25599
 11 Li   -0.01026    0.00040    0.26481
 12 Li    0.00160    0.01136    0.25882
 13 Li   -0.00093   -0.00150    0.26072
 14 Li   -0.00047    0.00686    0.25546
 15 Li   -0.00028   -0.00864    0.26091
 16 Li    0.00392    0.00074    0.25766
 17 Li   -0.00219   -0.00664    0.25106
 18 Li   -0.00184   -0.00025    0.03522
 19 Li    0.00730    0.00261    0.03542
 20 Li   -0.00560    0.00689    0.00182
 21 Li    0.00158    0.00682    0.03350
 22 Li   -0.00327   -0.00226    0.03111
 23 Li    0.00253    0.00429    0.04305
 24 Li    0.00453   -0.00668    0.00148
 25 Li    0.00566   -0.00081    0.04304
 26 Li   -0.00835   -0.00973   -0.01317
 27 Li    0.03206    0.00804   -1.76418
 28 Li    0.02151    0.01872   -0.02914
 29 Li   -0.03364    0.00354   -0.03209
 30 Li    0.01531    0.01628    0.03920
 31 Li   -0.01076   -0.02286   -0.00761
 32 Li   -0.00681    0.00792   -0.02940
 33 Li    0.00354   -0.03009   -0.02622
 34 Li    0.01222   -0.00225   -0.02684
 35 Li   -0.01861   -0.01473   -0.03429
 36 O     0.46415   -0.13765   14.31979
 37 O    -0.09960   -0.02449   -0.24833
 38 C     4.13602    2.67955    3.15172
 39 C     0.12019    0.26943    0.75893
 40 H     0.06197   -0.29401    0.32583
 41 H     3.31303    2.09417    1.89043
 42 H     0.01581   -0.07099   -0.03732
 43 H    -0.01290    0.20266   -0.13382
 44 H     0.79088   -0.68515    6.41695
 45 H    -0.12614    0.13809    0.09508
 46 N    -1.76179   -2.55031   -9.43821
 47 N    -6.97179   -1.59344  -15.32958

System changes: positions 

Initializing position-dependent things.

Density initialized from wave functions
       .-----------------------.  
      /|                       |  
     / |                       |  
    /  |                       |  
   /   |                       |  
  /    |                       |  
 *     |                       |  
 |     |                       |  
 |     H                       |  
 |     O                       |  
 |     |                       N  
 |     |                       |  
 |   H |                       N  
 | O C |H                H     |  
 |     |                       |  
 |  C H|                       |  
 |  HLi|     Li      Li        |  
 |     |  Li      Li      Li   |  
 | Li  |   Li      Li          |  
 |     |Li      Li      Li     |  
 Li    | Li      Li            |  
 |   LLi     LLi     LLi       |  
 |     |  Li      Li      Li   |  
 | Li  |   Li      Li          |  
 |     |Li      Li      Li     |  
 Li    | Li      Li            |  
 |    Li      Li      Li       |  
 |     |                       |  
 |     |                       |  
 |     |                       |  
 |     |                       |  
 |     |                       |  
 |     |                       |  
 |     .-----------------------.  
 |    /                       /   
 |   /                       /    
 |  /                       /     
 | /                       /      
 |/                       /       
 *-----------------------*        

Positions:
   0 Li     1.617037    1.617037   10.000000    ( 0.0000,  0.0000,  0.0000)
   1 Li     4.851111    1.617037   10.000000    ( 0.0000,  0.0000,  0.0000)
   2 Li     8.085185    1.617037   10.000000    ( 0.0000,  0.0000,  0.0000)
   3 Li     1.617037    4.851111   10.000000    ( 0.0000,  0.0000,  0.0000)
   4 Li     4.851111    4.851111   10.000000    ( 0.0000,  0.0000,  0.0000)
   5 Li     8.085185    4.851111   10.000000    ( 0.0000,  0.0000,  0.0000)
   6 Li     1.617037    8.085185   10.000000    ( 0.0000,  0.0000,  0.0000)
   7 Li     4.851111    8.085185   10.000000    ( 0.0000,  0.0000,  0.0000)
   8 Li     8.085185    8.085185   10.000000    ( 0.0000,  0.0000,  0.0000)
   9 Li     0.000000    0.000000   11.617037    ( 0.0000,  0.0000,  0.0000)
  10 Li     3.234074    0.000000   11.617037    ( 0.0000,  0.0000,  0.0000)
  11 Li     6.468148    0.000000   11.617037    ( 0.0000,  0.0000,  0.0000)
  12 Li     0.000000    3.234074   11.617037    ( 0.0000,  0.0000,  0.0000)
  13 Li     3.234074    3.234074   11.617037    ( 0.0000,  0.0000,  0.0000)
  14 Li     6.468148    3.234074   11.617037    ( 0.0000,  0.0000,  0.0000)
  15 Li     0.000000    6.468148   11.617037    ( 0.0000,  0.0000,  0.0000)
  16 Li     3.234074    6.468148   11.617037    ( 0.0000,  0.0000,  0.0000)
  17 Li     6.468148    6.468148   11.617037    ( 0.0000,  0.0000,  0.0000)
  18 Li     1.617033    1.617039   13.469898    ( 0.0000,  0.0000,  0.0000)
  19 Li     4.851146    1.617051   13.469912    ( 0.0000,  0.0000,  0.0000)
  20 Li     8.085153    1.617073   13.469729    ( 0.0000,  0.0000,  0.0000)
  21 Li     1.617046    4.851145   13.469904    ( 0.0000,  0.0000,  0.0000)
  22 Li     4.851098    4.851101   13.469874    ( 0.0000,  0.0000,  0.0000)
  23 Li     8.085193    4.851129   13.469944    ( 0.0000,  0.0000,  0.0000)
  24 Li     1.617062    8.085147   13.469730    ( 0.0000,  0.0000,  0.0000)
  25 Li     4.851135    8.085178   13.469944    ( 0.0000,  0.0000,  0.0000)
  26 Li     8.085145    8.085137   13.469671    ( 0.0000,  0.0000,  0.0000)
  27 Li     0.000164    0.000035   15.436795    ( 0.0000,  0.0000,  0.0000)
  28 Li     3.234225    0.000088   15.445753    ( 0.0000,  0.0000,  0.0000)
  29 Li     6.467954    0.000011   15.445761    ( 0.0000,  0.0000,  0.0000)
  30 Li     0.000074    3.234191   15.446101    ( 0.0000,  0.0000,  0.0000)
  31 Li     3.234032    3.233972   15.445888    ( 0.0000,  0.0000,  0.0000)
  32 Li     6.468104    3.234119   15.445788    ( 0.0000,  0.0000,  0.0000)
  33 Li     0.000011    6.467961   15.445780    ( 0.0000,  0.0000,  0.0000)
  34 Li     3.234139    6.468131   15.445799    ( 0.0000,  0.0000,  0.0000)
  35 Li     6.468059    6.468076   15.445769    ( 0.0000,  0.0000,  0.0000)
  36 O      9.705980    9.701987   19.715643    ( 0.0000,  0.0000,  0.0000)
  37 O      9.745752   12.600271   19.412072    ( 0.0000,  0.0000,  0.0000)
  38 C     10.890850   10.442256   19.248975    ( 0.0000,  0.0000,  0.0000)
  39 C     10.888096   11.841487   19.806192    ( 0.0000,  0.0000,  0.0000)
  40 H     11.788697    9.901268   19.528035    ( 0.0000,  0.0000,  0.0000)
  41 H     10.841683   10.473341   18.153900    ( 0.0000,  0.0000,  0.0000)
  42 H     11.761448   12.376480   19.426145    ( 0.0000,  0.0000,  0.0000)
  43 H     10.962572   11.791298   20.901326    ( 0.0000,  0.0000,  0.0000)
  44 H      9.780960    9.530560   20.623117    ( 0.0000,  0.0000,  0.0000)
  45 H      8.978518   12.021528   19.510126    ( 0.0000,  0.0000,  0.0000)
  46 N      9.694155    9.690675   17.145667    ( 0.0000,  0.0000,  0.0000)
  47 N      9.667631    9.693218   18.223467    ( 0.0000,  0.0000,  0.0000)

Unit cell:
           periodic     x           y           z      points  spacing
  1. axis:    yes    9.702222    0.000000    0.000000    60     0.1617
  2. axis:    yes    0.000000    9.702222    0.000000    60     0.1617
  3. axis:    no     0.000000    0.000000   26.601111   168     0.1583

  Lengths:   9.702222   9.702222  26.601111
  Angles:   90.000000  90.000000  90.000000

Effective grid spacing dv^(1/3) = 0.1606

     iter     time        total  log10-change:
                         energy  eigst   dens
iter:   1 12:45:00  -317.195238  -0.53
iter:   2 12:45:08  -317.147781  -0.85  -1.59
iter:   3 12:45:15  -317.116581  -1.40  -1.71
iter:   4 12:45:22  -317.130637c -1.54  -2.06
Writing to output.gpw (mode='')

iter:   5 12:45:30  -317.092415  -1.21  -2.01
iter:   6 12:45:38  -317.093278  -1.90  -1.98
iter:   7 12:45:45  -317.089506c -2.41  -1.99
iter:   8 12:45:52  -317.081650c -1.70  -2.06
iter:   9 12:46:00  -317.093419c -1.50  -2.42
Writing to output.gpw (mode='')

iter:  10 12:46:07  -317.091959c -2.13  -2.27
iter:  11 12:46:15  -317.093099c -2.29  -2.30
iter:  12 12:46:22  -317.084701c -2.50  -2.29
iter:  13 12:46:30  -317.083310c -2.64  -2.43
iter:  14 12:46:37  -317.083826c -2.45  -2.48
Writing to output.gpw (mode='')

iter:  15 12:46:45  -317.083462c -2.55  -2.31
iter:  16 12:46:52  -317.082337c -2.19  -2.34
iter:  17 12:47:00  -317.081046c -2.30  -2.54
iter:  18 12:47:07  -317.081106c -3.02  -2.93
iter:  19 12:47:15  -317.081026c -3.31  -3.01
Writing to output.gpw (mode='')

iter:  20 12:47:22  -317.081015c -3.50  -3.09
iter:  21 12:47:30  -317.081016c -3.59  -3.28
iter:  22 12:47:37  -317.081004c -4.00  -3.38
iter:  23 12:47:45  -317.081005c -4.25  -3.43
iter:  24 12:47:52  -317.081022c -4.51  -3.50
Writing to output.gpw (mode='')

iter:  25 12:48:00  -317.081023c -4.60  -3.53
iter:  26 12:48:07  -317.081018c -4.55  -3.63
iter:  27 12:48:15  -317.081010c -5.12  -3.79
iter:  28 12:48:22  -317.081012c -5.24  -3.89
iter:  29 12:48:30  -317.081010c -5.48  -3.90
Writing to output.gpw (mode='')

iter:  30 12:48:37  -317.081014c -5.65  -3.98
iter:  31 12:48:45  -317.081010c -5.58  -4.03c
iter:  32 12:48:52  -317.081009c -5.59  -4.17c
iter:  33 12:49:00  -317.081009c -6.13  -4.28c
iter:  34 12:49:07  -317.081011c -6.06  -4.30c
Writing to output.gpw (mode='')

iter:  35 12:49:15  -317.081011c -6.26  -4.51c
iter:  36 12:49:22  -317.081010c -6.38  -4.65c
iter:  37 12:49:30  -317.081010c -6.67  -4.66c
iter:  38 12:49:37  -317.081011c -6.58  -4.65c
iter:  39 12:49:52  -317.081010c -6.73  -4.60c
Writing to output.gpw (mode='')

iter:  40 12:49:59  -317.081011c -7.06  -4.52c
iter:  41 12:50:06  -317.081011c -6.98  -4.57c
iter:  42 12:50:14  -317.081012c -7.02  -4.59c
iter:  43 12:50:21  -317.081012c -7.03  -4.74c
iter:  44 12:50:29  -317.081013c -6.97  -4.87c
Writing to output.gpw (mode='')

iter:  45 12:50:36  -317.081011c -7.23  -4.90c
iter:  46 12:50:43  -317.081011c -7.21  -5.10c
iter:  47 12:50:51  -317.081012c -7.41c -5.35c

Converged after 47 iterations.

Dipole moment: (-21.546331, -15.575792, 0.185875) |e|*Ang

Energy contributions relative to reference atoms: (reference = -16475.706344)

Kinetic:       +216.386932
Potential:     -193.135447
External:        +0.000000
XC:            -341.313523
Entropy (-ST):   -0.144766
Local:           +1.053409
--------------------------
Free energy:   -317.153395
Extrapolated:  -317.081012

Dipole-layer corrected work functions: 3.392259, 3.034944 eV

Showing only first 2 kpts
 Kpt  Band  Eigenvalues  Occupancy
  0    34     -3.46053    1.98577
  0    35     -3.38942    1.94230
  0    36     -3.04763    0.06981
  0    37     -2.96666    0.01422

  1    34     -3.26999    1.51087
  1    35     -3.20035    0.86823
  1    36     -3.17787    0.65719
  1    37     -3.11697    0.25293


Fermi level: -3.21360

No gap
Writing to output.gpw (mode='')


Forces in eV/Ang:
  0 Li    0.00619    0.00504   -0.26909
  1 Li   -0.00407    0.00055   -0.27048
  2 Li   -0.00219    0.00871   -0.26677
  3 Li   -0.00017   -0.00247   -0.26938
  4 Li    0.00217    0.00284   -0.28683
  5 Li   -0.00296    0.00060   -0.26990
  6 Li    0.00788   -0.00268   -0.26933
  7 Li   -0.00114   -0.00315   -0.27188
  8 Li   -0.00765   -0.00968   -0.26844
  9 Li   -0.00158   -0.00189    0.30765
 10 Li    0.01126    0.00128    0.25625
 11 Li   -0.01042    0.00040    0.26488
 12 Li    0.00149    0.01160    0.25932
 13 Li    0.00011   -0.00079    0.26048
 14 Li   -0.00131    0.00644    0.25582
 15 Li   -0.00051   -0.00921    0.25979
 16 Li    0.00403    0.00007    0.25757
 17 Li   -0.00203   -0.00625    0.25189
 18 Li   -0.00033    0.00149    0.03177
 19 Li    0.00717    0.00231    0.03714
 20 Li   -0.00707    0.00814   -0.00171
 21 Li    0.00166    0.00658    0.03494
 22 Li   -0.00286   -0.00199    0.02987
 23 Li    0.00212    0.00366    0.04374
 24 Li    0.00544   -0.00865   -0.00142
 25 Li    0.00530   -0.00082    0.04371
 26 Li   -0.00859   -0.01039   -0.01404
 27 Li    0.04477    0.01518   -2.15190
 28 Li    0.02653    0.01762   -0.03360
 29 Li   -0.03675    0.00275   -0.03416
 30 Li    0.01511    0.01968    0.03560
 31 Li   -0.00847   -0.02076   -0.01017
 32 Li   -0.00877    0.00937   -0.03100
 33 Li    0.00284   -0.03450   -0.03000
 34 Li    0.01278   -0.00318   -0.02845
 35 Li   -0.01863   -0.01527   -0.03494
 36 O     0.86321    0.32355   11.72586
 37 O    -0.06390   -0.03270   -0.21218
 38 C     3.21384    2.06192    2.99094
 39 C     0.16836    0.31162    0.64814
 40 H     0.21870   -0.24667    0.32430
 41 H     2.86912    1.80900    1.94707
 42 H     0.03394   -0.01100   -0.01533
 43 H    -0.00434    0.22659   -0.03452
 44 H     0.96569   -0.53640    6.23804
 45 H    -0.10964    0.09687    0.07769
 46 N    -1.28472   -1.95648   -7.74174
 47 N    -6.87299   -1.96701  -13.73901

System changes: positions 

Initializing position-dependent things.

Density initialized from wave functions
       .-----------------------.  
      /|                       |  
     / |                       |  
    /  |                       |  
   /   |                       |  
  /    |                       |  
 *     |                       |  
 |     H                       |  
 |     |                       |  
 |     |                       |  
 |     |                       N  
 |     |                       |  
 |   H |                       N  
 | O C |H                H     |  
 |     |                       |  
 O  C H|                       |  
 |  HLi|     Li      Li        |  
 |     |  Li      Li      Li   |  
 | Li  |   Li      Li          |  
 |     |Li      Li      Li     |  
 Li    | Li      Li            |  
 |   LLi     LLi     LLi       |  
 |     |  Li      Li      Li   |  
 | Li  |   Li      Li          |  
 |     |Li      Li      Li     |  
 Li    | Li      Li            |  
 |    Li      Li      Li       |  
 |     |                       |  
 |     |                       |  
 |     |                       |  
 |     |                       |  
 |     |                       |  
 |     |                       |  
 |     .-----------------------.  
 |    /                       /   
 |   /                       /    
 |  /                       /     
 | /                       /      
 |/                       /       
 *-----------------------*        

Positions:
   0 Li     1.617037    1.617037   10.000000    ( 0.0000,  0.0000,  0.0000)
   1 Li     4.851111    1.617037   10.000000    ( 0.0000,  0.0000,  0.0000)
   2 Li     8.085185    1.617037   10.000000    ( 0.0000,  0.0000,  0.0000)
   3 Li     1.617037    4.851111   10.000000    ( 0.0000,  0.0000,  0.0000)
   4 Li     4.851111    4.851111   10.000000    ( 0.0000,  0.0000,  0.0000)
   5 Li     8.085185    4.851111   10.000000    ( 0.0000,  0.0000,  0.0000)
   6 Li     1.617037    8.085185   10.000000    ( 0.0000,  0.0000,  0.0000)
   7 Li     4.851111    8.085185   10.000000    ( 0.0000,  0.0000,  0.0000)
   8 Li     8.085185    8.085185   10.000000    ( 0.0000,  0.0000,  0.0000)
   9 Li     0.000000    0.000000   11.617037    ( 0.0000,  0.0000,  0.0000)
  10 Li     3.234074    0.000000   11.617037    ( 0.0000,  0.0000,  0.0000)
  11 Li     6.468148    0.000000   11.617037    ( 0.0000,  0.0000,  0.0000)
  12 Li     0.000000    3.234074   11.617037    ( 0.0000,  0.0000,  0.0000)
  13 Li     3.234074    3.234074   11.617037    ( 0.0000,  0.0000,  0.0000)
  14 Li     6.468148    3.234074   11.617037    ( 0.0000,  0.0000,  0.0000)
  15 Li     0.000000    6.468148   11.617037    ( 0.0000,  0.0000,  0.0000)
  16 Li     3.234074    6.468148   11.617037    ( 0.0000,  0.0000,  0.0000)
  17 Li     6.468148    6.468148   11.617037    ( 0.0000,  0.0000,  0.0000)
  18 Li     1.617048    1.617060   13.469987    ( 0.0000,  0.0000,  0.0000)
  19 Li     4.851171    1.617057   13.470075    ( 0.0000,  0.0000,  0.0000)
  20 Li     8.085112    1.617114   13.469687    ( 0.0000,  0.0000,  0.0000)
  21 Li     1.617053    4.851168   13.470057    ( 0.0000,  0.0000,  0.0000)
  22 Li     4.851096    4.851097   13.469961    ( 0.0000,  0.0000,  0.0000)
  23 Li     8.085193    4.851133   13.470113    ( 0.0000,  0.0000,  0.0000)
  24 Li     1.617091    8.085096   13.469696    ( 0.0000,  0.0000,  0.0000)
  25 Li     4.851147    8.085173   13.470113    ( 0.0000,  0.0000,  0.0000)
  26 Li     8.085115    8.085096   13.469626    ( 0.0000,  0.0000,  0.0000)
  27 Li     0.000424    0.000131   15.425525    ( 0.0000,  0.0000,  0.0000)
  28 Li     3.234429    0.000138   15.445532    ( 0.0000,  0.0000,  0.0000)
  29 Li     6.467752    0.000006   15.445589    ( 0.0000,  0.0000,  0.0000)
  30 Li     0.000127    3.234346   15.446158    ( 0.0000,  0.0000,  0.0000)
  31 Li     3.234031    3.233924   15.445814    ( 0.0000,  0.0000,  0.0000)
  32 Li     6.468045    3.234170   15.445655    ( 0.0000,  0.0000,  0.0000)
  33 Li     0.000006    6.467741   15.445596    ( 0.0000,  0.0000,  0.0000)
  34 Li     3.234192    6.468107   15.445672    ( 0.0000,  0.0000,  0.0000)
  35 Li     6.467999    6.468022   15.445635    ( 0.0000,  0.0000,  0.0000)
  36 O      9.714231    9.707009   19.739897    ( 0.0000,  0.0000,  0.0000)
  37 O      9.745801   12.600048   19.411610    ( 0.0000,  0.0000,  0.0000)
  38 C     10.891658   10.442875   19.258709    ( 0.0000,  0.0000,  0.0000)
  39 C     10.889654   11.843228   19.807408    ( 0.0000,  0.0000,  0.0000)
  40 H     11.791478    9.900777   19.529274    ( 0.0000,  0.0000,  0.0000)
  41 H     10.847989   10.477249   18.162403    ( 0.0000,  0.0000,  0.0000)
  42 H     11.761664   12.377076   19.426394    ( 0.0000,  0.0000,  0.0000)
  43 H     10.962631   11.792393   20.902212    ( 0.0000,  0.0000,  0.0000)
  44 H      9.786222    9.531431   20.642020    ( 0.0000,  0.0000,  0.0000)
  45 H      8.978297   12.021435   19.510243    ( 0.0000,  0.0000,  0.0000)
  46 N      9.694002    9.689492   17.122541    ( 0.0000,  0.0000,  0.0000)
  47 N      9.642975    9.681950   18.194054    ( 0.0000,  0.0000,  0.0000)

Unit cell:
           periodic     x           y           z      points  spacing
  1. axis:    yes    9.702222    0.000000    0.000000    60     0.1617
  2. axis:    yes    0.000000    9.702222    0.000000    60     0.1617
  3. axis:    no     0.000000    0.000000   26.601111   168     0.1583

  Lengths:   9.702222   9.702222  26.601111
  Angles:   90.000000  90.000000  90.000000

Effective grid spacing dv^(1/3) = 0.1606

     iter     time        total  log10-change:
                         energy  eigst   dens
iter:   1 12:51:00  -318.438549  -0.79
iter:   2 12:51:07  -318.359266  -0.97  -1.58
iter:   3 12:51:15  -318.321698  -1.62  -1.72
iter:   4 12:51:22  -318.309532  -1.20  -2.19
Writing to output.gpw (mode='')

iter:   5 12:51:30  -318.309341c -1.78  -2.24
iter:   6 12:51:37  -318.308873c -2.01  -2.36
iter:   7 12:51:45  -318.308843c -1.83  -2.45
iter:   8 12:51:52  -318.307208c -2.40  -2.60
iter:   9 12:52:00  -318.307325c -2.48  -2.74
Writing to output.gpw (mode='')

iter:  10 12:52:07  -318.307893c -2.72  -2.78
iter:  11 12:52:15  -318.307569c -3.14  -2.90
iter:  12 12:52:22  -318.307557c -3.11  -2.98
iter:  13 12:52:30  -318.307555c -3.61  -3.01
iter:  14 12:52:37  -318.307503c -3.50  -3.03
Writing to output.gpw (mode='')

iter:  15 12:52:45  -318.307505c -3.59  -3.19
iter:  16 12:52:52  -318.307410c -3.93  -3.27
iter:  17 12:53:00  -318.307423c -3.80  -3.47
iter:  18 12:53:07  -318.307430c -4.65  -3.52
iter:  19 12:53:15  -318.307440c -4.75  -3.69
Writing to output.gpw (mode='')

iter:  20 12:53:22  -318.307435c -4.72  -3.82
iter:  21 12:53:30  -318.307435c -4.86  -3.89
iter:  22 12:53:37  -318.307434c -5.11  -3.95
iter:  23 12:53:44  -318.307434c -5.60  -4.00
iter:  24 12:53:52  -318.307431c -5.56  -4.02c
Writing to output.gpw (mode='')

iter:  25 12:54:00  -318.307429c -5.32  -4.09c
iter:  26 12:54:07  -318.307432c -5.55  -4.08c
iter:  27 12:54:15  -318.307433c -5.68  -4.26c
iter:  28 12:54:22  -318.307433c -5.92  -4.36c
iter:  29 12:54:30  -318.307434c -6.25  -4.51c
Writing to output.gpw (mode='')

iter:  30 12:54:37  -318.307435c -6.26  -4.56c
iter:  31 12:54:50  -318.307435c -6.31  -4.72c
iter:  32 12:54:58  -318.307435c -6.57  -4.78c
iter:  33 12:55:05  -318.307434c -6.54  -4.87c
iter:  34 12:55:13  -318.307435c -6.97  -4.96c
Writing to output.gpw (mode='')

iter:  35 12:55:20  -318.307435c -6.82  -5.06c
iter:  36 12:55:28  -318.307435c -7.20  -5.13c
iter:  37 12:55:35  -318.307435c -7.17  -5.22c
iter:  38 12:55:43  -318.307435c -7.40c -5.32c

Converged after 38 iterations.

Dipole moment: (-19.735927, -14.722707, 0.240126) |e|*Ang

Energy contributions relative to reference atoms: (reference = -16475.706344)

Kinetic:       +213.845611
Potential:     -191.902769
External:        +0.000000
XC:            -341.236469
Entropy (-ST):   -0.144500
Local:           +1.058442
--------------------------
Free energy:   -318.379685
Extrapolated:  -318.307435

Dipole-layer corrected work functions: 3.391922, 2.930317 eV

Showing only first 2 kpts
 Kpt  Band  Eigenvalues  Occupancy
  0    34     -3.40864    1.98594
  0    35     -3.33778    1.94324
  0    36     -2.99395    0.06823
  0    37     -2.91412    0.01421

  1    34     -3.21666    1.50457
  1    35     -3.14766    0.86618
  1    36     -3.12702    0.67160
  1    37     -3.06454    0.25315


Fermi level: -3.16112

No gap
Writing to output.gpw (mode='')


Forces in eV/Ang:
  0 Li    0.00640    0.00514   -0.26932
  1 Li   -0.00416    0.00031   -0.27010
  2 Li   -0.00237    0.00857   -0.26687
  3 Li   -0.00049   -0.00237   -0.26904
  4 Li    0.00199    0.00264   -0.28697
  5 Li   -0.00258    0.00090   -0.26969
  6 Li    0.00769   -0.00290   -0.26946
  7 Li   -0.00100   -0.00278   -0.27156
  8 Li   -0.00750   -0.00975   -0.26856
  9 Li   -0.00127   -0.00169    0.30874
 10 Li    0.01104    0.00125    0.25651
 11 Li   -0.01072    0.00036    0.26466
 12 Li    0.00140    0.01165    0.25955
 13 Li    0.00097   -0.00004    0.26003
 14 Li   -0.00188    0.00612    0.25572
 15 Li   -0.00065   -0.00961    0.25920
 16 Li    0.00414   -0.00056    0.25722
 17 Li   -0.00211   -0.00601    0.25236
 18 Li    0.00164    0.00369    0.02830
 19 Li    0.00706    0.00234    0.03800
 20 Li   -0.00884    0.00947   -0.00427
 21 Li    0.00183    0.00639    0.03551
 22 Li   -0.00263   -0.00182    0.02931
 23 Li    0.00182    0.00297    0.04369
 24 Li    0.00683   -0.01080   -0.00389
 25 Li    0.00470   -0.00096    0.04373
 26 Li   -0.00929   -0.01111   -0.01348
 27 Li    0.05994    0.02488   -2.34222
 28 Li    0.03006    0.01692   -0.03670
 29 Li   -0.03931    0.00189   -0.03726
 30 Li    0.01508    0.02256    0.03291
 31 Li   -0.00735   -0.01958   -0.01187
 32 Li   -0.00975    0.00981   -0.03174
 33 Li    0.00209   -0.03706   -0.03322
 34 Li    0.01273   -0.00349   -0.02912
 35 Li   -0.01770   -0.01453   -0.03480
 36 O     0.98912    0.51788    9.87114
 37 O    -0.04947   -0.03431   -0.19772
 38 C     2.83145    1.76037    2.74088
 39 C     0.16889    0.29171    0.61929
 40 H     0.26016   -0.18311    0.31974
 41 H     2.51085    1.57982    2.01859
 42 H     0.06097    0.03341   -0.01563
 43 H     0.00562    0.24932    0.00846
 44 H     1.05664   -0.36909    5.57844
 45 H    -0.08847    0.07702    0.07378
 46 N    -0.93045   -1.60062   -7.71464
 47 N    -6.84237   -2.29672  -10.88038

System changes: positions 

Initializing position-dependent things.

Density initialized from wave functions
       .-----------------------.  
      /|                       |  
     / |                       |  
    /  |                       |  
   /   |                       |  
  /    |                       |  
 *     |                       |  
 |     H                       |  
 |     |                       |  
 |     |                       |  
 |     |                       N  
 |     |                       |  
 |   H |                       N  
 | O C |H                H     |  
 O     |                       |  
 |  C H|                       |  
 |  HLi|     Li      Li        |  
 |     |  Li      Li      Li   |  
 | Li  |   Li      Li          |  
 |     |Li      Li      Li     |  
 Li    | Li      Li            |  
 |   LLi     LLi     LLi       |  
 |     |  Li      Li      Li   |  
 | Li  |   Li      Li          |  
 |     |Li      Li      Li     |  
 Li    | Li      Li            |  
 |    Li      Li      Li       |  
 |     |                       |  
 |     |                       |  
 |     |                       |  
 |     |                       |  
 |     |                       |  
 |     |                       |  
 |     .-----------------------.  
 |    /                       /   
 |   /                       /    
 |  /                       /     
 | /                       /      
 |/                       /       
 *-----------------------*        

Positions:
   0 Li     1.617037    1.617037   10.000000    ( 0.0000,  0.0000,  0.0000)
   1 Li     4.851111    1.617037   10.000000    ( 0.0000,  0.0000,  0.0000)
   2 Li     8.085185    1.617037   10.000000    ( 0.0000,  0.0000,  0.0000)
   3 Li     1.617037    4.851111   10.000000    ( 0.0000,  0.0000,  0.0000)
   4 Li     4.851111    4.851111   10.000000    ( 0.0000,  0.0000,  0.0000)
   5 Li     8.085185    4.851111   10.000000    ( 0.0000,  0.0000,  0.0000)
   6 Li     1.617037    8.085185   10.000000    ( 0.0000,  0.0000,  0.0000)
   7 Li     4.851111    8.085185   10.000000    ( 0.0000,  0.0000,  0.0000)
   8 Li     8.085185    8.085185   10.000000    ( 0.0000,  0.0000,  0.0000)
   9 Li     0.000000    0.000000   11.617037    ( 0.0000,  0.0000,  0.0000)
  10 Li     3.234074    0.000000   11.617037    ( 0.0000,  0.0000,  0.0000)
  11 Li     6.468148    0.000000   11.617037    ( 0.0000,  0.0000,  0.0000)
  12 Li     0.000000    3.234074   11.617037    ( 0.0000,  0.0000,  0.0000)
  13 Li     3.234074    3.234074   11.617037    ( 0.0000,  0.0000,  0.0000)
  14 Li     6.468148    3.234074   11.617037    ( 0.0000,  0.0000,  0.0000)
  15 Li     0.000000    6.468148   11.617037    ( 0.0000,  0.0000,  0.0000)
  16 Li     3.234074    6.468148   11.617037    ( 0.0000,  0.0000,  0.0000)
  17 Li     6.468148    6.468148   11.617037    ( 0.0000,  0.0000,  0.0000)
  18 Li     1.617078    1.617103   13.470074    ( 0.0000,  0.0000,  0.0000)
  19 Li     4.851202    1.617066   13.470267    ( 0.0000,  0.0000,  0.0000)
  20 Li     8.085050    1.617174   13.469628    ( 0.0000,  0.0000,  0.0000)
  21 Li     1.617063    4.851195   13.470234    ( 0.0000,  0.0000,  0.0000)
  22 Li     4.851088    4.851092   13.470085    ( 0.0000,  0.0000,  0.0000)
  23 Li     8.085196    4.851138   13.470319    ( 0.0000,  0.0000,  0.0000)
  24 Li     1.617138    8.085019   13.469644    ( 0.0000,  0.0000,  0.0000)
  25 Li     4.851162    8.085167   13.470319    ( 0.0000,  0.0000,  0.0000)
  26 Li     8.085066    8.085036   13.469564    ( 0.0000,  0.0000,  0.0000)
  27 Li     0.000881    0.000355   15.411110    ( 0.0000,  0.0000,  0.0000)
  28 Li     3.234626    0.000204   15.445310    ( 0.0000,  0.0000,  0.0000)
  29 Li     6.467532    0.000004   15.445381    ( 0.0000,  0.0000,  0.0000)
  30 Li     0.000196    3.234495   15.446267    ( 0.0000,  0.0000,  0.0000)
  31 Li     3.234018    3.233855   15.445731    ( 0.0000,  0.0000,  0.0000)
  32 Li     6.467981    3.234227   15.445493    ( 0.0000,  0.0000,  0.0000)
  33 Li     0.000006    6.467522   15.445395    ( 0.0000,  0.0000,  0.0000)
  34 Li     3.234254    6.468083   15.445522    ( 0.0000,  0.0000,  0.0000)
  35 Li     6.467924    6.467957   15.445471    ( 0.0000,  0.0000,  0.0000)
  36 O      9.722100    9.713413   19.757815    ( 0.0000,  0.0000,  0.0000)
  37 O      9.745877   12.599829   19.411004    ( 0.0000,  0.0000,  0.0000)
  38 C     10.896564   10.445235   19.268704    ( 0.0000,  0.0000,  0.0000)
  39 C     10.890752   11.844693   19.809423    ( 0.0000,  0.0000,  0.0000)
  40 H     11.793916    9.900654   19.530717    ( 0.0000,  0.0000,  0.0000)
  41 H     10.854494   10.481280   18.172645    ( 0.0000,  0.0000,  0.0000)
  42 H     11.762238   12.377898   19.426453    ( 0.0000,  0.0000,  0.0000)
  43 H     10.962777   11.793850   20.903135    ( 0.0000,  0.0000,  0.0000)
  44 H      9.792775    9.531878   20.661933    ( 0.0000,  0.0000,  0.0000)
  45 H      8.978136   12.021408   19.510456    ( 0.0000,  0.0000,  0.0000)
  46 N      9.694977    9.688071   17.096011    ( 0.0000,  0.0000,  0.0000)
  47 N      9.612059    9.666772   18.173711    ( 0.0000,  0.0000,  0.0000)

Unit cell:
           periodic     x           y           z      points  spacing
  1. axis:    yes    9.702222    0.000000    0.000000    60     0.1617
  2. axis:    yes    0.000000    9.702222    0.000000    60     0.1617
  3. axis:    no     0.000000    0.000000   26.601111   168     0.1583

  Lengths:   9.702222   9.702222  26.601111
  Angles:   90.000000  90.000000  90.000000

Effective grid spacing dv^(1/3) = 0.1606

     iter     time        total  log10-change:
                         energy  eigst   dens
iter:   1 12:55:52  -319.372018  -0.86
iter:   2 12:56:00  -319.369843  -1.39  -1.97
iter:   3 12:56:07  -319.366062c -1.86  -2.08
iter:   4 12:56:15  -319.359041c -1.75  -2.39
Writing to output.gpw (mode='')

iter:   5 12:56:22  -319.360843c -1.40  -2.55
iter:   6 12:56:30  -319.364295c -1.77  -2.47
iter:   7 12:56:37  -319.363773c -2.19  -2.37
iter:   8 12:56:45  -319.359846c -2.37  -2.45
iter:   9 12:56:55  -319.359083c -2.46  -2.70
Writing to output.gpw (mode='')

iter:  10 12:57:02  -319.359307c -3.26  -2.78
iter:  11 12:57:10  -319.361732c -2.18  -2.78
iter:  12 12:57:17  -319.358711c -2.20  -2.50
iter:  13 12:57:25  -319.358862c -2.70  -2.99
iter:  14 12:57:32  -319.358827c -3.28  -3.03
Writing to output.gpw (mode='')

iter:  15 12:57:40  -319.358749c -3.90  -3.22
iter:  16 12:57:47  -319.358720c -3.11  -3.31
iter:  17 12:57:55  -319.358699c -4.11  -3.24
iter:  18 12:58:02  -319.358706c -4.38  -3.34
iter:  19 12:58:10  -319.358721c -4.88  -3.47
Writing to output.gpw (mode='')

iter:  20 12:58:17  -319.358768c -4.10  -3.68
iter:  21 12:58:25  -319.358765c -3.59  -3.55
iter:  22 12:58:32  -319.358729c -4.77  -3.45
iter:  23 12:58:40  -319.358735c -4.08  -3.66
iter:  24 12:58:47  -319.358717c -4.75  -3.77
Writing to output.gpw (mode='')

iter:  25 12:58:55  -319.358717c -4.79  -3.99
iter:  26 12:59:02  -319.358718c -5.45  -4.06c
iter:  27 12:59:10  -319.358717c -5.42  -4.16c
iter:  28 12:59:17  -319.358716c -5.53  -4.28c
iter:  29 12:59:25  -319.358715c -6.08  -4.43c
Writing to output.gpw (mode='')

iter:  30 12:59:32  -319.358716c -6.25  -4.49c
iter:  31 12:59:40  -319.358716c -6.76  -4.51c
iter:  32 12:59:54  -319.358717c -6.67  -4.56c
iter:  33 13:00:02  -319.358717c -6.59  -4.72c
iter:  34 13:00:09  -319.358717c -6.82  -4.83c
Writing to output.gpw (mode='')

iter:  35 13:00:17  -319.358717c -7.08  -4.87c
iter:  36 13:00:24  -319.358717c -7.23  -4.90c
iter:  37 13:00:31  -319.358718c -7.25  -5.10c
iter:  38 13:00:39  -319.358718c -7.72c -5.24c

Converged after 38 iterations.

Dipole moment: (-17.485237, -13.504950, 0.260142) |e|*Ang

Energy contributions relative to reference atoms: (reference = -16475.706344)

Kinetic:       +209.145686
Potential:     -188.838993
External:        +0.000000
XC:            -340.658786
Entropy (-ST):   -0.144163
Local:           +1.065457
--------------------------
Free energy:   -319.430799
Extrapolated:  -319.358718

Dipole-layer corrected work functions: 3.392503, 2.892421 eV

Showing only first 2 kpts
 Kpt  Band  Eigenvalues  Occupancy
  0    34     -3.39021    1.98600
  0    35     -3.32015    1.94436
  0    36     -2.97380    0.06628
  0    37     -2.89732    0.01474

  1    34     -3.19756    1.50129
  1    35     -3.12852    0.86150
  1    36     -3.11021    0.68824
  1    37     -3.04379    0.24405


Fermi level: -3.14246

No gap
Writing to output.gpw (mode='')


Forces in eV/Ang:
  0 Li    0.00666    0.00539   -0.26977
  1 Li   -0.00428    0.00006   -0.26973
  2 Li   -0.00258    0.00869   -0.26709
  3 Li   -0.00083   -0.00239   -0.26867
  4 Li    0.00185    0.00251   -0.28748
  5 Li   -0.00230    0.00108   -0.26955
  6 Li    0.00775   -0.00318   -0.26974
  7 Li   -0.00091   -0.00251   -0.27128
  8 Li   -0.00757   -0.00998   -0.26878
  9 Li   -0.00092   -0.00157    0.31070
 10 Li    0.01072    0.00128    0.25710
 11 Li   -0.01104    0.00035    0.26473
 12 Li    0.00131    0.01175    0.25982
 13 Li    0.00179    0.00075    0.25957
 14 Li   -0.00241    0.00586    0.25552
 15 Li   -0.00078   -0.00998    0.25909
 16 Li    0.00453   -0.00125    0.25671
 17 Li   -0.00241   -0.00581    0.25257
 18 Li    0.00414    0.00676    0.02254
 19 Li    0.00693    0.00228    0.03885
 20 Li   -0.01108    0.01125   -0.00835
 21 Li    0.00192    0.00637    0.03600
 22 Li   -0.00247   -0.00182    0.02918
 23 Li    0.00174    0.00251    0.04370
 24 Li    0.00891   -0.01385   -0.00872
 25 Li    0.00413   -0.00081    0.04409
 26 Li   -0.01067   -0.01243   -0.01520
 27 Li    0.07880    0.03750   -2.51560
 28 Li    0.02967    0.01635   -0.03588
 29 Li   -0.03824    0.00131   -0.03736
 30 Li    0.01497    0.02158    0.03433
 31 Li   -0.00600   -0.01799   -0.01325
 32 Li   -0.01082    0.01066   -0.03235
 33 Li    0.00160   -0.03539   -0.03286
 34 Li    0.01334   -0.00438   -0.02981
 35 Li   -0.01768   -0.01461   -0.03490
 36 O     1.12601    0.62492    8.64811
 37 O    -0.03041   -0.05003   -0.18481
 38 C     2.32706    1.48216    2.35571
 39 C     0.22231    0.34054    0.58577
 40 H     0.36779   -0.17106    0.35656
 41 H     2.12652    1.33480    1.96521
 42 H     0.06121    0.06340    0.00059
 43 H     0.01118    0.27163    0.06199
 44 H     1.09347   -0.22893    4.79083
 45 H    -0.07276    0.06058    0.07045
 46 N    -0.64126   -1.31309   -5.75050
 47 N    -6.66170   -2.37087  -10.36678

System changes: positions 

Initializing position-dependent things.

Density initialized from wave functions
       .-----------------------.  
      /|                       |  
     / |                       |  
    /  |                       |  
   /   |                       |  
  /    |                       |  
 *     |                       |  
 |     H                       |  
 |     |                       |  
 |     |                       |  
 |     |                       |  
 |     |                       N  
 |   H |                       N  
 | O C |H                H     |  
 O     |               Li      |  
 |  C H|                       |  
 |  H  |     Li      Li      Li|  
 |     |  Li      Li      Li   |  
 | Li  |   Li      Li          |  
 |     |Li      Li      Li     |  
 Li    | Li                    |  
 |   LLi     LLi     LLi       |  
 |     |  Li      Li      Li   |  
 | Li  |   Li      Li          |  
 |     |Li      Li      Li     |  
 Li    | Li      Li            |  
 |    Li      Li      Li       |  
 |     |                       |  
 |     |                       |  
 |     |                       |  
 |     |                       |  
 |     |                       |  
 |     |                       |  
 |     .-----------------------.  
 |    /                       /   
 |   /                       /    
 |  /                       /     
 | /                       /      
 |/                       /       
 *-----------------------*        

Positions:
   0 Li     1.617037    1.617037   10.000000    ( 0.0000,  0.0000,  0.0000)
   1 Li     4.851111    1.617037   10.000000    ( 0.0000,  0.0000,  0.0000)
   2 Li     8.085185    1.617037   10.000000    ( 0.0000,  0.0000,  0.0000)
   3 Li     1.617037    4.851111   10.000000    ( 0.0000,  0.0000,  0.0000)
   4 Li     4.851111    4.851111   10.000000    ( 0.0000,  0.0000,  0.0000)
   5 Li     8.085185    4.851111   10.000000    ( 0.0000,  0.0000,  0.0000)
   6 Li     1.617037    8.085185   10.000000    ( 0.0000,  0.0000,  0.0000)
   7 Li     4.851111    8.085185   10.000000    ( 0.0000,  0.0000,  0.0000)
   8 Li     8.085185    8.085185   10.000000    ( 0.0000,  0.0000,  0.0000)
   9 Li     0.000000    0.000000   11.617037    ( 0.0000,  0.0000,  0.0000)
  10 Li     3.234074    0.000000   11.617037    ( 0.0000,  0.0000,  0.0000)
  11 Li     6.468148    0.000000   11.617037    ( 0.0000,  0.0000,  0.0000)
  12 Li     0.000000    3.234074   11.617037    ( 0.0000,  0.0000,  0.0000)
  13 Li     3.234074    3.234074   11.617037    ( 0.0000,  0.0000,  0.0000)
  14 Li     6.468148    3.234074   11.617037    ( 0.0000,  0.0000,  0.0000)
  15 Li     0.000000    6.468148   11.617037    ( 0.0000,  0.0000,  0.0000)
  16 Li     3.234074    6.468148   11.617037    ( 0.0000,  0.0000,  0.0000)
  17 Li     6.468148    6.468148   11.617037    ( 0.0000,  0.0000,  0.0000)
  18 Li     1.617131    1.617172   13.470117    ( 0.0000,  0.0000,  0.0000)
  19 Li     4.851233    1.617076   13.470475    ( 0.0000,  0.0000,  0.0000)
  20 Li     8.084968    1.617250   13.469534    ( 0.0000,  0.0000,  0.0000)
  21 Li     1.617074    4.851224   13.470424    ( 0.0000,  0.0000,  0.0000)
  22 Li     4.851081    4.851086   13.470211    ( 0.0000,  0.0000,  0.0000)
  23 Li     8.085199    4.851139   13.470533    ( 0.0000,  0.0000,  0.0000)
  24 Li     1.617204    8.084914   13.469549    ( 0.0000,  0.0000,  0.0000)
  25 Li     4.851172    8.085163   13.470537    ( 0.0000,  0.0000,  0.0000)
  26 Li     8.085004    8.084963   13.469487    ( 0.0000,  0.0000,  0.0000)
  27 Li     0.001497    0.000681   15.395360    ( 0.0000,  0.0000,  0.0000)
  28 Li     3.234833    0.000269   15.445082    ( 0.0000,  0.0000,  0.0000)
  29 Li     6.467310   -0.000004   15.445163    ( 0.0000,  0.0000,  0.0000)
  30 Li     0.000266    3.234645   15.446393    ( 0.0000,  0.0000,  0.0000)
  31 Li     3.234016    3.233796   15.445634    ( 0.0000,  0.0000,  0.0000)
  32 Li     6.467906    3.234293   15.445322    ( 0.0000,  0.0000,  0.0000)
  33 Li    -0.000000    6.467306   15.445189    ( 0.0000,  0.0000,  0.0000)
  34 Li     3.234324    6.468050   15.445361    ( 0.0000,  0.0000,  0.0000)
  35 Li     6.467848    6.467891   15.445301    ( 0.0000,  0.0000,  0.0000)
  36 O      9.731239    9.719990   19.772445    ( 0.0000,  0.0000,  0.0000)
  37 O      9.746055   12.599451   19.410420    ( 0.0000,  0.0000,  0.0000)
  38 C     10.897882   10.445939   19.275889    ( 0.0000,  0.0000,  0.0000)
  39 C     10.892496   11.846724   19.811357    ( 0.0000,  0.0000,  0.0000)
  40 H     11.797373    9.900478   19.532612    ( 0.0000,  0.0000,  0.0000)
  41 H     10.858564   10.483753   18.182804    ( 0.0000,  0.0000,  0.0000)
  42 H     11.762748   12.378920   19.426672    ( 0.0000,  0.0000,  0.0000)
  43 H     10.962956   11.795530   20.904438    ( 0.0000,  0.0000,  0.0000)
  44 H      9.799569    9.533720   20.675179    ( 0.0000,  0.0000,  0.0000)
  45 H      8.978079   12.021289   19.510676    ( 0.0000,  0.0000,  0.0000)
  46 N      9.697679    9.688183   17.082215    ( 0.0000,  0.0000,  0.0000)
  47 N      9.581467    9.651145   18.153219    ( 0.0000,  0.0000,  0.0000)

Unit cell:
           periodic     x           y           z      points  spacing
  1. axis:    yes    9.702222    0.000000    0.000000    60     0.1617
  2. axis:    yes    0.000000    9.702222    0.000000    60     0.1617
  3. axis:    no     0.000000    0.000000   26.601111   168     0.1583

  Lengths:   9.702222   9.702222  26.601111
  Angles:   90.000000  90.000000  90.000000

Effective grid spacing dv^(1/3) = 0.1606

     iter     time        total  log10-change:
                         energy  eigst   dens
iter:   1 13:00:48  -320.226580  -0.95
iter:   2 13:00:56  -320.192678  -1.21  -1.75
iter:   3 13:01:03  -320.174326  -1.85  -1.87
iter:   4 13:01:11  -320.168924c -1.26  -2.33
Writing to output.gpw (mode='')

iter:   5 13:01:18  -320.167275c -2.15  -2.26
iter:   6 13:01:26  -320.167190c -2.27  -2.49
iter:   7 13:01:33  -320.168833c -1.96  -2.65
iter:   8 13:01:41  -320.166654c -2.53  -2.69
iter:   9 13:01:48  -320.166694c -2.54  -2.88
Writing to output.gpw (mode='')

iter:  10 13:01:56  -320.167006c -3.11  -2.94
iter:  11 13:02:03  -320.166960c -3.43  -3.06
iter:  12 13:02:11  -320.166825c -3.41  -3.11
iter:  13 13:02:18  -320.166843c -3.79  -3.16
iter:  14 13:02:26  -320.166832c -3.83  -3.22
Writing to output.gpw (mode='')

iter:  15 13:02:33  -320.166777c -4.18  -3.42
iter:  16 13:02:41  -320.166768c -4.03  -3.64
iter:  17 13:02:48  -320.166786c -4.39  -3.68
iter:  18 13:02:56  -320.166777c -4.89  -3.72
iter:  19 13:03:03  -320.166778c -4.52  -3.81
Writing to output.gpw (mode='')

iter:  20 13:03:11  -320.166778c -4.90  -3.88
iter:  21 13:03:19  -320.166783c -4.77  -3.98
iter:  22 13:03:26  -320.166778c -5.55  -4.00
iter:  23 13:03:33  -320.166771c -5.30  -4.10c
iter:  24 13:03:41  -320.166776c -5.23  -4.21c
Writing to output.gpw (mode='')

iter:  25 13:03:49  -320.166774c -5.95  -4.34c
iter:  26 13:03:56  -320.166772c -5.94  -4.46c
iter:  27 13:04:04  -320.166773c -6.17  -4.56c
iter:  28 13:04:11  -320.166775c -6.40  -4.69c
iter:  29 13:04:19  -320.166775c -6.78  -4.81c
Writing to output.gpw (mode='')

iter:  30 13:04:26  -320.166774c -6.82  -4.87c
iter:  31 13:04:34  -320.166774c -6.95  -4.97c
iter:  32 13:04:47  -320.166774c -7.10  -5.04c
iter:  33 13:04:55  -320.166774c -7.35  -5.10c
iter:  34 13:05:03  -320.166774c -7.22  -5.18c
Writing to output.gpw (mode='')

iter:  35 13:05:10  -320.166774c -7.52c -5.38c

Converged after 35 iterations.

Dipole moment: (-15.894818, -12.411874, 0.277992) |e|*Ang

Energy contributions relative to reference atoms: (reference = -16475.706344)

Kinetic:       +206.890797
Potential:     -187.554406
External:        +0.000000
XC:            -340.501473
Entropy (-ST):   -0.143878
Local:           +1.070248
--------------------------
Free energy:   -320.238713
Extrapolated:  -320.166774

Dipole-layer corrected work functions: 3.392808, 2.858412 eV

Showing only first 2 kpts
 Kpt  Band  Eigenvalues  Occupancy
  0    34     -3.37392    1.98616
  0    35     -3.30414    1.94527
  0    36     -2.95556    0.06453
  0    37     -2.88099    0.01489

  1    34     -3.17972    1.49381
  1    35     -3.11153    0.86017
  1    36     -3.09511    0.70409
  1    37     -3.02624    0.24107


Fermi level: -3.12561

No gap

Forces in eV/Ang:
  0 Li    0.00683    0.00556   -0.27016
  1 Li   -0.00428   -0.00018   -0.26937
  2 Li   -0.00280    0.00862   -0.26731
  3 Li   -0.00115   -0.00234   -0.26831
  4 Li    0.00164    0.00230   -0.28782
  5 Li   -0.00200    0.00125   -0.26942
  6 Li    0.00765   -0.00345   -0.26997
  7 Li   -0.00076   -0.00219   -0.27098
  8 Li   -0.00748   -0.00999   -0.26897
  9 Li   -0.00051   -0.00139    0.31236
 10 Li    0.01039    0.00125    0.25763
 11 Li   -0.01148    0.00031    0.26442
 12 Li    0.00116    0.01179    0.26001
 13 Li    0.00271    0.00170    0.25896
 14 Li   -0.00293    0.00547    0.25529
 15 Li   -0.00090   -0.01042    0.25874
 16 Li    0.00472   -0.00202    0.25621
 17 Li   -0.00259   -0.00550    0.25292
 18 Li    0.00692    0.01007    0.01696
 19 Li    0.00661    0.00234    0.03949
 20 Li   -0.01329    0.01288   -0.01110
 21 Li    0.00208    0.00612    0.03642
 22 Li   -0.00222   -0.00171    0.02880
 23 Li    0.00153    0.00191    0.04338
 24 Li    0.01093   -0.01680   -0.01228
 25 Li    0.00340   -0.00086    0.04401
 26 Li   -0.01193   -0.01350   -0.01523
 27 Li    0.09487    0.04799   -2.49339
 28 Li    0.03199    0.01554   -0.03717
 29 Li   -0.03947    0.00076   -0.03996
 30 Li    0.01454    0.02354    0.03306
 31 Li   -0.00487   -0.01662   -0.01478
 32 Li   -0.01135    0.01078   -0.03266
 33 Li    0.00113   -0.03601   -0.03500
 34 Li    0.01324   -0.00466   -0.03013
 35 Li   -0.01684   -0.01387   -0.03472
 36 O     1.11195    0.71211    7.42170
 37 O    -0.01557   -0.04788   -0.17391
 38 C     2.14885    1.31831    2.19631
 39 C     0.22333    0.32167    0.54974
 40 H     0.37718   -0.11555    0.35556
 41 H     1.85245    1.16627    1.86755
 42 H     0.07944    0.09626    0.00413
 43 H     0.01921    0.28796    0.09627
 44 H     1.12256   -0.17491    4.34020
 45 H    -0.05729    0.04741    0.07191
 46 N    -0.31021   -1.05463   -5.80666
 47 N    -6.62621   -2.55161   -8.43357

System changes: positions 

Initializing position-dependent things.

Density initialized from wave functions
       .-----------------------.  
      /|                       |  
     / |                       |  
    /  |                       |  
   /   |                       |  
  /    |                       |  
 *     |                       |  
 |     H                       |  
 |     |                       |  
 |     |                       |  
 |     |                       |  
 |     |                       N  
 |   H |                       N  
 | O C |H                H     |  
 O     |               Li      |  
 |  C H|                       |  
 |  H  |     Li      Li      Li|  
 |     |  Li      Li      Li   |  
 | Li  |   Li      Li          |  
 |     |Li      Li      Li     |  
 Li    | Li                    |  
 |   LLi     LLi     LLi       |  
 |     |  Li      Li      Li   |  
 | Li  |   Li      Li          |  
 |     |Li      Li      Li     |  
 Li    | Li      Li            |  
 |    Li      Li      Li       |  
 |     |                       |  
 |     |                       |  
 |     |                       |  
 |     |                       |  
 |     |                       |  
 |     |                       |  
 |     .-----------------------.  
 |    /                       /   
 |   /                       /    
 |  /                       /     
 | /                       /      
 |/                       /       
 *-----------------------*        

Positions:
   0 Li     1.617037    1.617037   10.000000    ( 0.0000,  0.0000,  0.0000)
   1 Li     4.851111    1.617037   10.000000    ( 0.0000,  0.0000,  0.0000)
   2 Li     8.085185    1.617037   10.000000    ( 0.0000,  0.0000,  0.0000)
   3 Li     1.617037    4.851111   10.000000    ( 0.0000,  0.0000,  0.0000)
   4 Li     4.851111    4.851111   10.000000    ( 0.0000,  0.0000,  0.0000)
   5 Li     8.085185    4.851111   10.000000    ( 0.0000,  0.0000,  0.0000)
   6 Li     1.617037    8.085185   10.000000    ( 0.0000,  0.0000,  0.0000)
   7 Li     4.851111    8.085185   10.000000    ( 0.0000,  0.0000,  0.0000)
   8 Li     8.085185    8.085185   10.000000    ( 0.0000,  0.0000,  0.0000)
   9 Li     0.000000    0.000000   11.617037    ( 0.0000,  0.0000,  0.0000)
  10 Li     3.234074    0.000000   11.617037    ( 0.0000,  0.0000,  0.0000)
  11 Li     6.468148    0.000000   11.617037    ( 0.0000,  0.0000,  0.0000)
  12 Li     0.000000    3.234074   11.617037    ( 0.0000,  0.0000,  0.0000)
  13 Li     3.234074    3.234074   11.617037    ( 0.0000,  0.0000,  0.0000)
  14 Li     6.468148    3.234074   11.617037    ( 0.0000,  0.0000,  0.0000)
  15 Li     0.000000    6.468148   11.617037    ( 0.0000,  0.0000,  0.0000)
  16 Li     3.234074    6.468148   11.617037    ( 0.0000,  0.0000,  0.0000)
  17 Li     6.468148    6.468148   11.617037    ( 0.0000,  0.0000,  0.0000)
  18 Li     1.617208    1.617274   13.470119    ( 0.0000,  0.0000,  0.0000)
  19 Li     4.851264    1.617087   13.470696    ( 0.0000,  0.0000,  0.0000)
  20 Li     8.084863    1.617345   13.469420    ( 0.0000,  0.0000,  0.0000)
  21 Li     1.617088    4.851253   13.470624    ( 0.0000,  0.0000,  0.0000)
  22 Li     4.851074    4.851079   13.470355    ( 0.0000,  0.0000,  0.0000)
  23 Li     8.085204    4.851139   13.470759    ( 0.0000,  0.0000,  0.0000)
  24 Li     1.617292    8.084779   13.469421    ( 0.0000,  0.0000,  0.0000)
  25 Li     4.851179    8.085158   13.470770    ( 0.0000,  0.0000,  0.0000)
  26 Li     8.084923    8.084874   13.469397    ( 0.0000,  0.0000,  0.0000)
  27 Li     0.002283    0.001121   15.379867    ( 0.0000,  0.0000,  0.0000)
  28 Li     3.235032    0.000337   15.444867    ( 0.0000,  0.0000,  0.0000)
  29 Li     6.467088   -0.000011   15.444923    ( 0.0000,  0.0000,  0.0000)
  30 Li     0.000338    3.234789   15.446550    ( 0.0000,  0.0000,  0.0000)
  31 Li     3.234014    3.233735   15.445528    ( 0.0000,  0.0000,  0.0000)
  32 Li     6.467830    3.234360   15.445140    ( 0.0000,  0.0000,  0.0000)
  33 Li    -0.000003    6.467107   15.444976    ( 0.0000,  0.0000,  0.0000)
  34 Li     3.234397    6.468016   15.445193    ( 0.0000,  0.0000,  0.0000)
  35 Li     6.467768    6.467824   15.445119    ( 0.0000,  0.0000,  0.0000)
  36 O      9.738985    9.726736   19.783086    ( 0.0000,  0.0000,  0.0000)
  37 O      9.746312   12.599110   19.409793    ( 0.0000,  0.0000,  0.0000)
  38 C     10.901905   10.447807   19.282979    ( 0.0000,  0.0000,  0.0000)
[...]
iter:  20 02:01:20  -327.581570c -7.79c -5.09c

Converged after 20 iterations.

Dipole moment: (-14.157479, 1.702499, 0.451584) |e|*Ang

Energy contributions relative to reference atoms: (reference = -16475.706344)

Kinetic:       +162.393139
Potential:     -157.680231
External:        +0.000000
XC:            -333.340605
Entropy (-ST):   -0.149223
Local:           +1.120739
--------------------------
Free energy:   -327.656181
Extrapolated:  -327.581570

Dipole-layer corrected work functions: 3.399380, 2.531281 eV

Showing only first 2 kpts
 Kpt  Band  Eigenvalues  Occupancy
  0    34     -3.20943    1.98495
  0    35     -3.13108    1.92988
  0    36     -2.80211    0.07363
  0    37     -2.72929    0.01766

  1    34     -2.97537    1.10002
  1    35     -2.95792    0.92603
  1    36     -2.93870    0.73979
  1    37     -2.89669    0.40434


Fermi level: -2.96533

No gap

Forces in eV/Ang:
  0 Li    0.00567    0.00181   -0.26266
  1 Li    0.00588    0.00487   -0.28923
  2 Li   -0.00930    0.01321   -0.26053
  3 Li    0.00328    0.00995   -0.28076
  4 Li    0.00174    0.00356   -0.28551
  5 Li    0.00152   -0.00620   -0.26721
  6 Li    0.00856   -0.00588   -0.27251
  7 Li   -0.01122    0.00420   -0.26181
  8 Li    0.00208   -0.00206   -0.27640
  9 Li   -0.00474    0.00075    0.26748
 10 Li   -0.03419    0.00179    0.27757
 11 Li    0.02758    0.01403    0.28984
 12 Li   -0.00109   -0.01502    0.21220
 13 Li   -0.03309   -0.03529    0.29542
 14 Li    0.02857   -0.01651    0.27588
 15 Li    0.01141   -0.03589    0.27700
 16 Li   -0.06625   -0.00453    0.28492
 17 Li    0.04454   -0.03700    0.26776
 18 Li   -0.00196   -0.01101   -0.00101
 19 Li    0.00115    0.00313   -0.00087
 20 Li    0.00041   -0.00304    0.00336
 21 Li    0.00240    0.00142    0.00468
 22 Li    0.00244    0.00125    0.00854
 23 Li    0.00573    0.00260    0.00870
 24 Li   -0.00350    0.00213   -0.00091
 25 Li    0.01017    0.00789    0.00963
 26 Li   -0.01205   -0.00614    0.00213
 27 Li    0.00625    0.00931   -0.00223
 28 Li    0.00076    0.00382   -0.01063
 29 Li   -0.01290    0.00611    0.00362
 30 Li   -0.00462    0.00582    0.00752
 31 Li   -0.00183    0.00034    0.00532
 32 Li   -0.00155   -0.00210   -0.00039
 33 Li   -0.00485   -0.00393    0.00288
 34 Li    0.00374   -0.00882   -0.00341
 35 Li   -0.00147   -0.00994   -0.00314
 36 O    -0.03389    0.00740   -0.01744
 37 O    -0.01141    0.01326    0.00047
 38 C    -0.01098    0.00926   -0.00112
 39 C    -0.00264   -0.01399   -0.00549
 40 H     0.01869   -0.00143   -0.01108
 41 H    -0.00861   -0.00910    0.00776
 42 H     0.01847    0.00515   -0.00245
 43 H    -0.00714   -0.01088   -0.00165
 44 H     0.00320    0.00732    0.00806
 45 H     0.01165    0.00826   -0.01041
 46 N     0.06296    0.00362   -0.00628
 47 N    -0.02048   -0.02336    0.03053

System changes: positions 

Initializing position-dependent things.

Density initialized from wave functions
       .-----------------------.  
      /|                       |  
     / |                       |  
    /  |                       |  
   /   |                       |  
  /    |                       |  
 *     |                       |  
 |     |                       |  
 |     |                       |  
 |     |                       |  
 |     |                       |  
 |     |                   N   |  
 | H   |                    N  |  
 | O   HH                      |  
 |    C|       Li             Li  
 | O   |H                H     |  
 |   LH|     Li      Li        |  
 | Li  |  Li      Li      Li   |  
 |     |   Li      Li          |  
 |     |Li      Li      Li     |  
 |     |         Li            |  
 |   LLi     LLi     LLi       |  
 |     |  Li      Li      Li   |  
 | Li  |   Li      Li          |  
 |     |Li      Li      Li     |  
 Li    | Li      Li            |  
 |    Li      Li      Li       |  
 |     |                       |  
 |     |                       |  
 |     |                       |  
 |     |                       |  
 |     |                       |  
 |     |                       |  
 |     .-----------------------.  
 |    /                       /   
 |   /                       /    
 |  /                       /     
 | /                       /      
 |/                       /       
 *-----------------------*        

Positions:
   0 Li     1.617037    1.617037   10.000000    ( 0.0000,  0.0000,  0.0000)
   1 Li     4.851111    1.617037   10.000000    ( 0.0000,  0.0000,  0.0000)
   2 Li     8.085185    1.617037   10.000000    ( 0.0000,  0.0000,  0.0000)
   3 Li     1.617037    4.851111   10.000000    ( 0.0000,  0.0000,  0.0000)
   4 Li     4.851111    4.851111   10.000000    ( 0.0000,  0.0000,  0.0000)
   5 Li     8.085185    4.851111   10.000000    ( 0.0000,  0.0000,  0.0000)
   6 Li     1.617037    8.085185   10.000000    ( 0.0000,  0.0000,  0.0000)
   7 Li     4.851111    8.085185   10.000000    ( 0.0000,  0.0000,  0.0000)
   8 Li     8.085185    8.085185   10.000000    ( 0.0000,  0.0000,  0.0000)
   9 Li     0.000000    0.000000   11.617037    ( 0.0000,  0.0000,  0.0000)
  10 Li     3.234074    0.000000   11.617037    ( 0.0000,  0.0000,  0.0000)
  11 Li     6.468148    0.000000   11.617037    ( 0.0000,  0.0000,  0.0000)
  12 Li     0.000000    3.234074   11.617037    ( 0.0000,  0.0000,  0.0000)
  13 Li     3.234074    3.234074   11.617037    ( 0.0000,  0.0000,  0.0000)
  14 Li     6.468148    3.234074   11.617037    ( 0.0000,  0.0000,  0.0000)
  15 Li     0.000000    6.468148   11.617037    ( 0.0000,  0.0000,  0.0000)
  16 Li     3.234074    6.468148   11.617037    ( 0.0000,  0.0000,  0.0000)
  17 Li     6.468148    6.468148   11.617037    ( 0.0000,  0.0000,  0.0000)
  18 Li     1.539095    1.590462   13.546235    ( 0.0000,  0.0000,  0.0000)
  19 Li     4.852368    1.601352   13.429483    ( 0.0000,  0.0000,  0.0000)
  20 Li     8.147262    1.605619   13.545674    ( 0.0000,  0.0000,  0.0000)
  21 Li     1.588978    4.777624   13.501392    ( 0.0000,  0.0000,  0.0000)
  22 Li     4.867065    4.871757   13.422671    ( 0.0000,  0.0000,  0.0000)
  23 Li     8.127703    4.771477   13.518516    ( 0.0000,  0.0000,  0.0000)
  24 Li     1.566747    8.091423   13.511917    ( 0.0000,  0.0000,  0.0000)
  25 Li     4.829955    8.068654   13.433847    ( 0.0000,  0.0000,  0.0000)
  26 Li     8.091400    8.063981   13.443935    ( 0.0000,  0.0000,  0.0000)
  27 Li    -0.159637   -0.257340   15.642836    ( 0.0000,  0.0000,  0.0000)
  28 Li     3.222784   -0.027436   15.374046    ( 0.0000,  0.0000,  0.0000)
  29 Li     6.371718    0.012355   15.342159    ( 0.0000,  0.0000,  0.0000)
  30 Li     0.059361    3.049512   15.893254    ( 0.0000,  0.0000,  0.0000)
  31 Li     3.370462    3.255525   15.273813    ( 0.0000,  0.0000,  0.0000)
  32 Li     6.456842    3.226233   15.391273    ( 0.0000,  0.0000,  0.0000)
  33 Li     0.026312    6.332189   15.383090    ( 0.0000,  0.0000,  0.0000)
  34 Li     3.225914    6.479529   15.409120    ( 0.0000,  0.0000,  0.0000)
  35 Li     6.440244    6.452490   15.348398    ( 0.0000,  0.0000,  0.0000)
  36 O     10.237771   10.677962   20.225035    ( 0.0000,  0.0000,  0.0000)
  37 O      9.982704   12.198745   17.757809    ( 0.0000,  0.0000,  0.0000)
  38 C     11.362944   10.976846   19.382357    ( 0.0000,  0.0000,  0.0000)
  39 C     11.157805   12.262413   18.600441    ( 0.0000,  0.0000,  0.0000)
  40 H     12.290944   11.047842   19.962572    ( 0.0000,  0.0000,  0.0000)
  41 H     11.454098   10.133139   18.694542    ( 0.0000,  0.0000,  0.0000)
  42 H     12.002113   12.426617   17.926131    ( 0.0000,  0.0000,  0.0000)
  43 H     11.075436   13.126331   19.271554    ( 0.0000,  0.0000,  0.0000)
  44 H     10.277533   11.250512   21.000368    ( 0.0000,  0.0000,  0.0000)
  45 H      9.240855   11.887828   18.298111    ( 0.0000,  0.0000,  0.0000)
  46 N      8.731077    8.975732   17.455124    ( 0.0000,  0.0000,  0.0000)
  47 N      8.282072    8.705831   18.440820    ( 0.0000,  0.0000,  0.0000)

Unit cell:
           periodic     x           y           z      points  spacing
  1. axis:    yes    9.702222    0.000000    0.000000    60     0.1617
  2. axis:    yes    0.000000    9.702222    0.000000    60     0.1617
  3. axis:    no     0.000000    0.000000   26.601111   168     0.1583

  Lengths:   9.702222   9.702222  26.601111
  Angles:   90.000000  90.000000  90.000000

Effective grid spacing dv^(1/3) = 0.1606

     iter     time        total  log10-change:
                         energy  eigst   dens
iter:   1 02:01:29  -327.585273  -2.16
iter:   2 02:01:37  -327.583805  -2.67  -2.33
iter:   3 02:01:44  -327.582326c -3.61  -2.45
iter:   4 02:01:52  -327.582041c -3.87  -2.77
Writing to output.gpw (mode='')

iter:   5 02:01:59  -327.581960c -3.48  -2.96
iter:   6 02:02:07  -327.581942c -3.39  -3.17
iter:   7 02:02:14  -327.581960c -3.78  -3.31
iter:   8 02:02:22  -327.581907c -4.47  -3.43
iter:   9 02:02:29  -327.581895c -4.89  -3.60
Writing to output.gpw (mode='')

iter:  10 02:02:36  -327.581895c -4.89  -3.68
iter:  11 02:02:44  -327.581887c -5.26  -3.83
iter:  12 02:02:54  -327.581889c -5.53  -3.88
iter:  13 02:03:02  -327.581887c -5.77  -4.00
iter:  14 02:03:09  -327.581895c -5.73  -4.12c
Writing to output.gpw (mode='')

iter:  15 02:03:17  -327.581895c -6.12  -4.41c
iter:  16 02:03:24  -327.581893c -6.35  -4.44c
iter:  17 02:03:32  -327.581893c -6.29  -4.62c
iter:  18 02:03:39  -327.581893c -6.68  -4.78c
iter:  19 02:03:47  -327.581892c -6.78  -4.82c
Writing to output.gpw (mode='')

iter:  20 02:03:54  -327.581892c -6.74  -4.86c
iter:  21 02:04:02  -327.581892c -7.00  -4.89c
iter:  22 02:04:09  -327.581892c -7.13  -5.00c
iter:  23 02:04:17  -327.581892c -7.34  -5.08c
iter:  24 02:04:24  -327.581892c -7.48c -5.25c

Converged after 24 iterations.

Dipole moment: (-14.199198, 1.723252, 0.451630) |e|*Ang

Energy contributions relative to reference atoms: (reference = -16475.706344)

Kinetic:       +162.381164
Potential:     -157.668836
External:        +0.000000
XC:            -333.340253
Entropy (-ST):   -0.149125
Local:           +1.120596
--------------------------
Free energy:   -327.656454
Extrapolated:  -327.581892

Dipole-layer corrected work functions: 3.399489, 2.531302 eV

Showing only first 2 kpts
 Kpt  Band  Eigenvalues  Occupancy
  0    34     -3.20996    1.98509
  0    35     -3.13145    1.93028
  0    36     -2.80179    0.07308
  0    37     -2.72943    0.01768

  1    34     -2.97515    1.09728
  1    35     -2.95770    0.92324
  1    36     -2.93889    0.74097
  1    37     -2.89670    0.40398


Fermi level: -2.96540

No gap
Writing to output.gpw (mode='')


Forces in eV/Ang:
  0 Li    0.00547    0.00160   -0.26278
  1 Li    0.00599    0.00487   -0.28970
  2 Li   -0.00917    0.01325   -0.26053
  3 Li    0.00340    0.00995   -0.28109
  4 Li    0.00179    0.00361   -0.28545
  5 Li    0.00140   -0.00614   -0.26724
  6 Li    0.00859   -0.00570   -0.27257
  7 Li   -0.01114    0.00419   -0.26176
  8 Li    0.00213   -0.00205   -0.27672
  9 Li   -0.00608    0.00028    0.26624
 10 Li   -0.03453    0.00208    0.27831
 11 Li    0.02818    0.01336    0.28929
 12 Li   -0.00149   -0.01466    0.21270
 13 Li   -0.03334   -0.03612    0.29754
 14 Li    0.02914   -0.01654    0.27588
 15 Li    0.01098   -0.03603    0.27694
 16 Li   -0.06631   -0.00407    0.28527
 17 Li    0.04443   -0.03713    0.26671
 18 Li    0.00227   -0.00676   -0.00425
 19 Li   -0.00112    0.00492   -0.00096
 20 Li   -0.00242   -0.00248    0.00155
 21 Li    0.00216    0.00030    0.00436
 22 Li    0.00200    0.00076    0.00693
 23 Li    0.00647    0.00197    0.00682
 24 Li   -0.00199   -0.00133   -0.00210
 25 Li    0.00935    0.00744    0.00757
 26 Li   -0.01162   -0.00507    0.00312
 27 Li    0.00195    0.00591    0.00230
 28 Li    0.00417    0.00349   -0.00805
 29 Li   -0.01144    0.00726    0.00626
 30 Li   -0.00381    0.00908    0.00359
 31 Li   -0.00393   -0.00145    0.00636
 32 Li   -0.00152   -0.00320   -0.00019
 33 Li   -0.00454   -0.00345    0.00490
 34 Li    0.00205   -0.00708   -0.00376
 35 Li   -0.00060   -0.00989   -0.00310
 36 O    -0.01459    0.01017   -0.01868
 37 O     0.00098    0.00854   -0.00532
 38 C    -0.00935    0.00011   -0.00023
 39 C    -0.00816    0.01129   -0.01020
 40 H    -0.00295    0.00197   -0.01116
 41 H    -0.00822   -0.00857    0.00823
 42 H     0.00564    0.00891    0.00824
 43 H     0.00521   -0.01768   -0.00461
 44 H     0.00149    0.00789    0.01169
 45 H     0.01387    0.00767   -0.00221
 46 N     0.04748    0.00543   -0.00017
 47 N    -0.01900   -0.01030    0.02206

Timing:                                      incl.     excl.
-------------------------------------------------------------------
Density initialized from wave functions:     9.592     9.588   0.0% |
 Symmetrize density:                         0.004     0.004   0.0% |
Forces:                                     85.068    85.068   0.2% |
Hamiltonian:                              1155.934     0.025   0.0% |
 Atomic:                                     0.046     0.045   0.0% |
  XC Correction:                             0.001     0.001   0.0% |
 Calculate atomic Hamiltonians:              0.080     0.080   0.0% |
 Communicate:                               20.464    20.464   0.0% |
 Hartree integrate/restrict:                 4.324     4.324   0.0% |
 Initialize Hamiltonian:                     0.000     0.000   0.0% |
 Poisson:                                   53.777    19.697   0.0% |
  Communicate from 1D:                       5.675     5.675   0.0% |
  Communicate from 2D:                       5.395     5.395   0.0% |
  Communicate to 1D:                         2.944     2.944   0.0% |
  Communicate to 2D:                         6.538     6.538   0.0% |
  FFT 1D:                                    6.912     6.912   0.0% |
  FFT 2D:                                    6.616     6.616   0.0% |
 XC 3D grid:                              1076.342   168.133   0.3% |
  VdW-DF integral:                         908.208     7.577   0.0% |
   Convolution:                             83.568    83.568   0.2% |
   FFT:                                     35.526    35.526   0.1% |
   gather:                                 315.534   315.534   0.6% |
   hmm1:                                    29.780    29.780   0.1% |
   hmm2:                                    39.272    39.272   0.1% |
   iFFT:                                    36.457    36.457   0.1% |
   potential:                              356.701     9.491   0.0% |
    collect:                                55.833    55.833   0.1% |
    p1:                                    160.972   160.972   0.3% |
    p2:                                     60.680    60.680   0.1% |
    sum:                                    69.725    69.725   0.1% |
   splines:                                  3.793     3.793   0.0% |
 vbar:                                       0.876     0.876   0.0% |
LCAO initialization:                         1.126     0.184   0.0% |
 LCAO eigensolver:                           0.193     0.000   0.0% |
  Calculate projections:                     0.000     0.000   0.0% |
  DenseAtomicCorrection:                     0.000     0.000   0.0% |
  Distribute overlap matrix:                 0.174     0.174   0.0% |
  Orbital Layouts:                           0.017     0.017   0.0% |
  Potential matrix:                          0.001     0.001   0.0% |
  Sum over cells:                            0.001     0.001   0.0% |
 LCAO to grid:                               0.637     0.637   0.0% |
 Set positions (LCAO WFS):                   0.112     0.069   0.0% |
  Basic WFS set positions:                   0.001     0.001   0.0% |
  Basis functions set positions:             0.000     0.000   0.0% |
  P tci:                                     0.000     0.000   0.0% |
  ST tci:                                    0.012     0.012   0.0% |
  mktci:                                     0.029     0.029   0.0% |
Redistribute:                                0.127     0.127   0.0% |
SCF-cycle:                               47821.786   850.666   1.7% ||
 Davidson:                               12929.012  3874.833   7.9% |--|
  Apply hamiltonian:                       806.055   806.055   1.6% ||
  Subspace diag:                          2410.735     0.782   0.0% |
   calc_h_matrix:                         1196.416   370.625   0.8% |
    Apply hamiltonian:                     825.791   825.791   1.7% ||
   diagonalize:                            120.701   120.701   0.2% |
   rotate_psi:                            1092.836  1092.836   2.2% ||
  calc. matrices:                         4048.090  2096.424   4.3% |-|
   Apply hamiltonian:                     1951.666  1951.666   4.0% |-|
  diagonalize:                              38.181    38.181   0.1% |
  rotate_psi:                             1751.118  1751.118   3.6% ||
 Density:                                  237.029     0.166   0.0% |
  Atomic density matrices:                  28.654    28.654   0.1% |
  Mix:                                     101.253   101.253   0.2% |
  Multipole moments:                        12.040    12.040   0.0% |
  Pseudo density:                           94.916    94.762   0.2% |
   Symmetrize density:                       0.154     0.154   0.0% |
 Hamiltonian:                            33766.051     0.771   0.0% |
  Atomic:                                    1.521     1.503   0.0% |
   XC Correction:                            0.017     0.017   0.0% |
  Calculate atomic Hamiltonians:             2.445     2.445   0.0% |
  Communicate:                             481.138   481.138   1.0% |
  Hartree integrate/restrict:              129.765   129.765   0.3% |
  Poisson:                                1598.647   590.156   1.2% |
   Communicate from 1D:                    161.281   161.281   0.3% |
   Communicate from 2D:                    162.636   162.636   0.3% |
   Communicate to 1D:                       88.541    88.541   0.2% |
   Communicate to 2D:                      195.016   195.016   0.4% |
   FFT 1D:                                 204.927   204.927   0.4% |
   FFT 2D:                                 196.091   196.091   0.4% |
  XC 3D grid:                            31526.362  4903.510   9.9% |---|
   VdW-DF integral:                      26622.852   224.055   0.5% |
    Convolution:                          2468.691  2468.691   5.0% |-|
    FFT:                                  1047.981  1047.981   2.1% ||
    gather:                               9180.240  9180.240  18.6% |------|
    hmm1:                                  878.633   878.633   1.8% ||
    hmm2:                                 1164.189  1164.189   2.4% ||
    iFFT:                                 1079.612  1079.612   2.2% ||
    potential:                           10579.394   281.759   0.6% |
     collect:                             1633.828  1633.828   3.3% ||
     p1:                                  4762.487  4762.487   9.7% |---|
     p2:                                  1790.384  1790.384   3.6% ||
     sum:                                 2110.936  2110.936   4.3% |-|
    splines:                                 0.055     0.055   0.0% |
  vbar:                                     25.403    25.403   0.1% |
 Orthonormalize:                            39.027     0.028   0.0% |
  calc_s_matrix:                             5.647     5.647   0.0% |
  inverse-cholesky:                         11.429    11.429   0.0% |
  projections:                               0.004     0.004   0.0% |
  rotate_psi_s:                             21.919    21.919   0.0% |
Set symmetry:                                0.002     0.002   0.0% |
Other:                                     219.863   219.863   0.4% |
-------------------------------------------------------------------
Total:                                             49293.497 100.0%

Memory usage: 1.14 GiB
Date: Sat Mar 11 02:04:25 2023
