
  ___ ___ ___ _ _ _  
 |   |   |_  | | | | 
 | | | | | . | | | | 
 |__ |  _|___|_____|  22.8.0
 |___|_|             

User:   vazumah@r472.ib.bridges2.psc.edu
Date:   Fri Mar 10 10:03:24 2023
Arch:   x86_64
Pid:    58619
CWD:    /jet/home/vazumah/Calcs/LiMEAS/proton_donors/butanol_y/ontop/9.702_9.702/N2_z
Python: 3.11.0
gpaw:   /jet/home/vazumah/.conda/envs/GPAW_mpich/lib/python3.11/site-packages/gpaw
_gpaw:  /jet/home/vazumah/.conda/envs/GPAW_mpich/lib/python3.11/site-packages/
        _gpaw.cpython-311-x86_64-linux-gnu.so
ase:    /jet/home/vazumah/.conda/envs/GPAW_mpich/lib/python3.11/site-packages/ase (version 3.22.1)
numpy:  /jet/home/vazumah/.conda/envs/GPAW_mpich/lib/python3.11/site-packages/numpy (version 1.24.2)
scipy:  /jet/home/vazumah/.conda/envs/GPAW_mpich/lib/python3.11/site-packages/scipy (version 1.10.1)
libxc:  5.2.3
units:  Angstrom and eV
cores: 128
OpenMP: True
OMP_NUM_THREADS: 1

Input parameters:
  h: 0.16
  kpts: {size: [4, 4, 1]}
  occupations: {name: fermi-dirac,
                width: 0.05}
  poissonsolver: {dipolelayer: xy}
  xc: BEEF-vdW

System changes: positions, numbers, cell, pbc, initial_charges, initial_magmoms 

Initialize ...

species:
  Li:
    name: Lithium
    id: 830b4218f175192f93f959cfc0aad614
    Z: 3.0
    valence: 1
    core: 2
    charge: 0.0
    file: /jet/home/vazumah/datasets/gpaw-setups-0.9.20000/Li.PBE.gz
    compensation charges: {type: gauss,
                           rc: 0.33,
                           lmax: 2}
    cutoffs: {filter: 1.91,
              core: 2.55}
    valence states:
      #              energy  rcut
      - 2s(1.00)    -2.874   1.058
      - 2p(0.00)    -1.090   1.058
      -  s          24.337   1.058
  
    # Using partial waves for Li as LCAO basis

  O:
    name: Oxygen
    id: 32ecd46bf208036f09c70b0ec9a88b78
    Z: 8.0
    valence: 6
    core: 2
    charge: 0.0
    file: /jet/home/vazumah/datasets/gpaw-setups-0.9.20000/O.PBE.gz
    compensation charges: {type: gauss,
                           rc: 0.21,
                           lmax: 2}
    cutoffs: {filter: 1.17,
              core: 0.83}
    valence states:
      #              energy  rcut
      - 2s(2.00)   -23.961   0.688
      - 2p(4.00)    -9.029   0.598
      -  s           3.251   0.688
      -  p          18.182   0.598
      -  d           0.000   0.619
  
    # Using partial waves for O as LCAO basis

  C:
    name: Carbon
    id: 4aa54d4b901d75f77cc0ea3eec22967b
    Z: 6.0
    valence: 4
    core: 2
    charge: 0.0
    file: /jet/home/vazumah/datasets/gpaw-setups-0.9.20000/C.PBE.gz
    compensation charges: {type: gauss,
                           rc: 0.20,
                           lmax: 2}
    cutoffs: {filter: 1.14,
              core: 1.14}
    valence states:
      #              energy  rcut
      - 2s(2.00)   -13.751   0.635
      - 2p(2.00)    -5.284   0.635
      -  s          13.461   0.635
      -  p          21.927   0.635
      -  d           0.000   0.635
  
    # Using partial waves for C as LCAO basis

  H:
    name: Hydrogen
    id: d65de229564ff8ea4db303e23b6d1ecf
    Z: 1.0
    valence: 1
    core: 0
    charge: 0.0
    file: /jet/home/vazumah/datasets/gpaw-setups-0.9.20000/H.PBE.gz
    compensation charges: {type: gauss,
                           rc: 0.15,
                           lmax: 2}
    cutoffs: {filter: 0.85,
              core: 0.53}
    valence states:
      #              energy  rcut
      - 1s(1.00)    -6.494   0.476
      -  s          20.717   0.476
      -  p           0.000   0.476
  
    # Using partial waves for H as LCAO basis

  N:
    name: Nitrogen
    id: f7500608b86eaa90eef8b1d9a670dc53
    Z: 7.0
    valence: 5
    core: 2
    charge: 0.0
    file: /jet/home/vazumah/datasets/gpaw-setups-0.9.20000/N.PBE.gz
    compensation charges: {type: gauss,
                           rc: 0.18,
                           lmax: 2}
    cutoffs: {filter: 1.11,
              core: 0.96}
    valence states:
      #              energy  rcut
      - 2s(2.00)   -18.583   0.603
      - 2p(3.00)    -7.089   0.529
      -  s           8.629   0.603
      -  p          20.123   0.529
      -  d           0.000   0.577
  
    # Using partial waves for N as LCAO basis

Reference energy: -16540.070923  # eV

Spin-paired calculation

Convergence criteria:
 Maximum [total energy] change in last 3 cyles: 0.0005 eV / electron
 Maximum integral of absolute [dens]ity change: 0.0001 electrons / valence electron
 Maximum integral of absolute [eigenst]ate change: 4e-08 eV^2 / valence electron
 Maximum number of scf [iter]ations: 333
 (Square brackets indicate name in SCF output, whereas a 'c' in
 the SCF output indicates the quantity has converged.)

Symmetries present (total): 1

  ( 1  0  0)
  ( 0  1  0)
  ( 0  0  1)

16 k-points: 4 x 4 x 1 Monkhorst-Pack grid
8 k-points in the irreducible part of the Brillouin zone
       k-points in crystal coordinates                weights
   0:     0.12500000   -0.37500000    0.00000000          2/16
   1:     0.12500000   -0.12500000    0.00000000          2/16
   2:     0.12500000    0.12500000    0.00000000          2/16
   3:     0.12500000    0.37500000    0.00000000          2/16
   4:     0.37500000   -0.37500000    0.00000000          2/16
   5:     0.37500000   -0.12500000    0.00000000          2/16
   6:     0.37500000    0.12500000    0.00000000          2/16
   7:     0.37500000    0.37500000    0.00000000          2/16

Wave functions: Uniform real-space grid
  Kinetic energy operator: 6*3+1=19 point O(h^6) finite-difference Laplacian
  ScaLapack parameters: grid=1x1, blocksize=None
  Wavefunction extrapolation:
    Improved wavefunction reuse through dual PAW basis 

Occupation numbers: Fermi-Dirac:
  width: 0.0500  # eV
 

Eigensolver
   Davidson(niter=2) 

Densities:
  Coarse grid: 60*60*168 grid
  Fine grid: 120*120*336 grid
  Total Charge: 0.000000 

Density mixing:
  Method: separate
  Backend: pulay
  Linear mixing parameter: 0.05
  old densities: 5
  Damping of long wavelength oscillations: 50 

Hamiltonian:
  XC and Coulomb potentials evaluated on a 120*120*336 grid
  Using the BEEF-vdW Exchange-Correlation functional
  Interpolation: tri-quintic (5. degree polynomial)
  Poisson solver: FastPoissonSolver using
    Stencil: 6*3+1=19 point O(h^6) finite-difference Laplacian
    FFT axes: [0, 1]
    FST axes: [2]

Dipole correction along z-axis 

XC parameters: BEEF-vdW with 2 nearest neighbor stencil

Memory estimate:
  Process memory now: 126.40 MiB
  Calculator: 90.37 MiB
    Density: 23.17 MiB
      Arrays: 7.40 MiB
      Localized functions: 12.95 MiB
      Mixer: 2.82 MiB
    Hamiltonian: 5.86 MiB
      Arrays: 4.84 MiB
      XC: 0.00 MiB
      Poisson: 0.00 MiB
      vbar: 1.02 MiB
    Wavefunctions: 61.34 MiB
      Arrays psit_nG: 28.72 MiB
      Eigensolver: 31.93 MiB
      Projections: 0.02 MiB
      Projectors: 0.68 MiB

Total number of cores used: 128
Parallelization over k-points: 8
Domain decomposition: 2 x 2 x 4

Number of atoms: 53
Number of atomic orbitals: 182
Number of bands in calculation: 51
Number of valence electrons: 78
Bands to converge: occupied

... initialized

Initializing position-dependent things.

Density initialized from atomic densities
Creating initial wave functions:
  51 bands from LCAO basis set

       .-----------------------.  
      /|                       |  
     / |                       |  
    /  |                       |  
   /   |                       |  
  /    |                       |  
 *     |                       |  
 |     |                       |  
 |     |                       |  
 |     |                       |  
 |     |                  H    N  
 |    HH                       |  
 |   C |                 H  C  N  
 |   H H                  CH   |  
 |  C  |                 H     |  
 |   H |                 O     |  
 |   Li|     Li      Li H      |  
 |     |  Li      Li      Li   |  
 | Li  |   Li      Li          |  
 |     |Li      Li      Li     |  
 Li    | Li      Li            |  
 |   LLi     LLi     LLi       |  
 |     |  Li      Li      Li   |  
 | Li  |   Li      Li          |  
 |     |Li      Li      Li     |  
 Li    | Li      Li            |  
 |    Li      Li      Li       |  
 |     |                       |  
 |     |                       |  
 |     |                       |  
 |     |                       |  
 |     |                       |  
 |     |                       |  
 |     .-----------------------.  
 |    /                       /   
 |   /                       /    
 |  /                       /     
 | /                       /      
 |/                       /       
 *-----------------------*        

Positions:
   0 Li     1.617037    1.617037   10.000000    ( 0.0000,  0.0000,  0.0000)
   1 Li     4.851111    1.617037   10.000000    ( 0.0000,  0.0000,  0.0000)
   2 Li     8.085185    1.617037   10.000000    ( 0.0000,  0.0000,  0.0000)
   3 Li     1.617037    4.851111   10.000000    ( 0.0000,  0.0000,  0.0000)
   4 Li     4.851111    4.851111   10.000000    ( 0.0000,  0.0000,  0.0000)
   5 Li     8.085185    4.851111   10.000000    ( 0.0000,  0.0000,  0.0000)
   6 Li     1.617037    8.085185   10.000000    ( 0.0000,  0.0000,  0.0000)
   7 Li     4.851111    8.085185   10.000000    ( 0.0000,  0.0000,  0.0000)
   8 Li     8.085185    8.085185   10.000000    ( 0.0000,  0.0000,  0.0000)
   9 Li     0.000000    0.000000   11.617037    ( 0.0000,  0.0000,  0.0000)
  10 Li     3.234074    0.000000   11.617037    ( 0.0000,  0.0000,  0.0000)
  11 Li     6.468148    0.000000   11.617037    ( 0.0000,  0.0000,  0.0000)
  12 Li     0.000000    3.234074   11.617037    ( 0.0000,  0.0000,  0.0000)
  13 Li     3.234074    3.234074   11.617037    ( 0.0000,  0.0000,  0.0000)
  14 Li     6.468148    3.234074   11.617037    ( 0.0000,  0.0000,  0.0000)
  15 Li     0.000000    6.468148   11.617037    ( 0.0000,  0.0000,  0.0000)
  16 Li     3.234074    6.468148   11.617037    ( 0.0000,  0.0000,  0.0000)
  17 Li     6.468148    6.468148   11.617037    ( 0.0000,  0.0000,  0.0000)
  18 Li     1.617038    1.617038   13.469728    ( 0.0000,  0.0000,  0.0000)
  19 Li     4.851111    1.617038   13.469729    ( 0.0000,  0.0000,  0.0000)
  20 Li     8.085184    1.617038   13.469728    ( 0.0000,  0.0000,  0.0000)
  21 Li     1.617038    4.851111   13.469729    ( 0.0000,  0.0000,  0.0000)
  22 Li     4.851111    4.851111   13.469730    ( 0.0000,  0.0000,  0.0000)
  23 Li     8.085184    4.851111   13.469729    ( 0.0000,  0.0000,  0.0000)
  24 Li     1.617038    8.085184   13.469728    ( 0.0000,  0.0000,  0.0000)
  25 Li     4.851111    8.085184   13.469729    ( 0.0000,  0.0000,  0.0000)
  26 Li     8.085184    8.085184   13.469728    ( 0.0000,  0.0000,  0.0000)
  27 Li    -0.000000   -0.000000   15.445939    ( 0.0000,  0.0000,  0.0000)
  28 Li     3.234074    0.000000   15.445939    ( 0.0000,  0.0000,  0.0000)
  29 Li     6.468148    0.000000   15.445939    ( 0.0000,  0.0000,  0.0000)
  30 Li     0.000000    3.234074   15.445939    ( 0.0000,  0.0000,  0.0000)
  31 Li     3.234076    3.234076   15.445938    ( 0.0000,  0.0000,  0.0000)
  32 Li     6.468146    3.234076   15.445938    ( 0.0000,  0.0000,  0.0000)
  33 Li     0.000000    6.468148   15.445939    ( 0.0000,  0.0000,  0.0000)
  34 Li     3.234076    6.468146   15.445938    ( 0.0000,  0.0000,  0.0000)
  35 Li     6.468146    6.468146   15.445938    ( 0.0000,  0.0000,  0.0000)
  36 O      9.702222    9.702222   19.645939    ( 0.0000,  0.0000,  0.0000)
  37 C      9.689881   12.169281   19.681765    ( 0.0000,  0.0000,  0.0000)
  38 C     10.544933   13.438843   19.668355    ( 0.0000,  0.0000,  0.0000)
  39 C     10.512701   10.886705   19.646147    ( 0.0000,  0.0000,  0.0000)
  40 C      9.693947   14.711553   19.652726    ( 0.0000,  0.0000,  0.0000)
  41 H      9.056712   12.154483   20.575259    ( 0.0000,  0.0000,  0.0000)
  42 H      9.019693   12.182598   18.810409    ( 0.0000,  0.0000,  0.0000)
  43 H     11.204008   13.425881   18.792145    ( 0.0000,  0.0000,  0.0000)
  44 H     11.201097   13.443746   20.546325    ( 0.0000,  0.0000,  0.0000)
  45 H     11.178268   10.893259   18.772008    ( 0.0000,  0.0000,  0.0000)
  46 H     11.136016   10.802189   20.540765    ( 0.0000,  0.0000,  0.0000)
  47 H      9.051467   14.739139   18.768683    ( 0.0000,  0.0000,  0.0000)
  48 H      9.043934   14.756870   20.530177    ( 0.0000,  0.0000,  0.0000)
  49 H     10.307673   15.614727   19.646581    ( 0.0000,  0.0000,  0.0000)
  50 H      9.113123    9.751532   18.883760    ( 0.0000,  0.0000,  0.0000)
  51 N      9.702000    9.702000   17.195939    ( 0.0000,  0.0000,  0.0000)
  52 N      9.702000    9.702000   18.292561    ( 0.0000,  0.0000,  0.0000)

Unit cell:
           periodic     x           y           z      points  spacing
  1. axis:    yes    9.702222    0.000000    0.000000    60     0.1617
  2. axis:    yes    0.000000    9.702222    0.000000    60     0.1617
  3. axis:    no     0.000000    0.000000   26.601111   168     0.1583

  Lengths:   9.702222   9.702222  26.601111
  Angles:   90.000000  90.000000  90.000000

Effective grid spacing dv^(1/3) = 0.1606

     iter     time        total  log10-change:
                         energy  eigst   dens
iter:   1 10:03:39  -775.339313
iter:   2 10:03:47   106.102553  +2.71  +0.05
iter:   3 10:03:54   104.565373  +3.37  -0.11
iter:   4 10:04:02  -202.021467  +3.27  -0.20
Writing to output.gpw (mode='')

iter:   5 10:04:10  -249.815518  +2.88  -0.23
iter:   6 10:04:17  -317.772731  +2.62  -0.51
iter:   7 10:04:25  -379.258916  +2.33  -0.57
iter:   8 10:04:33  -433.690389  +2.13  -0.54
iter:   9 10:04:47  -456.488908  +1.96  -0.44
Writing to output.gpw (mode='')

iter:  10 10:04:56  -386.201221  +1.54  -0.41
iter:  11 10:05:03  -358.587507  +1.38  -0.53
iter:  12 10:05:11  -367.365744  +1.02  -0.67
iter:  13 10:05:19  -356.607088  +1.18  -0.66
iter:  14 10:05:26  -352.077035  +1.17  -0.73
Writing to output.gpw (mode='')

iter:  15 10:05:34  -351.337331  +0.91  -0.74
iter:  16 10:05:42  -347.762650  +0.82  -0.77
iter:  17 10:05:49  -346.834931  +1.26  -0.89
iter:  18 10:05:57  -346.251069  +0.31  -0.96
iter:  19 10:06:05  -346.186953  +0.13  -0.99
Writing to output.gpw (mode='')

iter:  20 10:06:12  -345.625835  -0.11  -1.04
iter:  21 10:06:20  -345.077403  +0.18  -1.15
iter:  22 10:06:28  -345.123676  -0.28  -1.33
iter:  23 10:06:35  -344.985430  -0.42  -1.32
iter:  24 10:06:43  -344.945265  -0.15  -1.45
Writing to output.gpw (mode='')

iter:  25 10:06:50  -344.971353  -0.50  -1.60
iter:  26 10:06:58  -344.950281c -0.84  -1.64
iter:  27 10:07:06  -344.983377c -0.72  -1.83
iter:  28 10:07:14  -344.984596c -1.20  -1.91
iter:  29 10:07:21  -344.990204c -1.30  -1.97
Writing to output.gpw (mode='')

iter:  30 10:07:29  -344.995885c -1.18  -2.00
iter:  31 10:07:37  -345.013430c -1.33  -2.15
iter:  32 10:07:44  -345.017009c -1.64  -2.08
iter:  33 10:07:52  -345.022197c -1.70  -2.10
iter:  34 10:08:00  -345.020628c -1.62  -2.07
Writing to output.gpw (mode='')

iter:  35 10:08:07  -345.022677c -1.77  -2.29
iter:  36 10:08:15  -345.025030c -1.80  -2.40
iter:  37 10:08:22  -345.027548c -1.76  -2.45
iter:  38 10:08:30  -345.028708c -2.07  -2.50
iter:  39 10:08:38  -345.030209c -2.10  -2.68
Writing to output.gpw (mode='')

iter:  40 10:08:46  -345.031344c -2.21  -2.73
iter:  41 10:08:53  -345.032288c -2.37  -2.80
iter:  42 10:09:01  -345.033142c -2.44  -2.83
iter:  43 10:09:09  -345.033942c -2.46  -2.86
iter:  44 10:09:17  -345.034526c -2.61  -2.88
Writing to output.gpw (mode='')

iter:  45 10:09:24  -345.035365c -2.59  -2.89
iter:  46 10:09:32  -345.035930c -2.66  -2.98
iter:  47 10:09:40  -345.036292c -2.80  -2.91
iter:  48 10:09:53  -345.036431c -2.92  -3.05
iter:  49 10:10:00  -345.036658c -3.00  -3.25
Writing to output.gpw (mode='')

iter:  50 10:10:08  -345.036871c -3.20  -3.40
iter:  51 10:10:16  -345.037034c -3.19  -3.44
iter:  52 10:10:24  -345.037208c -3.04  -3.44
iter:  53 10:10:31  -345.037402c -3.20  -3.46
iter:  54 10:10:39  -345.037512c -3.29  -3.52
Writing to output.gpw (mode='')

iter:  55 10:10:47  -345.037594c -3.44  -3.79
iter:  56 10:10:54  -345.037668c -3.38  -3.73
iter:  57 10:11:02  -345.037727c -3.50  -3.75
iter:  58 10:11:10  -345.037801c -3.53  -3.76
iter:  59 10:11:17  -345.037840c -3.63  -3.59
Writing to output.gpw (mode='')

iter:  60 10:11:25  -345.037875c -3.98  -3.76
iter:  61 10:11:33  -345.037904c -3.88  -3.66
iter:  62 10:11:40  -345.037921c -3.89  -3.67
iter:  63 10:11:48  -345.037945c -3.95  -3.88
iter:  64 10:11:56  -345.037956c -4.01  -3.82
Writing to output.gpw (mode='')

iter:  65 10:12:04  -345.037976c -3.88  -3.82
iter:  66 10:12:11  -345.037990c -4.17  -3.92
iter:  67 10:12:19  -345.038003c -4.06  -3.90
iter:  68 10:12:26  -345.038016c -4.41  -3.92
iter:  69 10:12:34  -345.038025c -4.32  -4.17c
Writing to output.gpw (mode='')

iter:  70 10:12:42  -345.038032c -4.37  -4.40c
iter:  71 10:12:50  -345.038036c -4.41  -4.42c
iter:  72 10:12:57  -345.038040c -4.43  -4.44c
iter:  73 10:13:05  -345.038044c -4.44  -4.51c
iter:  74 10:13:12  -345.038051c -4.55  -4.58c
Writing to output.gpw (mode='')

iter:  75 10:13:20  -345.038053c -4.77  -4.72c
iter:  76 10:13:28  -345.038055c -4.86  -4.78c
iter:  77 10:13:35  -345.038057c -4.79  -4.83c
iter:  78 10:13:43  -345.038059c -4.89  -4.95c
iter:  79 10:13:51  -345.038060c -5.01  -4.94c
Writing to output.gpw (mode='')

iter:  80 10:13:58  -345.038061c -5.11  -4.96c
iter:  81 10:14:06  -345.038062c -5.06  -5.19c
iter:  82 10:14:14  -345.038062c -5.06  -5.22c
iter:  83 10:14:21  -345.038063c -5.26  -5.26c
iter:  84 10:14:29  -345.038063c -5.27  -5.19c
Writing to output.gpw (mode='')

iter:  85 10:14:37  -345.038064c -5.27  -5.13c
iter:  86 10:14:51  -345.038065c -5.29  -5.10c
iter:  87 10:14:59  -345.038065c -5.37  -5.08c
iter:  88 10:15:07  -345.038065c -5.50  -5.02c
iter:  89 10:15:14  -345.038065c -5.55  -5.07c
Writing to output.gpw (mode='')

iter:  90 10:15:22  -345.038066c -5.53  -5.06c
iter:  91 10:15:30  -345.038066c -5.58  -5.03c
iter:  92 10:15:37  -345.038066c -5.74  -5.02c
iter:  93 10:15:45  -345.038066c -5.76  -5.09c
iter:  94 10:15:53  -345.038066c -5.96  -5.22c
Writing to output.gpw (mode='')

iter:  95 10:16:00  -345.038066c -5.85  -5.22c
iter:  96 10:16:08  -345.038066c -6.12  -5.18c
iter:  97 10:16:16  -345.038066c -6.18  -5.08c
iter:  98 10:16:24  -345.038066c -6.21  -5.19c
iter:  99 10:16:31  -345.038066c -6.28  -5.17c
Writing to output.gpw (mode='')

iter: 100 10:16:39  -345.038066c -6.34  -5.59c
iter: 101 10:16:47  -345.038066c -6.32  -5.61c
iter: 102 10:16:54  -345.038066c -6.30  -5.68c
iter: 103 10:17:02  -345.038066c -6.34  -5.76c
iter: 104 10:17:10  -345.038066c -6.47  -5.92c
Writing to output.gpw (mode='')

iter: 105 10:17:17  -345.038066c -6.50  -5.97c
iter: 106 10:17:25  -345.038066c -6.58  -6.02c
iter: 107 10:17:34  -345.038066c -6.72  -6.24c
iter: 108 10:17:42  -345.038066c -6.73  -6.33c
iter: 109 10:17:50  -345.038066c -6.72  -6.34c
Writing to output.gpw (mode='')

iter: 110 10:17:57  -345.038066c -6.85  -6.34c
iter: 111 10:18:05  -345.038066c -6.89  -6.23c
iter: 112 10:18:12  -345.038066c -6.92  -6.40c
iter: 113 10:18:20  -345.038066c -6.95  -6.43c
iter: 114 10:18:28  -345.038066c -6.97  -6.39c
Writing to output.gpw (mode='')

iter: 115 10:18:35  -345.038066c -7.02  -6.46c
iter: 116 10:18:43  -345.038066c -6.96  -6.40c
iter: 117 10:18:51  -345.038066c -7.13  -6.29c
iter: 118 10:18:58  -345.038066c -7.19  -6.29c
iter: 119 10:19:06  -345.038066c -7.21  -6.22c
Writing to output.gpw (mode='')

iter: 120 10:19:14  -345.038066c -7.22  -6.32c
iter: 121 10:19:21  -345.038066c -7.24  -6.47c
iter: 122 10:19:29  -345.038066c -7.33  -6.56c
iter: 123 10:19:37  -345.038066c -7.39  -6.54c
iter: 124 10:19:49  -345.038066c -7.46c -6.43c

Converged after 124 iterations.

Dipole moment: (-21.227368, -18.191209, 0.356582) |e|*Ang

Energy contributions relative to reference atoms: (reference = -16540.070923)

Kinetic:       +240.024662
Potential:     -213.664886
External:        +0.000000
XC:            -372.147730
Entropy (-ST):   -0.148559
Local:           +0.824167
--------------------------
Free energy:   -345.112345
Extrapolated:  -345.038066

Dipole-layer corrected work functions: 3.378151, 2.692678 eV

Showing only first 2 kpts
 Kpt  Band  Eigenvalues  Occupancy
  0    37     -3.28028    1.98518
  0    38     -3.22483    1.95573
  0    39     -2.89001    0.10351
  0    40     -2.81303    0.02314

  1    37     -3.11738    1.67488
  1    38     -3.03710    1.01681
  1    39     -2.99334    0.60244
  1    40     -2.93029    0.21773


Fermi level: -3.03541

Gap: 0.012 eV
Transition (v -> c):
  (s=0, k=1, n=38, [0.12, -0.12, 0.00]) -> (s=0, k=7, n=39, [0.38, 0.38, 0.00])
Writing to output.gpw (mode='')


Forces in eV/Ang:
  0 Li    0.00351    0.01313   -0.27111
  1 Li    0.00385    0.00118   -0.27606
  2 Li   -0.00697    0.00594   -0.27151
  3 Li   -0.00118   -0.00529   -0.26916
  4 Li    0.00117   -0.00062   -0.28156
  5 Li    0.00069    0.00061   -0.27573
  6 Li    0.00255   -0.00864   -0.26869
  7 Li    0.00990   -0.00097   -0.27367
  8 Li   -0.01080   -0.00634   -0.27185
  9 Li    0.00606    0.00043    0.31457
 10 Li   -0.00405    0.00066    0.28695
 11 Li   -0.00220   -0.00073    0.25654
 12 Li    0.00026    0.01546    0.25704
 13 Li    0.00259    0.00322    0.26194
 14 Li   -0.00321   -0.01366    0.26291
 15 Li   -0.00217   -0.01616    0.26321
 16 Li    0.00387   -0.00272    0.26299
 17 Li   -0.00388    0.01400    0.26260
 18 Li   -0.00091    0.02153   -0.01443
 19 Li   -0.00437   -0.01157    0.04252
 20 Li    0.00244    0.00189    0.00599
 21 Li    0.00269    0.00308    0.04764
 22 Li    0.00177    0.00031    0.03192
 23 Li   -0.00557   -0.00185    0.04072
 24 Li    0.00164   -0.02345   -0.03909
 25 Li   -0.00930    0.01173    0.04457
 26 Li    0.00301    0.00027    0.01039
 27 Li    0.06320    0.02260   -1.06434
 28 Li   -0.06378    0.01342    0.04402
 29 Li    0.02894   -0.00254    0.00706
 30 Li    0.00408    0.00752   -0.04668
 31 Li    0.00509    0.01567   -0.02398
 32 Li   -0.00532    0.00577   -0.01941
 33 Li   -0.00952   -0.00230   -0.00643
 34 Li    0.01736   -0.03183   -0.02548
 35 Li   -0.00191   -0.00242   -0.01488
 36 O    13.63746   -1.31959   22.86485
 37 C    -0.42475   -0.13154   -0.12370
 38 C     0.19516   -0.00177    0.05808
 39 C     2.28334    2.68808    3.03264
 40 C    -0.10745   -0.06604    0.02777
 41 H    -0.03983    0.01885   -0.01336
 42 H    -0.01200    0.06114    0.09269
 43 H    -0.01646    0.01388   -0.03246
 44 H     0.00547    0.01290    0.00101
 45 H     0.13122   -0.03632    0.28789
 46 H     0.13024    0.27146   -0.02450
 47 H     0.00853    0.01334   -0.03616
 48 H    -0.01043    0.00924    0.02627
 49 H     0.06009   -0.03712   -0.01487
 50 H   -20.99411    1.79066   -0.22051
 51 N     5.43590   -0.68061  -13.16155
 52 N    -0.35492   -2.66178  -11.72888

System changes: positions 

Initializing position-dependent things.

Density initialized from wave functions
       .-----------------------.  
      /|                       |  
     / |                       |  
    /  |                       |  
   /   |                       |  
  /    |                       |  
 *     |                       |  
 |     |                       |  
 |     |                       |  
 |     O                       |  
 |     |                  H    N  
 |    HH                       |  
 |   C N                 H  C  |  
 |   H H                  CH   |  
 |  C  |               LiH     |  
 |   H |                       |  
 |     |     Li      LiH     Li|  
 |     |  Li      Li      Li   |  
 | Li  |   Li      Li          |  
 |     |Li      Li      Li     |  
 Li    | Li                    |  
 |   LLi     LLi     LLi       |  
 |     |  Li      Li      Li   |  
 | Li  |   Li      Li          |  
 |     |Li      Li      Li     |  
 Li    | Li      Li            |  
 |    Li      Li      Li       |  
 |     |                       |  
 |     |                       |  
 |     |                       |  
 |     |                       |  
 |     |                       |  
 |     |                       |  
 |     .-----------------------.  
 |    /                       /   
 |   /                       /    
 |  /                       /     
 | /                       /      
 |/                       /       
 *-----------------------*        

Positions:
   0 Li     1.617037    1.617037   10.000000    ( 0.0000,  0.0000,  0.0000)
   1 Li     4.851111    1.617037   10.000000    ( 0.0000,  0.0000,  0.0000)
   2 Li     8.085185    1.617037   10.000000    ( 0.0000,  0.0000,  0.0000)
   3 Li     1.617037    4.851111   10.000000    ( 0.0000,  0.0000,  0.0000)
   4 Li     4.851111    4.851111   10.000000    ( 0.0000,  0.0000,  0.0000)
   5 Li     8.085185    4.851111   10.000000    ( 0.0000,  0.0000,  0.0000)
   6 Li     1.617037    8.085185   10.000000    ( 0.0000,  0.0000,  0.0000)
   7 Li     4.851111    8.085185   10.000000    ( 0.0000,  0.0000,  0.0000)
   8 Li     8.085185    8.085185   10.000000    ( 0.0000,  0.0000,  0.0000)
   9 Li     0.000000    0.000000   11.617037    ( 0.0000,  0.0000,  0.0000)
  10 Li     3.234074    0.000000   11.617037    ( 0.0000,  0.0000,  0.0000)
  11 Li     6.468148    0.000000   11.617037    ( 0.0000,  0.0000,  0.0000)
  12 Li     0.000000    3.234074   11.617037    ( 0.0000,  0.0000,  0.0000)
  13 Li     3.234074    3.234074   11.617037    ( 0.0000,  0.0000,  0.0000)
  14 Li     6.468148    3.234074   11.617037    ( 0.0000,  0.0000,  0.0000)
  15 Li     0.000000    6.468148   11.617037    ( 0.0000,  0.0000,  0.0000)
  16 Li     3.234074    6.468148   11.617037    ( 0.0000,  0.0000,  0.0000)
  17 Li     6.468148    6.468148   11.617037    ( 0.0000,  0.0000,  0.0000)
  18 Li     1.617037    1.617070   13.469706    ( 0.0000,  0.0000,  0.0000)
  19 Li     4.851104    1.617021   13.469793    ( 0.0000,  0.0000,  0.0000)
  20 Li     8.085188    1.617041   13.469737    ( 0.0000,  0.0000,  0.0000)
  21 Li     1.617042    4.851116   13.469801    ( 0.0000,  0.0000,  0.0000)
  22 Li     4.851114    4.851111   13.469778    ( 0.0000,  0.0000,  0.0000)
  23 Li     8.085175    4.851108   13.469791    ( 0.0000,  0.0000,  0.0000)
  24 Li     1.617041    8.085149   13.469669    ( 0.0000,  0.0000,  0.0000)
  25 Li     4.851097    8.085201   13.469796    ( 0.0000,  0.0000,  0.0000)
  26 Li     8.085188    8.085184   13.469743    ( 0.0000,  0.0000,  0.0000)
  27 Li     0.000095    0.000034   15.444342    ( 0.0000,  0.0000,  0.0000)
  28 Li     3.233978    0.000020   15.446005    ( 0.0000,  0.0000,  0.0000)
  29 Li     6.468192   -0.000004   15.445949    ( 0.0000,  0.0000,  0.0000)
  30 Li     0.000006    3.234085   15.445869    ( 0.0000,  0.0000,  0.0000)
  31 Li     3.234084    3.234100   15.445902    ( 0.0000,  0.0000,  0.0000)
  32 Li     6.468138    3.234085   15.445909    ( 0.0000,  0.0000,  0.0000)
  33 Li    -0.000014    6.468145   15.445929    ( 0.0000,  0.0000,  0.0000)
  34 Li     3.234103    6.468098   15.445900    ( 0.0000,  0.0000,  0.0000)
  35 Li     6.468143    6.468142   15.445916    ( 0.0000,  0.0000,  0.0000)
  36 O      9.722687    9.700242   19.680251    ( 0.0000,  0.0000,  0.0000)
  37 C      9.689244   12.169084   19.681579    ( 0.0000,  0.0000,  0.0000)
  38 C     10.545226   13.438840   19.668442    ( 0.0000,  0.0000,  0.0000)
  39 C     10.516128   10.890739   19.650697    ( 0.0000,  0.0000,  0.0000)
  40 C      9.693786   14.711454   19.652767    ( 0.0000,  0.0000,  0.0000)
  41 H      9.056652   12.154511   20.575239    ( 0.0000,  0.0000,  0.0000)
  42 H      9.019675   12.182690   18.810548    ( 0.0000,  0.0000,  0.0000)
  43 H     11.203984   13.425902   18.792096    ( 0.0000,  0.0000,  0.0000)
  44 H     11.201105   13.443765   20.546326    ( 0.0000,  0.0000,  0.0000)
  45 H     11.178464   10.893204   18.772440    ( 0.0000,  0.0000,  0.0000)
  46 H     11.136211   10.802597   20.540728    ( 0.0000,  0.0000,  0.0000)
  47 H      9.051480   14.739159   18.768628    ( 0.0000,  0.0000,  0.0000)
  48 H      9.043918   14.756884   20.530217    ( 0.0000,  0.0000,  0.0000)
  49 H     10.307763   15.614672   19.646559    ( 0.0000,  0.0000,  0.0000)
  50 H      9.081618    9.754219   18.883429    ( 0.0000,  0.0000,  0.0000)
  51 N      9.710157    9.700979   17.176189    ( 0.0000,  0.0000,  0.0000)
  52 N      9.701467    9.698006   18.274961    ( 0.0000,  0.0000,  0.0000)

Unit cell:
           periodic     x           y           z      points  spacing
  1. axis:    yes    9.702222    0.000000    0.000000    60     0.1617
  2. axis:    yes    0.000000    9.702222    0.000000    60     0.1617
  3. axis:    no     0.000000    0.000000   26.601111   168     0.1583

  Lengths:   9.702222   9.702222  26.601111
  Angles:   90.000000  90.000000  90.000000

Effective grid spacing dv^(1/3) = 0.1606

     iter     time        total  log10-change:
                         energy  eigst   dens
iter:   1 10:20:00  -347.871065  -0.45
iter:   2 10:20:07  -347.738202  -0.69  -1.38
iter:   3 10:20:15  -347.257560  -0.68  -1.29
iter:   4 10:20:23  -347.156920  -1.21  -1.66
Writing to output.gpw (mode='')

iter:   5 10:20:31  -347.135164  -1.22  -1.95
iter:   6 10:20:39  -347.139482c -1.13  -2.21
iter:   7 10:20:46  -347.131819c -1.71  -2.13
iter:   8 10:20:54  -347.130445c -2.12  -2.33
iter:   9 10:21:02  -347.130143c -2.52  -2.50
Writing to output.gpw (mode='')

iter:  10 10:21:10  -347.129512c -2.43  -2.55
iter:  11 10:21:17  -347.129498c -3.05  -2.77
iter:  12 10:21:25  -347.129466c -3.22  -2.88
iter:  13 10:21:33  -347.129468c -3.28  -2.98
iter:  14 10:21:41  -347.129525c -3.34  -3.12
Writing to output.gpw (mode='')

iter:  15 10:21:48  -347.129590c -3.50  -3.19
iter:  16 10:21:56  -347.129565c -3.84  -3.23
iter:  17 10:22:04  -347.129558c -4.12  -3.29
iter:  18 10:22:12  -347.129550c -4.03  -3.35
iter:  19 10:22:19  -347.129561c -4.13  -3.59
Writing to output.gpw (mode='')

iter:  20 10:22:27  -347.129584c -4.43  -3.67
iter:  21 10:22:35  -347.129580c -4.84  -3.79
iter:  22 10:22:43  -347.129584c -4.96  -3.95
iter:  23 10:22:50  -347.129584c -5.03  -3.92
iter:  24 10:22:58  -347.129584c -5.20  -3.95
Writing to output.gpw (mode='')

iter:  25 10:23:06  -347.129590c -5.01  -3.96
iter:  26 10:23:14  -347.129583c -5.14  -3.87
iter:  27 10:23:21  -347.129584c -5.41  -3.92
iter:  28 10:23:29  -347.129584c -5.57  -3.99
iter:  29 10:23:37  -347.129582c -5.68  -4.01c
Writing to output.gpw (mode='')

iter:  30 10:23:45  -347.129580c -5.50  -4.21c
iter:  31 10:23:52  -347.129581c -5.62  -4.34c
iter:  32 10:24:00  -347.129583c -5.84  -4.39c
iter:  33 10:24:08  -347.129585c -5.88  -4.50c
iter:  34 10:24:16  -347.129585c -6.30  -4.67c
Writing to output.gpw (mode='')

iter:  35 10:24:24  -347.129585c -6.27  -4.90c
iter:  36 10:24:31  -347.129586c -6.34  -5.04c
iter:  37 10:24:39  -347.129586c -6.51  -5.11c
iter:  38 10:24:52  -347.129585c -6.50  -5.11c
iter:  39 10:25:00  -347.129585c -6.69  -5.29c
Writing to output.gpw (mode='')

iter:  40 10:25:08  -347.129585c -6.80  -5.42c
iter:  41 10:25:15  -347.129585c -6.78  -5.45c
iter:  42 10:25:23  -347.129585c -6.92  -5.49c
iter:  43 10:25:31  -347.129585c -7.02  -5.55c
iter:  44 10:25:39  -347.129585c -7.13  -5.56c
Writing to output.gpw (mode='')

iter:  45 10:25:47  -347.129585c -7.16  -5.61c
iter:  46 10:25:54  -347.129586c -7.17  -5.66c
iter:  47 10:26:02  -347.129585c -7.40c -5.85c

Converged after 47 iterations.

Dipole moment: (-23.616414, -17.581377, 0.243740) |e|*Ang

Energy contributions relative to reference atoms: (reference = -16540.070923)

Kinetic:       +235.188165
Potential:     -211.713502
External:        +0.000000
XC:            -371.345424
Entropy (-ST):   -0.147828
Local:           +0.815090
--------------------------
Free energy:   -347.203500
Extrapolated:  -347.129585

Dipole-layer corrected work functions: 3.385271, 2.916719 eV

Showing only first 2 kpts
 Kpt  Band  Eigenvalues  Occupancy
  0    37     -3.39700    1.98551
  0    38     -3.33795    1.95355
  0    39     -2.99976    0.09265
  0    40     -2.92492    0.02151

  1    37     -3.22440    1.62553
  1    38     -3.14753    0.96540
  1    39     -3.11622    0.66562
  1    40     -3.04811    0.22656


Fermi level: -3.15100

No gap
Writing to output.gpw (mode='')


Forces in eV/Ang:
  0 Li    0.00383    0.01319   -0.27134
  1 Li    0.00294    0.00105   -0.27460
  2 Li   -0.00644    0.00557   -0.27095
  3 Li   -0.00064   -0.00515   -0.26893
  4 Li    0.00013   -0.00010   -0.28341
  5 Li    0.00068    0.00086   -0.27446
  6 Li    0.00328   -0.00893   -0.26903
  7 Li    0.00907   -0.00130   -0.27268
  8 Li   -0.01059   -0.00615   -0.27161
  9 Li    0.00647    0.00009    0.31338
 10 Li   -0.00210    0.00071    0.28335
 11 Li   -0.00510   -0.00045    0.25479
 12 Li   -0.00059    0.01543    0.25602
 13 Li    0.00302    0.00600    0.25942
 14 Li   -0.00245   -0.01257    0.26227
 15 Li   -0.00278   -0.01572    0.26190
 16 Li    0.00493   -0.00537    0.25944
 17 Li   -0.00434    0.01246    0.26144
 18 Li    0.00038    0.02190   -0.01434
 19 Li   -0.00514   -0.00948    0.04355
 20 Li    0.00249    0.00088    0.00827
 21 Li    0.00153    0.00381    0.04960
 22 Li    0.00310   -0.00017    0.03116
 23 Li   -0.00514   -0.00149    0.04113
 24 Li    0.00351   -0.02424   -0.04031
 25 Li   -0.01045    0.01004    0.04610
 26 Li    0.00224    0.00060    0.01219
 27 Li    0.06646    0.02303   -1.37884
 28 Li   -0.04733    0.01345    0.03198
 29 Li    0.02025   -0.00294    0.00113
 30 Li    0.00323    0.01077   -0.04530
 31 Li    0.00538    0.01537   -0.02529
 32 Li   -0.00539    0.00587   -0.02024
 33 Li   -0.01095   -0.00761   -0.01023
 34 Li    0.01928   -0.03213   -0.02855
 35 Li   -0.00196   -0.00189   -0.01617
 36 O    11.25409   -1.16122   20.05806
 37 C    -0.31690   -0.04489   -0.07534
 38 C     0.11513    0.00809    0.05617
 39 C     1.92741    2.19588    2.70316
 40 C    -0.06987   -0.04882    0.02977
 41 H    -0.04750    0.02003   -0.01368
 42 H    -0.02406    0.04685    0.08063
 43 H    -0.00687    0.01285   -0.03528
 44 H     0.00650    0.01191    0.00191
 45 H     0.14446    0.02846    0.32660
 46 H     0.31032    0.41431    0.06723
 47 H     0.00060    0.01000   -0.03923
 48 H    -0.00873    0.00989    0.02201
 49 H     0.04883   -0.02906   -0.00994
 50 H   -15.52709    1.43663   -0.43188
 51 N     5.30364   -0.66343  -10.96326
 52 N    -3.08695   -2.29066  -10.35392

System changes: positions 

Initializing position-dependent things.

Density initialized from wave functions
       .-----------------------.  
      /|                       |  
     / |                       |  
    /  |                       |  
   /   |                       |  
  /    |                       |  
 *     |                       |  
 |     |                       |  
 |     |                       |  
 |     O                       |  
 |     |                  H    N  
 |    HH                       |  
 |   C N                 H  C  |  
 |   H H                  CH   |  
 |  C  |               LiH     |  
 |   H |                       |  
 |     |     Li      LiH     Li|  
 |     |  Li      Li      Li   |  
 | Li  |   Li      Li          |  
 |     |Li      Li      Li     |  
 Li    | Li                    |  
 |   LLi     LLi     LLi       |  
 |     |  Li      Li      Li   |  
 | Li  |   Li      Li          |  
 |     |Li      Li      Li     |  
 Li    | Li      Li            |  
 |    Li      Li      Li       |  
 |     |                       |  
 |     |                       |  
 |     |                       |  
 |     |                       |  
 |     |                       |  
 |     |                       |  
 |     .-----------------------.  
 |    /                       /   
 |   /                       /    
 |  /                       /     
 | /                       /      
 |/                       /       
 *-----------------------*        

Positions:
   0 Li     1.617037    1.617037   10.000000    ( 0.0000,  0.0000,  0.0000)
   1 Li     4.851111    1.617037   10.000000    ( 0.0000,  0.0000,  0.0000)
   2 Li     8.085185    1.617037   10.000000    ( 0.0000,  0.0000,  0.0000)
   3 Li     1.617037    4.851111   10.000000    ( 0.0000,  0.0000,  0.0000)
   4 Li     4.851111    4.851111   10.000000    ( 0.0000,  0.0000,  0.0000)
   5 Li     8.085185    4.851111   10.000000    ( 0.0000,  0.0000,  0.0000)
   6 Li     1.617037    8.085185   10.000000    ( 0.0000,  0.0000,  0.0000)
   7 Li     4.851111    8.085185   10.000000    ( 0.0000,  0.0000,  0.0000)
   8 Li     8.085185    8.085185   10.000000    ( 0.0000,  0.0000,  0.0000)
   9 Li     0.000000    0.000000   11.617037    ( 0.0000,  0.0000,  0.0000)
  10 Li     3.234074    0.000000   11.617037    ( 0.0000,  0.0000,  0.0000)
  11 Li     6.468148    0.000000   11.617037    ( 0.0000,  0.0000,  0.0000)
  12 Li     0.000000    3.234074   11.617037    ( 0.0000,  0.0000,  0.0000)
  13 Li     3.234074    3.234074   11.617037    ( 0.0000,  0.0000,  0.0000)
  14 Li     6.468148    3.234074   11.617037    ( 0.0000,  0.0000,  0.0000)
  15 Li     0.000000    6.468148   11.617037    ( 0.0000,  0.0000,  0.0000)
  16 Li     3.234074    6.468148   11.617037    ( 0.0000,  0.0000,  0.0000)
  17 Li     6.468148    6.468148   11.617037    ( 0.0000,  0.0000,  0.0000)
  18 Li     1.617045    1.617130   13.469669    ( 0.0000,  0.0000,  0.0000)
  19 Li     4.851086    1.617008   13.469914    ( 0.0000,  0.0000,  0.0000)
  20 Li     8.085194    1.617037   13.469772    ( 0.0000,  0.0000,  0.0000)
  21 Li     1.617040    4.851130   13.469944    ( 0.0000,  0.0000,  0.0000)
  22 Li     4.851130    4.851108   13.469856    ( 0.0000,  0.0000,  0.0000)
  23 Li     8.085164    4.851106   13.469902    ( 0.0000,  0.0000,  0.0000)
  24 Li     1.617061    8.085080   13.469556    ( 0.0000,  0.0000,  0.0000)
  25 Li     4.851063    8.085218   13.469927    ( 0.0000,  0.0000,  0.0000)
  26 Li     8.085190    8.085188   13.469786    ( 0.0000,  0.0000,  0.0000)
  27 Li     0.000290    0.000097   15.438863    ( 0.0000,  0.0000,  0.0000)
  28 Li     3.233949    0.000056   15.446019    ( 0.0000,  0.0000,  0.0000)
  29 Li     6.468195   -0.000014   15.445918    ( 0.0000,  0.0000,  0.0000)
  30 Li     0.000010    3.234132   15.445757    ( 0.0000,  0.0000,  0.0000)
  31 Li     3.234100    3.234139   15.445828    ( 0.0000,  0.0000,  0.0000)
  32 Li     6.468123    3.234101   15.445851    ( 0.0000,  0.0000,  0.0000)
  33 Li    -0.000052    6.468094   15.445880    ( 0.0000,  0.0000,  0.0000)
  34 Li     3.234165    6.468011   15.445806    ( 0.0000,  0.0000,  0.0000)
  35 Li     6.468137    6.468140   15.445865    ( 0.0000,  0.0000,  0.0000)
  36 O      9.738541    9.698095   19.716912    ( 0.0000,  0.0000,  0.0000)
  37 C      9.689035   12.169470   19.681662    ( 0.0000,  0.0000,  0.0000)
  38 C     10.545064   13.438919   19.668579    ( 0.0000,  0.0000,  0.0000)
  39 C     10.519148   10.893674   19.655923    ( 0.0000,  0.0000,  0.0000)
  40 C      9.693821   14.711425   19.652858    ( 0.0000,  0.0000,  0.0000)
  41 H      9.056482   12.154571   20.575201    ( 0.0000,  0.0000,  0.0000)
  42 H      9.019541   12.182730   18.810691    ( 0.0000,  0.0000,  0.0000)
  43 H     11.204021   13.425930   18.791987    ( 0.0000,  0.0000,  0.0000)
  44 H     11.201128   13.443791   20.546337    ( 0.0000,  0.0000,  0.0000)
  45 H     11.178924   10.893657   18.773529    ( 0.0000,  0.0000,  0.0000)
  46 H     11.138082   10.804525   20.541441    ( 0.0000,  0.0000,  0.0000)
  47 H      9.051435   14.739166   18.768507    ( 0.0000,  0.0000,  0.0000)
  48 H      9.043905   14.756914   20.530250    ( 0.0000,  0.0000,  0.0000)
  49 H     10.307826   15.614642   19.646561    ( 0.0000,  0.0000,  0.0000)
  50 H      9.072450    9.755953   18.881055    ( 0.0000,  0.0000,  0.0000)
  51 N      9.723408    9.699325   17.160024    ( 0.0000,  0.0000,  0.0000)
  52 N      9.677374    9.694114   18.255605    ( 0.0000,  0.0000,  0.0000)

Unit cell:
           periodic     x           y           z      points  spacing
  1. axis:    yes    9.702222    0.000000    0.000000    60     0.1617
  2. axis:    yes    0.000000    9.702222    0.000000    60     0.1617
  3. axis:    no     0.000000    0.000000   26.601111   168     0.1583

  Lengths:   9.702222   9.702222  26.601111
  Angles:   90.000000  90.000000  90.000000

Effective grid spacing dv^(1/3) = 0.1606

     iter     time        total  log10-change:
                         energy  eigst   dens
iter:   1 10:26:11  -348.837391  -0.68
iter:   2 10:26:19  -348.768536  -1.17  -1.94
iter:   3 10:26:27  -348.736459  -1.11  -1.86
iter:   4 10:26:35  -348.694921  -1.20  -1.78
Writing to output.gpw (mode='')

iter:   5 10:26:42  -348.686523  -2.12  -2.17
iter:   6 10:26:50  -348.683328c -2.05  -2.32
iter:   7 10:26:58  -348.680340c -2.19  -2.40
iter:   8 10:27:05  -348.679221c -2.15  -2.45
iter:   9 10:27:13  -348.678627c -2.75  -2.54
Writing to output.gpw (mode='')

iter:  10 10:27:21  -348.678536c -3.00  -2.80
iter:  11 10:27:28  -348.678503c -3.28  -2.86
iter:  12 10:27:36  -348.678505c -3.16  -2.94
iter:  13 10:27:44  -348.678645c -3.54  -2.99
iter:  14 10:27:51  -348.678603c -3.98  -3.04
Writing to output.gpw (mode='')

iter:  15 10:27:59  -348.678502c -3.69  -3.12
iter:  16 10:28:07  -348.678531c -4.28  -3.43
iter:  17 10:28:15  -348.678526c -4.14  -3.52
iter:  18 10:28:22  -348.678526c -4.54  -3.71
iter:  19 10:28:30  -348.678534c -4.56  -3.72
Writing to output.gpw (mode='')

iter:  20 10:28:38  -348.678540c -4.76  -3.78
iter:  21 10:28:45  -348.678541c -4.82  -3.95
iter:  22 10:28:53  -348.678544c -5.07  -4.07c
iter:  23 10:29:01  -348.678549c -5.10  -4.14c
iter:  24 10:29:09  -348.678550c -5.46  -4.23c
Writing to output.gpw (mode='')

iter:  25 10:29:16  -348.678549c -5.35  -4.28c
iter:  26 10:29:24  -348.678550c -5.62  -4.34c
iter:  27 10:29:32  -348.678552c -5.70  -4.40c
iter:  28 10:29:39  -348.678553c -5.85  -4.51c
iter:  29 10:29:53  -348.678552c -5.94  -4.62c
Writing to output.gpw (mode='')

iter:  30 10:30:01  -348.678553c -5.99  -4.65c
iter:  31 10:30:09  -348.678553c -5.96  -4.76c
iter:  32 10:30:16  -348.678554c -6.33  -4.96c
iter:  33 10:30:24  -348.678554c -6.31  -5.00c
iter:  34 10:30:32  -348.678554c -6.46  -5.15c
Writing to output.gpw (mode='')

iter:  35 10:30:40  -348.678554c -6.48  -5.25c
iter:  36 10:30:47  -348.678554c -6.62  -5.40c
iter:  37 10:30:55  -348.678554c -6.67  -5.44c
iter:  38 10:31:02  -348.678554c -6.61  -5.46c
iter:  39 10:31:10  -348.678554c -6.79  -5.45c
Writing to output.gpw (mode='')

iter:  40 10:31:18  -348.678554c -7.02  -5.28c
iter:  41 10:31:26  -348.678554c -7.01  -5.45c
iter:  42 10:31:34  -348.678554c -6.99  -5.51c
iter:  43 10:31:41  -348.678554c -7.16  -5.49c
iter:  44 10:31:49  -348.678555c -7.12  -5.55c
Writing to output.gpw (mode='')

iter:  45 10:31:57  -348.678555c -7.45c -5.61c

Converged after 45 iterations.

Dipole moment: (-23.474432, -16.869518, 0.138339) |e|*Ang

Energy contributions relative to reference atoms: (reference = -16540.070923)

Kinetic:       +232.698267
Potential:     -210.997893
External:        +0.000000
XC:            -371.121328
Entropy (-ST):   -0.145809
Local:           +0.815303
--------------------------
Free energy:   -348.751459
Extrapolated:  -348.678555

Dipole-layer corrected work functions: 3.391106, 3.125170 eV

Showing only first 2 kpts
 Kpt  Band  Eigenvalues  Occupancy
  0    37     -3.50545    1.98588
  0    38     -3.44549    1.95391
  0    39     -3.09770    0.07767
  0    40     -3.03156    0.02130

  1    37     -3.32457    1.58120
  1    38     -3.25137    0.93239
  1    39     -3.22661    0.69475
  1    40     -3.15625    0.23058


Fermi level: -3.25814

No gap

Forces in eV/Ang:
  0 Li    0.00391    0.01243   -0.27122
  1 Li    0.00181    0.00099   -0.27302
  2 Li   -0.00551    0.00581   -0.27019
  3 Li   -0.00069   -0.00433   -0.26878
  4 Li   -0.00029    0.00047   -0.28477
  5 Li    0.00069    0.00110   -0.27343
  6 Li    0.00380   -0.00900   -0.26921
  7 Li    0.00736   -0.00167   -0.27191
  8 Li   -0.00946   -0.00659   -0.27108
  9 Li    0.00603   -0.00019    0.31175
 10 Li   -0.00020    0.00080    0.27908
 11 Li   -0.00705   -0.00008    0.25514
 12 Li   -0.00104    0.01551    0.25470
 13 Li    0.00398    0.00652    0.25782
 14 Li   -0.00254   -0.01117    0.26134
 15 Li   -0.00280   -0.01539    0.25937
 16 Li    0.00617   -0.00596    0.25634
 17 Li   -0.00533    0.01058    0.26023
 18 Li    0.00134    0.02210   -0.01376
 19 Li   -0.00487   -0.00743    0.04495
 20 Li    0.00204    0.00193    0.00874
 21 Li    0.00145    0.00429    0.04935
 22 Li    0.00339   -0.00071    0.03009
 23 Li   -0.00480   -0.00108    0.04122
 24 Li    0.00472   -0.02495   -0.03889
 25 Li   -0.01033    0.00835    0.04775
 26 Li    0.00156   -0.00107    0.01235
 27 Li    0.07304    0.02385   -1.60036
 28 Li   -0.02513    0.01281    0.01811
 29 Li    0.00511   -0.00296   -0.00954
 30 Li    0.00264    0.01253   -0.04416
 31 Li    0.00514    0.01425   -0.02579
 32 Li   -0.00539    0.00701   -0.02128
 33 Li   -0.01091   -0.01198   -0.01530
 34 Li    0.01895   -0.03042   -0.03024
 35 Li   -0.00201   -0.00301   -0.01824
 36 O     9.32682   -0.86879   17.49389
 37 C    -0.23833   -0.00765   -0.03146
 38 C     0.07208    0.02336    0.04792
 39 C     1.59700    1.66305    2.37865
 40 C    -0.05178   -0.03164    0.02728
 41 H    -0.05241    0.02436   -0.01323
 42 H    -0.03008    0.03787    0.07150
 43 H    -0.00482    0.01265   -0.03057
 44 H     0.00193    0.01090   -0.00178
 45 H     0.13150    0.04393    0.33838
 46 H     0.47703    0.54856    0.14273
 47 H    -0.00301    0.00744   -0.03743
 48 H    -0.00614    0.01113    0.01718
 49 H     0.04270   -0.01867   -0.00539
 50 H   -13.37894    1.33435    1.22325
 51 N     5.09911   -0.56631   -9.29333
 52 N    -3.03750   -2.22150  -10.68089

System changes: positions 

Initializing position-dependent things.

Density initialized from wave functions
       .-----------------------.  
      /|                       |  
     / |                       |  
    /  |                       |  
   /   |                       |  
  /    |                       |  
 *     |                       |  
 |     |                       |  
 |     |                       |  
 |     O                       |  
 |     |                  H    N  
 |    HH                       |  
 |   C N                 H  C  |  
 |   H H                  CH   |  
 |  C  |               LiH     |  
 |   H |                       |  
 |     |     Li      LiH     Li|  
 |     |  Li      Li      Li   |  
 | Li  |   Li      Li          |  
 |     |Li      Li      Li     |  
 Li    | Li                    |  
 |   LLi     LLi     LLi       |  
 |     |  Li      Li      Li   |  
 | Li  |   Li      Li          |  
 |     |Li      Li      Li     |  
 Li    | Li      Li            |  
 |    Li      Li      Li       |  
 |     |                       |  
 |     |                       |  
 |     |                       |  
 |     |                       |  
 |     |                       |  
 |     |                       |  
 |     .-----------------------.  
 |    /                       /   
 |   /                       /    
 |  /                       /     
 | /                       /      
 |/                       /       
 *-----------------------*        

Positions:
   0 Li     1.617037    1.617037   10.000000    ( 0.0000,  0.0000,  0.0000)
   1 Li     4.851111    1.617037   10.000000    ( 0.0000,  0.0000,  0.0000)
   2 Li     8.085185    1.617037   10.000000    ( 0.0000,  0.0000,  0.0000)
   3 Li     1.617037    4.851111   10.000000    ( 0.0000,  0.0000,  0.0000)
   4 Li     4.851111    4.851111   10.000000    ( 0.0000,  0.0000,  0.0000)
   5 Li     8.085185    4.851111   10.000000    ( 0.0000,  0.0000,  0.0000)
   6 Li     1.617037    8.085185   10.000000    ( 0.0000,  0.0000,  0.0000)
   7 Li     4.851111    8.085185   10.000000    ( 0.0000,  0.0000,  0.0000)
   8 Li     8.085185    8.085185   10.000000    ( 0.0000,  0.0000,  0.0000)
   9 Li     0.000000    0.000000   11.617037    ( 0.0000,  0.0000,  0.0000)
  10 Li     3.234074    0.000000   11.617037    ( 0.0000,  0.0000,  0.0000)
  11 Li     6.468148    0.000000   11.617037    ( 0.0000,  0.0000,  0.0000)
  12 Li     0.000000    3.234074   11.617037    ( 0.0000,  0.0000,  0.0000)
  13 Li     3.234074    3.234074   11.617037    ( 0.0000,  0.0000,  0.0000)
  14 Li     6.468148    3.234074   11.617037    ( 0.0000,  0.0000,  0.0000)
  15 Li     0.000000    6.468148   11.617037    ( 0.0000,  0.0000,  0.0000)
  16 Li     3.234074    6.468148   11.617037    ( 0.0000,  0.0000,  0.0000)
  17 Li     6.468148    6.468148   11.617037    ( 0.0000,  0.0000,  0.0000)
  18 Li     1.617062    1.617209   13.469625    ( 0.0000,  0.0000,  0.0000)
  19 Li     4.851068    1.617005   13.470082    ( 0.0000,  0.0000,  0.0000)
  20 Li     8.085199    1.617045   13.469816    ( 0.0000,  0.0000,  0.0000)
  21 Li     1.617039    4.851151   13.470121    ( 0.0000,  0.0000,  0.0000)
  22 Li     4.851149    4.851100   13.469950    ( 0.0000,  0.0000,  0.0000)
  23 Li     8.085152    4.851107   13.470046    ( 0.0000,  0.0000,  0.0000)
  24 Li     1.617093    8.084986   13.469425    ( 0.0000,  0.0000,  0.0000)
  25 Li     4.851022    8.085228   13.470108    ( 0.0000,  0.0000,  0.0000)
  26 Li     8.085187    8.085176   13.469838    ( 0.0000,  0.0000,  0.0000)
  27 Li     0.000596    0.000186   15.430527    ( 0.0000,  0.0000,  0.0000)
  28 Li     3.234075    0.000096   15.445941    ( 0.0000,  0.0000,  0.0000)
  29 Li     6.468080   -0.000026   15.445792    ( 0.0000,  0.0000,  0.0000)
  30 Li     0.000011    3.234202   15.445619    ( 0.0000,  0.0000,  0.0000)
  31 Li     3.234118    3.234180   15.445730    ( 0.0000,  0.0000,  0.0000)
  32 Li     6.468104    3.234133   15.445767    ( 0.0000,  0.0000,  0.0000)
  33 Li    -0.000096    6.468001   15.445779    ( 0.0000,  0.0000,  0.0000)
  34 Li     3.234237    6.467915   15.445678    ( 0.0000,  0.0000,  0.0000)
  35 Li     6.468130    6.468125   15.445784    ( 0.0000,  0.0000,  0.0000)
  36 O      9.747659    9.697623   19.748264    ( 0.0000,  0.0000,  0.0000)
  37 C      9.689202   12.170081   19.682049    ( 0.0000,  0.0000,  0.0000)
  38 C     10.544671   13.439138   19.668685    ( 0.0000,  0.0000,  0.0000)
  39 C     10.520955   10.893840   19.660579    ( 0.0000,  0.0000,  0.0000)
  40 C      9.693930   14.711502   19.652946    ( 0.0000,  0.0000,  0.0000)
  41 H      9.056235   12.154686   20.575156    ( 0.0000,  0.0000,  0.0000)
  42 H      9.019344   12.182738   18.810824    ( 0.0000,  0.0000,  0.0000)
  43 H     11.204063   13.425968   18.791896    ( 0.0000,  0.0000,  0.0000)
  44 H     11.201112   13.443817   20.546313    ( 0.0000,  0.0000,  0.0000)
  45 H     11.179361   10.894210   18.774948    ( 0.0000,  0.0000,  0.0000)
  46 H     11.141584   10.807900   20.542823    ( 0.0000,  0.0000,  0.0000)
  47 H      9.051365   14.739161   18.768374    ( 0.0000,  0.0000,  0.0000)
  48 H      9.043908   14.756963   20.530260    ( 0.0000,  0.0000,  0.0000)
  49 H     10.307883   15.614679   19.646593    ( 0.0000,  0.0000,  0.0000)
  50 H      9.065411    9.758240   18.894225    ( 0.0000,  0.0000,  0.0000)
  51 N      9.739082    9.698044   17.148590    ( 0.0000,  0.0000,  0.0000)
  52 N      9.654216    9.688658   18.223450    ( 0.0000,  0.0000,  0.0000)

Unit cell:
           periodic     x           y           z      points  spacing
  1. axis:    yes    9.702222    0.000000    0.000000    60     0.1617
  2. axis:    yes    0.000000    9.702222    0.000000    60     0.1617
  3. axis:    no     0.000000    0.000000   26.601111   168     0.1583

  Lengths:   9.702222   9.702222  26.601111
  Angles:   90.000000  90.000000  90.000000

Effective grid spacing dv^(1/3) = 0.1606

     iter     time        total  log10-change:
                         energy  eigst   dens
iter:   1 10:32:09  -350.180558  -0.69
iter:   2 10:32:19  -350.112438  -1.18  -1.83
iter:   3 10:32:30  -350.071416  -0.96  -1.94
iter:   4 10:32:38  -350.016213  -1.07  -1.73
Writing to output.gpw (mode='')

iter:   5 10:32:45  -350.023226  -1.69  -2.25
iter:   6 10:32:53  -350.025122c -1.53  -2.21
iter:   7 10:33:01  -350.003992c -1.68  -2.18
iter:   8 10:33:09  -350.002822c -2.51  -2.53
iter:   9 10:33:16  -350.002467c -2.50  -2.62
Writing to output.gpw (mode='')

iter:  10 10:33:24  -350.002312c -2.67  -2.78
iter:  11 10:33:33  -350.002229c -3.18  -2.90
iter:  12 10:33:41  -350.002305c -3.38  -2.95
iter:  13 10:33:48  -350.002213c -3.76  -3.02
iter:  14 10:33:56  -350.002293c -3.46  -3.14
Writing to output.gpw (mode='')

iter:  15 10:34:04  -350.002255c -4.32  -3.17
iter:  16 10:34:12  -350.002210c -4.05  -3.27
iter:  17 10:34:20  -350.002219c -4.34  -3.65
iter:  18 10:34:27  -350.002216c -4.60  -3.65
iter:  19 10:34:35  -350.002222c -4.74  -3.77
Writing to output.gpw (mode='')

iter:  20 10:34:49  -350.002229c -5.01  -3.84
iter:  21 10:34:58  -350.002225c -5.10  -3.88
iter:  22 10:35:05  -350.002225c -5.29  -4.15c
iter:  23 10:35:13  -350.002225c -5.51  -4.21c
iter:  24 10:35:21  -350.002224c -5.49  -4.23c
Writing to output.gpw (mode='')

iter:  25 10:35:29  -350.002223c -5.53  -4.38c
iter:  26 10:35:37  -350.002224c -5.92  -4.44c
iter:  27 10:35:44  -350.002225c -5.94  -4.47c
iter:  28 10:35:52  -350.002224c -6.07  -4.53c
iter:  29 10:36:00  -350.002225c -6.26  -4.60c
Writing to output.gpw (mode='')

iter:  30 10:36:07  -350.002224c -6.45  -4.68c
iter:  31 10:36:15  -350.002225c -6.55  -4.75c
iter:  32 10:36:23  -350.002225c -6.63  -4.86c
iter:  33 10:36:30  -350.002225c -6.57  -5.09c
iter:  34 10:36:38  -350.002225c -6.86  -5.12c
Writing to output.gpw (mode='')

iter:  35 10:36:46  -350.002225c -6.82  -5.16c
iter:  36 10:36:53  -350.002225c -6.99  -5.30c
iter:  37 10:37:01  -350.002225c -6.83  -5.34c
iter:  38 10:37:09  -350.002225c -7.22  -5.41c
iter:  39 10:37:17  -350.002225c -7.26  -5.46c
Writing to output.gpw (mode='')

iter:  40 10:37:24  -350.002225c -7.29  -5.57c
iter:  41 10:37:32  -350.002225c -7.41c -5.79c

Converged after 41 iterations.

Dipole moment: (-22.829590, -16.201220, 0.038998) |e|*Ang

Energy contributions relative to reference atoms: (reference = -16540.070923)

Kinetic:       +231.627133
Potential:     -211.393904
External:        +0.000000
XC:            -370.976526
Entropy (-ST):   -0.145021
Local:           +0.813583
--------------------------
Free energy:   -350.074736
Extrapolated:  -350.002225

Dipole-layer corrected work functions: 3.395963, 3.320995 eV

Showing only first 2 kpts
 Kpt  Band  Eigenvalues  Occupancy
  0    37     -3.60587    1.98590
  0    38     -3.54474    1.95292
  0    39     -3.19034    0.06695
  0    40     -3.13066    0.02078

  1    37     -3.41698    1.52632
  1    38     -3.34832    0.89880
  1    39     -3.33055    0.72776
  1    40     -3.25810    0.23683


Fermi level: -3.35848

No gap
Writing to output.gpw (mode='')


Forces in eV/Ang:
  0 Li    0.00414    0.01135   -0.27067
  1 Li    0.00142    0.00094   -0.27216
  2 Li   -0.00532    0.00586   -0.26941
  3 Li   -0.00039   -0.00332   -0.26881
  4 Li   -0.00066    0.00075   -0.28620
  5 Li    0.00030    0.00078   -0.27285
  6 Li    0.00457   -0.00878   -0.26910
  7 Li    0.00563   -0.00181   -0.27156
  8 Li   -0.00872   -0.00642   -0.27019
  9 Li    0.00560   -0.00039    0.31007
 10 Li    0.00177    0.00075    0.27486
 11 Li   -0.00907    0.00030    0.25466
 12 Li   -0.00143    0.01514    0.25428
 13 Li    0.00413    0.00733    0.25625
 14 Li   -0.00213   -0.00948    0.26021
 15 Li   -0.00273   -0.01475    0.25807
 16 Li    0.00663   -0.00693    0.25396
 17 Li   -0.00537    0.00864    0.25901
 18 Li    0.00282    0.02105   -0.01077
 19 Li   -0.00478   -0.00485    0.04377
 20 Li    0.00108    0.00167    0.01303
 21 Li    0.00151    0.00401    0.04806
 22 Li    0.00344   -0.00108    0.03010
 23 Li   -0.00441   -0.00044    0.04045
 24 Li    0.00600   -0.02392   -0.03225
 25 Li   -0.00933    0.00604    0.04658
 26 Li    0.00028   -0.00144    0.01440
 27 Li    0.07219    0.02557   -1.77331
 28 Li   -0.00678    0.01110    0.00508
 29 Li   -0.00659   -0.00177   -0.02138
 30 Li    0.00140    0.01522   -0.04483
 31 Li    0.00402    0.01135   -0.02506
 32 Li   -0.00352    0.00522   -0.02101
 33 Li   -0.00921   -0.01746   -0.02153
 34 Li    0.01580   -0.02529   -0.02943
 35 Li   -0.00152   -0.00266   -0.01952
 36 O     7.19738   -0.57793   15.30165
 37 C    -0.16745   -0.00244    0.00368
 38 C     0.05521    0.03537    0.03993
 39 C     1.25782    1.26072    2.11059
 40 C    -0.04403   -0.01691    0.02386
 41 H    -0.05521    0.02670   -0.01412
 42 H    -0.03008    0.02973    0.07025
 43 H    -0.00496    0.01345   -0.02481
 44 H    -0.00452    0.01110   -0.00687
 45 H     0.10706    0.02584    0.31403
 46 H     0.56989    0.61514    0.15304
 47 H    -0.00498    0.00634   -0.03463
 48 H    -0.00367    0.01319    0.01289
 49 H     0.03853   -0.00868   -0.00156
 50 H   -10.25401    1.12908    2.45107
 51 N     4.80982   -0.39533  -10.01608
 52 N    -3.56911   -2.18142   -8.53936

System changes: positions 

Initializing position-dependent things.

Density initialized from wave functions
       .-----------------------.  
      /|                       |  
     / |                       |  
    /  |                       |  
   /   |                       |  
  /    |                       |  
 *     |                       |  
 |     |                       |  
 |     O                       |  
 |     |                       |  
 |     |                  H    N  
 |    HH                       |  
 |   C N                 H  C  |  
 |   H H                  CH   |  
 |  C  |               LiH     |  
 |   H |               H       |  
 |     |     Li      Li      Li|  
 |     |  Li      Li      Li   |  
 | Li  |   Li      Li          |  
 |     |Li      Li      Li     |  
 Li    | Li                    |  
 |   LLi     LLi     LLi       |  
 |     |  Li      Li      Li   |  
 | Li  |   Li      Li          |  
 |     |Li      Li      Li     |  
 Li    | Li      Li            |  
 |    Li      Li      Li       |  
 |     |                       |  
 |     |                       |  
 |     |                       |  
 |     |                       |  
 |     |                       |  
 |     |                       |  
 |     .-----------------------.  
 |    /                       /   
 |   /                       /    
 |  /                       /     
 | /                       /      
 |/                       /       
 *-----------------------*        

Positions:
   0 Li     1.617037    1.617037   10.000000    ( 0.0000,  0.0000,  0.0000)
   1 Li     4.851111    1.617037   10.000000    ( 0.0000,  0.0000,  0.0000)
   2 Li     8.085185    1.617037   10.000000    ( 0.0000,  0.0000,  0.0000)
   3 Li     1.617037    4.851111   10.000000    ( 0.0000,  0.0000,  0.0000)
   4 Li     4.851111    4.851111   10.000000    ( 0.0000,  0.0000,  0.0000)
   5 Li     8.085185    4.851111   10.000000    ( 0.0000,  0.0000,  0.0000)
   6 Li     1.617037    8.085185   10.000000    ( 0.0000,  0.0000,  0.0000)
   7 Li     4.851111    8.085185   10.000000    ( 0.0000,  0.0000,  0.0000)
   8 Li     8.085185    8.085185   10.000000    ( 0.0000,  0.0000,  0.0000)
   9 Li     0.000000    0.000000   11.617037    ( 0.0000,  0.0000,  0.0000)
  10 Li     3.234074    0.000000   11.617037    ( 0.0000,  0.0000,  0.0000)
  11 Li     6.468148    0.000000   11.617037    ( 0.0000,  0.0000,  0.0000)
  12 Li     0.000000    3.234074   11.617037    ( 0.0000,  0.0000,  0.0000)
  13 Li     3.234074    3.234074   11.617037    ( 0.0000,  0.0000,  0.0000)
  14 Li     6.468148    3.234074   11.617037    ( 0.0000,  0.0000,  0.0000)
  15 Li     0.000000    6.468148   11.617037    ( 0.0000,  0.0000,  0.0000)
  16 Li     3.234074    6.468148   11.617037    ( 0.0000,  0.0000,  0.0000)
  17 Li     6.468148    6.468148   11.617037    ( 0.0000,  0.0000,  0.0000)
  18 Li     1.617091    1.617303   13.469592    ( 0.0000,  0.0000,  0.0000)
  19 Li     4.851045    1.617013   13.470288    ( 0.0000,  0.0000,  0.0000)
  20 Li     8.085198    1.617054   13.469904    ( 0.0000,  0.0000,  0.0000)
  21 Li     1.617041    4.851174   13.470340    ( 0.0000,  0.0000,  0.0000)
  22 Li     4.851172    4.851089   13.470077    ( 0.0000,  0.0000,  0.0000)
  23 Li     8.085137    4.851111   13.470229    ( 0.0000,  0.0000,  0.0000)
  24 Li     1.617140    8.084875   13.469308    ( 0.0000,  0.0000,  0.0000)
  25 Li     4.850980    8.085230   13.470331    ( 0.0000,  0.0000,  0.0000)
  26 Li     8.085177    8.085159   13.469920    ( 0.0000,  0.0000,  0.0000)
  27 Li     0.000971    0.000316   15.419280    ( 0.0000,  0.0000,  0.0000)
  28 Li     3.234309    0.000136   15.445785    ( 0.0000,  0.0000,  0.0000)
  29 Li     6.467882   -0.000031   15.445564    ( 0.0000,  0.0000,  0.0000)
  30 Li     0.000006    3.234304   15.445424    ( 0.0000,  0.0000,  0.0000)
  31 Li     3.234131    3.234212   15.445611    ( 0.0000,  0.0000,  0.0000)
  32 Li     6.468095    3.234156   15.445664    ( 0.0000,  0.0000,  0.0000)
  33 Li    -0.000136    6.467854   15.445612    ( 0.0000,  0.0000,  0.0000)
  34 Li     3.234302    6.467830   15.445526    ( 0.0000,  0.0000,  0.0000)
  35 Li     6.468124    6.468110   15.445674    ( 0.0000,  0.0000,  0.0000)
  36 O      9.751375    9.698459   19.783220    ( 0.0000,  0.0000,  0.0000)
  37 C      9.689600   12.170645   19.682647    ( 0.0000,  0.0000,  0.0000)
  38 C     10.544293   13.439473   19.668780    ( 0.0000,  0.0000,  0.0000)
  39 C     10.522013   10.892969   19.665933    ( 0.0000,  0.0000,  0.0000)
  40 C      9.694013   14.711650   19.653034    ( 0.0000,  0.0000,  0.0000)
  41 H      9.055915   12.154846   20.575090    ( 0.0000,  0.0000,  0.0000)
  42 H      9.019126   12.182733   18.811039    ( 0.0000,  0.0000,  0.0000)
  43 H     11.204089   13.426027   18.791822    ( 0.0000,  0.0000,  0.0000)
  44 H     11.201044   13.443859   20.546244    ( 0.0000,  0.0000,  0.0000)
  45 H     11.179727   10.894599   18.776495    ( 0.0000,  0.0000,  0.0000)
  46 H     11.146203   10.812288   20.544351    ( 0.0000,  0.0000,  0.0000)
  47 H      9.051283   14.739157   18.768226    ( 0.0000,  0.0000,  0.0000)
  48 H      9.043922   14.757041   20.530257    ( 0.0000,  0.0000,  0.0000)
  49 H     10.307961   15.614770   19.646647    ( 0.0000,  0.0000,  0.0000)
  50 H      9.065283    9.760556   18.918861    ( 0.0000,  0.0000,  0.0000)
  51 N      9.758063    9.697558   17.118392    ( 0.0000,  0.0000,  0.0000)
  52 N      9.625351    9.680779   18.196904    ( 0.0000,  0.0000,  0.0000)

Unit cell:
           periodic     x           y           z      points  spacing
  1. axis:    yes    9.702222    0.000000    0.000000    60     0.1617
  2. axis:    yes    0.000000    9.702222    0.000000    60     0.1617
  3. axis:    no     0.000000    0.000000   26.601111   168     0.1583

  Lengths:   9.702222   9.702222  26.601111
  Angles:   90.000000  90.000000  90.000000

Effective grid spacing dv^(1/3) = 0.1606

     iter     time        total  log10-change:
                         energy  eigst   dens
iter:   1 10:37:41  -351.472207  -0.66
iter:   2 10:37:49  -351.423125  -0.95  -1.71
iter:   3 10:37:57  -351.371297  -1.39  -1.65
iter:   4 10:38:05  -351.336094  -1.48  -1.93
Writing to output.gpw (mode='')

iter:   5 10:38:12  -351.334742c -1.88  -2.30
iter:   6 10:38:20  -351.335884c -1.88  -2.43
iter:   7 10:38:28  -351.332579c -2.39  -2.35
iter:   8 10:38:35  -351.332102c -2.63  -2.64
iter:   9 10:38:43  -351.332263c -2.81  -2.84
Writing to output.gpw (mode='')

iter:  10 10:38:50  -351.332088c -3.28  -2.98
iter:  11 10:38:58  -351.332043c -3.45  -2.95
iter:  12 10:39:06  -351.332049c -3.63  -3.17
iter:  13 10:39:14  -351.332125c -3.72  -3.22
iter:  14 10:39:21  -351.332010c -3.76  -3.20
Writing to output.gpw (mode='')

iter:  15 10:39:29  -351.331991c -4.52  -3.39
iter:  16 10:39:37  -351.331981c -4.69  -3.48
iter:  17 10:39:51  -351.331971c -4.36  -3.57
iter:  18 10:39:59  -351.331980c -4.49  -3.72
iter:  19 10:40:06  -351.331987c -4.80  -3.83
Writing to output.gpw (mode='')

iter:  20 10:40:14  -351.331990c -5.22  -3.92
iter:  21 10:40:22  -351.331993c -5.27  -4.03c
iter:  22 10:40:29  -351.331992c -5.42  -4.15c
iter:  23 10:40:37  -351.331992c -5.71  -4.26c
iter:  24 10:40:44  -351.331991c -5.71  -4.29c
Writing to output.gpw (mode='')

iter:  25 10:40:52  -351.331992c -5.79  -4.46c
iter:  26 10:40:59  -351.331993c -5.70  -4.62c
iter:  27 10:41:07  -351.331993c -6.20  -4.75c
iter:  28 10:41:15  -351.331992c -6.14  -4.80c
iter:  29 10:41:22  -351.331993c -6.42  -4.93c
Writing to output.gpw (mode='')

iter:  30 10:41:30  -351.331993c -6.28  -5.01c
iter:  31 10:41:37  -351.331993c -6.68  -5.15c
iter:  32 10:41:45  -351.331993c -6.60  -5.21c
iter:  33 10:41:52  -351.331993c -6.76  -5.32c
iter:  34 10:42:00  -351.331993c -6.72  -5.33c
Writing to output.gpw (mode='')

iter:  35 10:42:08  -351.331993c -6.90  -5.35c
iter:  36 10:42:15  -351.331993c -6.97  -5.36c
iter:  37 10:42:23  -351.331993c -7.16  -5.45c
iter:  38 10:42:30  -351.331993c -7.28  -5.73c
iter:  39 10:42:38  -351.331993c -7.22  -5.78c
Writing to output.gpw (mode='')

iter:  40 10:42:45  -351.331993c -7.21  -5.83c
iter:  41 10:42:53  -351.331993c -7.20  -5.86c
iter:  42 10:43:01  -351.331993c -7.48c -5.87c

Converged after 42 iterations.

Dipole moment: (-21.379699, -15.485438, -0.046320) |e|*Ang

Energy contributions relative to reference atoms: (reference = -16540.070923)

Kinetic:       +226.237234
Potential:     -208.130349
External:        +0.000000
XC:            -370.182434
Entropy (-ST):   -0.144325
Local:           +0.815718
--------------------------
Free energy:   -351.404156
Extrapolated:  -351.331993

Dipole-layer corrected work functions: 3.399815, 3.488857 eV

Showing only first 2 kpts
 Kpt  Band  Eigenvalues  Occupancy
  0    37     -3.69148    1.98583
  0    38     -3.63230    1.95446
  0    39     -3.27027    0.05969
  0    40     -3.22389    0.02404

  1    37     -3.49857    1.49475
  1    38     -3.43302    0.88732
  1    39     -3.41668    0.73033
  1    40     -3.34162    0.22722


Fermi level: -3.44434

No gap
Writing to output.gpw (mode='')


Forces in eV/Ang:
  0 Li    0.00409    0.01076   -0.27066
  1 Li    0.00146    0.00095   -0.27167
  2 Li   -0.00520    0.00652   -0.26938
  3 Li   -0.00066   -0.00251   -0.26870
  4 Li   -0.00053    0.00095   -0.28720
  5 Li    0.00006    0.00038   -0.27286
  6 Li    0.00509   -0.00889   -0.26935
  7 Li    0.00445   -0.00201   -0.27154
  8 Li   -0.00820   -0.00682   -0.26986
  9 Li    0.00539   -0.00051    0.31016
 10 Li    0.00219    0.00073    0.27374
 11 Li   -0.00976    0.00061    0.25517
 12 Li   -0.00164    0.01506    0.25402
 13 Li    0.00474    0.00729    0.25548
 14 Li   -0.00251   -0.00888    0.25940
 15 Li   -0.00259   -0.01454    0.25724
 16 Li    0.00756   -0.00708    0.25267
 17 Li   -0.00600    0.00796    0.25784
 18 Li    0.00432    0.02251   -0.01373
 19 Li   -0.00464   -0.00388    0.04364
 20 Li   -0.00041    0.00265    0.01237
 21 Li    0.00190    0.00363    0.04643
 22 Li    0.00298   -0.00142    0.03060
 23 Li   -0.00403    0.00028    0.04000
 24 Li    0.00690   -0.02513   -0.03103
 25 Li   -0.00810    0.00539    0.04654
 26 Li   -0.00140   -0.00303    0.01138
 27 Li    0.06876    0.03040   -2.06803
 28 Li   -0.00066    0.00923    0.00345
 29 Li   -0.01238   -0.00046   -0.02713
 30 Li    0.00070    0.00966   -0.03831
 31 Li    0.00426    0.01092   -0.02384
 32 Li   -0.00308    0.00558   -0.02120
 33 Li   -0.00670   -0.01370   -0.01968
 34 Li    0.01392   -0.02252   -0.02805
 35 Li   -0.00274   -0.00463   -0.02126
 36 O     5.45993   -0.25320   12.71869
 37 C    -0.12173   -0.01407    0.02593
 38 C     0.04876    0.03860    0.03411
 39 C     1.03648    0.99136    1.88122
 40 C    -0.03835   -0.00472    0.01909
 41 H    -0.05640    0.03395   -0.01037
 42 H    -0.01892    0.01519    0.07302
 43 H    -0.00561    0.01467   -0.01998
 44 H    -0.00818    0.01407   -0.00963
 45 H     0.04291   -0.03099    0.31127
 46 H     0.63598    0.66104    0.17943
 47 H    -0.00608    0.00618   -0.03132
 48 H    -0.00255    0.01500    0.01000
 49 H     0.03436   -0.00056    0.00073
 50 H    -7.90994    0.94022    3.43199
 51 N     4.15340   -0.21226   -7.02004
 52 N    -3.32843   -2.26057   -9.47585

System changes: positions 

Initializing position-dependent things.

Density initialized from wave functions
       .-----------------------.  
      /|                       |  
     / |                       |  
    /  |                       |  
   /   |                       |  
  /    |                       |  
 *     |                       |  
 |     |                       |  
 |     O                       |  
 |     |                       |  
 |     |                  H    N  
 |    HH                       |  
 |   C N                 H  C  |  
 |   H H                  CH   |  
 |  C  |               LiH     |  
 |   H |               H       |  
 |     |     Li      Li      Li|  
 |     |  Li      Li      Li   |  
 |     |   Li      Li      Li  |  
 |     |Li      Li      Li     |  
 Li    | Li                    |  
 |   LLi     LLi     LLi       |  
 |     |  Li      Li      Li   |  
 | Li  |   Li      Li          |  
 |     |Li      Li      Li     |  
 Li    | Li      Li            |  
 |    Li      Li      Li       |  
 |     |                       |  
 |     |                       |  
 |     |                       |  
 |     |                       |  
 |     |                       |  
 |     |                       |  
 |     .-----------------------.  
 |    /                       /   
 |   /                       /    
 |  /                       /     
 | /                       /      
 |/                       /       
 *-----------------------*        

Positions:
   0 Li     1.617037    1.617037   10.000000    ( 0.0000,  0.0000,  0.0000)
   1 Li     4.851111    1.617037   10.000000    ( 0.0000,  0.0000,  0.0000)
   2 Li     8.085185    1.617037   10.000000    ( 0.0000,  0.0000,  0.0000)
   3 Li     1.617037    4.851111   10.000000    ( 0.0000,  0.0000,  0.0000)
   4 Li     4.851111    4.851111   10.000000    ( 0.0000,  0.0000,  0.0000)
   5 Li     8.085185    4.851111   10.000000    ( 0.0000,  0.0000,  0.0000)
   6 Li     1.617037    8.085185   10.000000    ( 0.0000,  0.0000,  0.0000)
   7 Li     4.851111    8.085185   10.000000    ( 0.0000,  0.0000,  0.0000)
   8 Li     8.085185    8.085185   10.000000    ( 0.0000,  0.0000,  0.0000)
   9 Li     0.000000    0.000000   11.617037    ( 0.0000,  0.0000,  0.0000)
  10 Li     3.234074    0.000000   11.617037    ( 0.0000,  0.0000,  0.0000)
  11 Li     6.468148    0.000000   11.617037    ( 0.0000,  0.0000,  0.0000)
  12 Li     0.000000    3.234074   11.617037    ( 0.0000,  0.0000,  0.0000)
  13 Li     3.234074    3.234074   11.617037    ( 0.0000,  0.0000,  0.0000)
  14 Li     6.468148    3.234074   11.617037    ( 0.0000,  0.0000,  0.0000)
  15 Li     0.000000    6.468148   11.617037    ( 0.0000,  0.0000,  0.0000)
  16 Li     3.234074    6.468148   11.617037    ( 0.0000,  0.0000,  0.0000)
  17 Li     6.468148    6.468148   11.617037    ( 0.0000,  0.0000,  0.0000)
  18 Li     1.617125    1.617401   13.469538    ( 0.0000,  0.0000,  0.0000)
  19 Li     4.851024    1.617018   13.470475    ( 0.0000,  0.0000,  0.0000)
  20 Li     8.085187    1.617066   13.469979    ( 0.0000,  0.0000,  0.0000)
  21 Li     1.617048    4.851190   13.470534    ( 0.0000,  0.0000,  0.0000)
  22 Li     4.851187    4.851078   13.470207    ( 0.0000,  0.0000,  0.0000)
  23 Li     8.085124    4.851119   13.470397    ( 0.0000,  0.0000,  0.0000)
  24 Li     1.617184    8.084764   13.469205    ( 0.0000,  0.0000,  0.0000)
  25 Li     4.850951    8.085235   13.470532    ( 0.0000,  0.0000,  0.0000)
  26 Li     8.085157    8.085138   13.469973    ( 0.0000,  0.0000,  0.0000)
  27 Li     0.001271    0.000470   15.407683    ( 0.0000,  0.0000,  0.0000)
  28 Li     3.234474    0.000162   15.445691    ( 0.0000,  0.0000,  0.0000)
  29 Li     6.467719   -0.000025   15.445350    ( 0.0000,  0.0000,  0.0000)
  30 Li    -0.000001    3.234351   15.445282    ( 0.0000,  0.0000,  0.0000)
  31 Li     3.234146    3.234243   15.445511    ( 0.0000,  0.0000,  0.0000)
  32 Li     6.468091    3.234176   15.445570    ( 0.0000,  0.0000,  0.0000)
  33 Li    -0.000154    6.467764   15.445490    ( 0.0000,  0.0000,  0.0000)
  34 Li     3.234347    6.467764   15.445402    ( 0.0000,  0.0000,  0.0000)
  35 Li     6.468111    6.468086   15.445565    ( 0.0000,  0.0000,  0.0000)
  36 O      9.752117    9.700376   19.810341    ( 0.0000,  0.0000,  0.0000)
  37 C      9.689889   12.170841   19.683156    ( 0.0000,  0.0000,  0.0000)
  38 C     10.544152   13.439745   19.668859    ( 0.0000,  0.0000,  0.0000)
  39 C     10.523036   10.892746   19.670927    ( 0.0000,  0.0000,  0.0000)
  40 C      9.694017   14.711795   19.653089    ( 0.0000,  0.0000,  0.0000)
  41 H      9.055631   12.155033   20.575053    ( 0.0000,  0.0000,  0.0000)
  42 H      9.019039   12.182673   18.811312    ( 0.0000,  0.0000,  0.0000)
  43 H     11.204089   13.426094   18.791775    ( 0.0000,  0.0000,  0.0000)
  44 H     11.200967   13.443925   20.546170    ( 0.0000,  0.0000,  0.0000)
  45 H     11.179631   10.894403   18.777839    ( 0.0000,  0.0000,  0.0000)
  46 H     11.150216   10.816098   20.545586    ( 0.0000,  0.0000,  0.0000)
  47 H      9.051220   14.739167   18.768108    ( 0.0000,  0.0000,  0.0000)
  48 H      9.043933   14.757122   20.530255    ( 0.0000,  0.0000,  0.0000)
  49 H     10.308043   15.614869   19.646692    ( 0.0000,  0.0000,  0.0000)
  50 H      9.067751    9.762171   18.943647    ( 0.0000,  0.0000,  0.0000)
  51 N      9.772125    9.698086   17.102259    ( 0.0000,  0.0000,  0.0000)
  52 N      9.603013    9.671998   18.164906    ( 0.0000,  0.0000,  0.0000)

Unit cell:
           periodic     x           y           z      points  spacing
  1. axis:    yes    9.702222    0.000000    0.000000    60     0.1617
  2. axis:    yes    0.000000    9.702222    0.000000    60     0.1617
  3. axis:    no     0.000000    0.000000   26.601111   168     0.1583

  Lengths:   9.702222   9.702222  26.601111
  Angles:   90.000000  90.000000  90.000000

Effective grid spacing dv^(1/3) = 0.1606

     iter     time        total  log10-change:
                         energy  eigst   dens
iter:   1 10:43:10  -352.358565  -0.85
iter:   2 10:43:18  -352.346942  -1.39  -2.13
iter:   3 10:43:25  -352.331745c -1.29  -2.21
iter:   4 10:43:33  -352.321892c -1.44  -2.03
Writing to output.gpw (mode='')

iter:   5 10:43:41  -352.327690c -1.90  -2.39
iter:   6 10:43:48  -352.324472c -1.99  -2.40
iter:   7 10:43:56  -352.317852c -1.98  -2.37
iter:   8 10:44:04  -352.318310c -2.81  -2.78
iter:   9 10:44:11  -352.318794c -2.51  -2.65
Writing to output.gpw (mode='')

iter:  10 10:44:19  -352.317123c -2.90  -2.78
iter:  11 10:44:27  -352.316903c -2.93  -2.88
iter:  12 10:44:34  -352.316850c -3.74  -2.95
iter:  13 10:44:48  -352.316834c -3.74  -3.05
iter:  14 10:44:58  -352.316839c -3.95  -3.22
Writing to output.gpw (mode='')

iter:  15 10:45:05  -352.316835c -4.07  -3.25
iter:  16 10:45:13  -352.316802c -4.40  -3.24
iter:  17 10:45:20  -352.316803c -4.53  -3.49
iter:  18 10:45:28  -352.316807c -4.46  -3.66
iter:  19 10:45:36  -352.316807c -5.04  -3.75
Writing to output.gpw (mode='')

iter:  20 10:45:44  -352.316800c -5.26  -3.82
iter:  21 10:45:51  -352.316799c -5.27  -4.01c
iter:  22 10:45:59  -352.316799c -5.43  -4.10c
iter:  23 10:46:07  -352.316799c -5.66  -4.15c
iter:  24 10:46:14  -352.316800c -6.19  -4.18c
Writing to output.gpw (mode='')

iter:  25 10:46:22  -352.316803c -5.85  -4.28c
iter:  26 10:46:30  -352.316803c -6.31  -4.40c
iter:  27 10:46:37  -352.316802c -6.21  -4.48c
iter:  28 10:46:45  -352.316801c -6.61  -4.52c
iter:  29 10:46:52  -352.316800c -6.57  -4.65c
Writing to output.gpw (mode='')

iter:  30 10:47:00  -352.316800c -6.73  -4.75c
iter:  31 10:47:08  -352.316801c -6.94  -4.76c
iter:  32 10:47:15  -352.316801c -6.71  -4.89c
iter:  33 10:47:23  -352.316801c -7.09  -5.02c
iter:  34 10:47:31  -352.316802c -7.08  -5.01c
Writing to output.gpw (mode='')

iter:  35 10:47:38  -352.316802c -7.35  -5.34c
iter:  36 10:47:46  -352.316802c -7.27  -5.44c
iter:  37 10:47:54  -352.316802c -7.68c -5.45c

Converged after 37 iterations.

Dipole moment: (-20.028163, -14.834343, -0.107135) |e|*Ang

Energy contributions relative to reference atoms: (reference = -16540.070923)

Kinetic:       +224.165766
Potential:     -207.359970
External:        +0.000000
XC:            -369.866402
Entropy (-ST):   -0.143754
Local:           +0.815682
--------------------------
Free energy:   -352.388679
Extrapolated:  -352.316802

Dipole-layer corrected work functions: 3.402122, 3.608072 eV

Showing only first 2 kpts
 Kpt  Band  Eigenvalues  Occupancy
  0    37     -3.75235    1.98586
  0    38     -3.69358    1.95492
  0    39     -3.32498    0.05307
  0    40     -3.28758    0.02547

  1    37     -3.55346    1.44914
  1    38     -3.49280    0.87761
  1    39     -3.47828    0.73811
  1    40     -3.40246    0.22756


Fermi level: -3.50510

No gap
Writing to output.gpw (mode='')


Forces in eV/Ang:
  0 Li    0.00414    0.01000   -0.27039
  1 Li    0.00159    0.00087   -0.27127
  2 Li   -0.00523    0.00685   -0.26922
  3 Li   -0.00076   -0.00166   -0.26860
  4 Li   -0.00056    0.00094   -0.28795
  5 Li   -0.00014   -0.00014   -0.27269
  6 Li    0.00553   -0.00880   -0.26942
  7 Li    0.00319   -0.00199   -0.27145
  8 Li   -0.00764   -0.00681   -0.26930
  9 Li    0.00508   -0.00054    0.30993
 10 Li    0.00291    0.00058    0.27194
 11 Li   -0.01058    0.00085    0.25525
 12 Li   -0.00183    0.01480    0.25394
 13 Li    0.00503    0.00745    0.25459
 14 Li   -0.00276   -0.00787    0.25878
 15 Li   -0.00241   -0.01436    0.25665
 16 Li    0.00793   -0.00742    0.25192
 17 Li   -0.00596    0.00707    0.25697
 18 Li    0.00614    0.02320   -0.01459
 19 Li   -0.00484   -0.00259    0.04284
 20 Li   -0.00188    0.00321    0.01405
 21 Li    0.00234    0.00278    0.04500
 22 Li    0.00264   -0.00147    0.03072
 23 Li   -0.00381    0.00103    0.03944
 24 Li    0.00769   -0.02512   -0.02635
 25 Li   -0.00663    0.00423    0.04538
 26 Li   -0.00308   -0.00419    0.01028
 27 Li    0.06423    0.03370   -2.21176
 28 Li    0.00792    0.00689   -0.00222
 29 Li   -0.01940    0.00114   -0.03496
 30 Li   -0.00050    0.01020   -0.03788
 31 Li    0.00412    0.00969   -0.02299
 32 Li   -0.00166    0.00437   -0.02082
 33 Li   -0.00397   -0.01565   -0.02285
 34 Li    0.01079   -0.01832   -0.02619
 35 Li   -0.00305   -0.00525   -0.02229
 36 O     3.86756    0.09178   10.76390
 37 C    -0.06910   -0.00243    0.05775
 38 C     0.03413    0.04348    0.02647
 39 C     0.80608    0.73848    1.68151
 40 C    -0.03059    0.00334    0.01591
 41 H    -0.05747    0.03699   -0.00965
 42 H    -0.01339    0.00054    0.06919
 43 H    -0.00401    0.01610   -0.01832
 44 H    -0.00927    0.01580   -0.00906
 45 H    -0.00599   -0.07664    0.29712
 46 H     0.68417    0.67520    0.20276
 47 H    -0.00731    0.00606   -0.02980
 48 H    -0.00211    0.01632    0.00852
 49 H     0.03034    0.00453    0.00236
 50 H    -5.57184    0.71708    4.09830
 51 N     3.96329    0.02162   -7.41178
 52 N    -3.64569   -2.35997   -7.40846

System changes: positions 

Initializing position-dependent things.

Density initialized from wave functions
       .-----------------------.  
      /|                       |  
     / |                       |  
    /  |                       |  
   /   |                       |  
  /    |                       |  
 *     |                       |  
 |     |                       |  
 |     |                       |  
 |     |                       |  
 |     |                  H    |  
[...]
  1    38     -3.67436    0.85347
  1    39     -3.66738    0.78598
  1    40     -3.60895    0.33500


Fermi level: -3.68912

No gap

Forces in eV/Ang:
  0 Li    0.00293    0.00420   -0.26777
  1 Li    0.00092    0.00608   -0.28078
  2 Li   -0.00155    0.01382   -0.26736
  3 Li    0.00411    0.00203   -0.27836
  4 Li    0.00128    0.00314   -0.28696
  5 Li    0.00126   -0.00741   -0.27120
  6 Li    0.01374   -0.00157   -0.26824
  7 Li   -0.00807    0.00228   -0.26923
  8 Li   -0.00460   -0.00363   -0.27136
  9 Li    0.00485   -0.00101    0.29093
 10 Li   -0.00266    0.00987    0.25148
 11 Li   -0.01581    0.02237    0.28830
 12 Li    0.01138   -0.00906    0.25678
 13 Li   -0.04167   -0.04315    0.27526
 14 Li    0.01186   -0.01922    0.28281
 15 Li    0.01967   -0.02257    0.29076
 16 Li   -0.01068   -0.00190    0.26918
 17 Li   -0.02965   -0.03589    0.28192
 18 Li   -0.00838   -0.00543    0.00496
 19 Li    0.00249    0.00382   -0.01542
 20 Li    0.00093   -0.00810   -0.00808
 21 Li    0.00661    0.00278   -0.01850
 22 Li    0.01135    0.01050    0.01352
 23 Li   -0.00848    0.00382   -0.01578
 24 Li   -0.01437    0.00556   -0.00113
 25 Li    0.00449    0.00251   -0.00373
 26 Li    0.01035    0.00557    0.00964
 27 Li    0.01531    0.02061   -0.01034
 28 Li   -0.00529   -0.00566   -0.01362
 29 Li   -0.01607    0.00465   -0.00749
 30 Li   -0.01297   -0.00182   -0.01582
 31 Li    0.00216    0.00229    0.00404
 32 Li    0.00969   -0.00702    0.01238
 33 Li    0.00032   -0.01326    0.00020
 34 Li    0.00129   -0.00288    0.00887
 35 Li    0.00256   -0.00171    0.01119
 36 O     0.02125   -0.01661    0.01167
 37 C    -0.00614   -0.00158   -0.01172
 38 C    -0.00389    0.00957   -0.00216
 39 C    -0.00139    0.01845   -0.00223
 40 C    -0.00335    0.00655   -0.01113
 41 H     0.02368   -0.00202   -0.00594
 42 H    -0.01131    0.00736   -0.01115
 43 H    -0.02944    0.00199   -0.01761
 44 H     0.00633    0.03417    0.00149
 45 H     0.00706    0.01373   -0.00045
 46 H     0.00536   -0.01619    0.00053
 47 H    -0.00573   -0.00896   -0.00089
 48 H     0.00415   -0.00100   -0.00301
 49 H     0.01074    0.00054   -0.00095
 50 H    -0.01718   -0.00669    0.01895
 51 N    -0.00546    0.04470   -0.04273
 52 N    -0.00535   -0.02053    0.07323

System changes: positions 

Initializing position-dependent things.

Density initialized from wave functions
       .-----------------------.  
      /|                       |  
     / |                       |  
    /  |                       |  
   /   |                       |  
  /    |                       |  
 *     |                       |  
 |     |                       |  
 |     |                      H|  
 |     |                       |  
 |     |                   H   |  
 |     |H                 H N  |  
 | CC H|                     N |  
 |O C  |                  H    |  
 |   H H       Li        H     Li 
 |     |                       |  
 |   Li|     Li      Li        |  
 |     |  Li      Li      Li   |  
 | Li  |   Li      Li          |  
 |     |Li      Li      Li     |  
 |     |         Li            |  
 |   LLi     LLi     LLi       |  
 |     |  Li      Li      Li   |  
 | Li  |   Li      Li          |  
 |     |Li      Li      Li     |  
 Li    | Li      Li            |  
 |    Li      Li      Li       |  
 |     |                       |  
 |     |                       |  
 |     |                       |  
 |     |                       |  
 |     |                       |  
 |     |                       |  
 |     .-----------------------.  
 |    /                       /   
 |   /                       /    
 |  /                       /     
 | /                       /      
 |/                       /       
 *-----------------------*        

Positions:
   0 Li     1.617037    1.617037   10.000000    ( 0.0000,  0.0000,  0.0000)
   1 Li     4.851111    1.617037   10.000000    ( 0.0000,  0.0000,  0.0000)
   2 Li     8.085185    1.617037   10.000000    ( 0.0000,  0.0000,  0.0000)
   3 Li     1.617037    4.851111   10.000000    ( 0.0000,  0.0000,  0.0000)
   4 Li     4.851111    4.851111   10.000000    ( 0.0000,  0.0000,  0.0000)
   5 Li     8.085185    4.851111   10.000000    ( 0.0000,  0.0000,  0.0000)
   6 Li     1.617037    8.085185   10.000000    ( 0.0000,  0.0000,  0.0000)
   7 Li     4.851111    8.085185   10.000000    ( 0.0000,  0.0000,  0.0000)
   8 Li     8.085185    8.085185   10.000000    ( 0.0000,  0.0000,  0.0000)
   9 Li     0.000000    0.000000   11.617037    ( 0.0000,  0.0000,  0.0000)
  10 Li     3.234074    0.000000   11.617037    ( 0.0000,  0.0000,  0.0000)
  11 Li     6.468148    0.000000   11.617037    ( 0.0000,  0.0000,  0.0000)
  12 Li     0.000000    3.234074   11.617037    ( 0.0000,  0.0000,  0.0000)
  13 Li     3.234074    3.234074   11.617037    ( 0.0000,  0.0000,  0.0000)
  14 Li     6.468148    3.234074   11.617037    ( 0.0000,  0.0000,  0.0000)
  15 Li     0.000000    6.468148   11.617037    ( 0.0000,  0.0000,  0.0000)
  16 Li     3.234074    6.468148   11.617037    ( 0.0000,  0.0000,  0.0000)
  17 Li     6.468148    6.468148   11.617037    ( 0.0000,  0.0000,  0.0000)
  18 Li     1.594197    1.577716   13.534776    ( 0.0000,  0.0000,  0.0000)
  19 Li     4.826166    1.613685   13.496674    ( 0.0000,  0.0000,  0.0000)
  20 Li     8.108238    1.599662   13.511695    ( 0.0000,  0.0000,  0.0000)
  21 Li     1.612503    4.812586   13.500791    ( 0.0000,  0.0000,  0.0000)
  22 Li     4.818225    4.823689   13.463263    ( 0.0000,  0.0000,  0.0000)
  23 Li     8.099166    4.811683   13.490044    ( 0.0000,  0.0000,  0.0000)
  24 Li     1.617570    8.087497   13.495851    ( 0.0000,  0.0000,  0.0000)
  25 Li     4.822548    8.095434   13.479908    ( 0.0000,  0.0000,  0.0000)
  26 Li     8.070868    8.065832   13.428237    ( 0.0000,  0.0000,  0.0000)
  27 Li    -0.071441   -0.149787   15.551729    ( 0.0000,  0.0000,  0.0000)
  28 Li     3.219006   -0.001807   15.492658    ( 0.0000,  0.0000,  0.0000)
  29 Li     6.423044    0.006203   15.392920    ( 0.0000,  0.0000,  0.0000)
  30 Li     0.005701    3.164014   15.492531    ( 0.0000,  0.0000,  0.0000)
  31 Li     3.234954    3.232895   15.461470    ( 0.0000,  0.0000,  0.0000)
  32 Li     6.462843    3.232215   15.423215    ( 0.0000,  0.0000,  0.0000)
  33 Li     0.003351    6.383630   15.390525    ( 0.0000,  0.0000,  0.0000)
  34 Li     3.220454    6.472317   15.424262    ( 0.0000,  0.0000,  0.0000)
  35 Li     6.424693    6.437246   15.331014    ( 0.0000,  0.0000,  0.0000)
  36 O      9.921444    9.966783   20.872848    ( 0.0000,  0.0000,  0.0000)
  37 C      9.769331   12.304190   20.072438    ( 0.0000,  0.0000,  0.0000)
  38 C     10.596594   13.521338   19.648495    ( 0.0000,  0.0000,  0.0000)
  39 C     10.628418   11.056355   20.272881    ( 0.0000,  0.0000,  0.0000)
  40 C      9.753399   14.781479   19.439425    ( 0.0000,  0.0000,  0.0000)
  41 H      9.242219   12.519263   21.007957    ( 0.0000,  0.0000,  0.0000)
  42 H      8.997288   12.097499   19.317606    ( 0.0000,  0.0000,  0.0000)
  43 H     11.149466   13.288433   18.728527    ( 0.0000,  0.0000,  0.0000)
  44 H     11.354913   13.713408   20.415112    ( 0.0000,  0.0000,  0.0000)
  45 H     11.074572   10.748476   19.314734    ( 0.0000,  0.0000,  0.0000)
  46 H     11.450485   11.275914   20.959038    ( 0.0000,  0.0000,  0.0000)
  47 H      9.003275   14.631514   18.655447    ( 0.0000,  0.0000,  0.0000)
  48 H      9.223161   15.055627   20.355300    ( 0.0000,  0.0000,  0.0000)
  49 H     10.373147   15.634612   19.151288    ( 0.0000,  0.0000,  0.0000)
  50 H      9.255459    9.655416   20.249286    ( 0.0000,  0.0000,  0.0000)
  51 N      9.000569    8.831145   17.320952    ( 0.0000,  0.0000,  0.0000)
  52 N      8.642139    8.475415   18.317646    ( 0.0000,  0.0000,  0.0000)

Unit cell:
           periodic     x           y           z      points  spacing
  1. axis:    yes    9.702222    0.000000    0.000000    60     0.1617
  2. axis:    yes    0.000000    9.702222    0.000000    60     0.1617
  3. axis:    no     0.000000    0.000000   26.601111   168     0.1583

  Lengths:   9.702222   9.702222  26.601111
  Angles:   90.000000  90.000000  90.000000

Effective grid spacing dv^(1/3) = 0.1606

     iter     time        total  log10-change:
                         energy  eigst   dens
iter:   1 20:28:30  -359.837120  -2.56
iter:   2 20:28:38  -359.835940  -3.05  -2.46
iter:   3 20:28:46  -359.834994c -4.01  -2.59
iter:   4 20:28:53  -359.834847c -4.11  -2.94
Writing to output.gpw (mode='')

iter:   5 20:29:01  -359.834815c -4.10  -3.19
iter:   6 20:29:08  -359.834835c -3.57  -3.33
iter:   7 20:29:16  -359.834812c -4.69  -3.38
iter:   8 20:29:24  -359.834798c -4.88  -3.64
iter:   9 20:29:32  -359.834794c -5.10  -3.75
Writing to output.gpw (mode='')

iter:  10 20:29:39  -359.834793c -5.14  -3.80
iter:  11 20:29:52  -359.834789c -5.70  -4.00
iter:  12 20:30:00  -359.834791c -5.81  -4.09c
iter:  13 20:30:07  -359.834792c -5.97  -4.14c
iter:  14 20:30:15  -359.834795c -6.09  -4.28c
Writing to output.gpw (mode='')

iter:  15 20:30:22  -359.834795c -5.94  -4.37c
iter:  16 20:30:30  -359.834794c -6.48  -4.54c
iter:  17 20:30:38  -359.834791c -6.46  -4.60c
iter:  18 20:30:45  -359.834791c -6.92  -4.84c
iter:  19 20:30:53  -359.834792c -6.98  -5.00c
Writing to output.gpw (mode='')

iter:  20 20:31:00  -359.834792c -7.12  -5.10c
iter:  21 20:31:08  -359.834792c -7.25  -5.22c
iter:  22 20:31:16  -359.834792c -7.34  -5.31c
iter:  23 20:31:23  -359.834792c -7.59c -5.46c

Converged after 23 iterations.

Dipole moment: (-20.731248, -9.803104, -0.293509) |e|*Ang

Energy contributions relative to reference atoms: (reference = -16540.070923)

Kinetic:       +184.374833
Potential:     -182.376138
External:        +0.000000
XC:            -362.595739
Entropy (-ST):   -0.147212
Local:           +0.835858
--------------------------
Free energy:   -359.908398
Extrapolated:  -359.834792

Dipole-layer corrected work functions: 3.407443, 3.971668 eV

Showing only first 2 kpts
 Kpt  Band  Eigenvalues  Occupancy
  0    37     -3.93373    1.98497
  0    38     -3.86426    1.94104
  0    39     -3.51015    0.05381
  0    40     -3.46781    0.02344

  1    37     -3.71552    1.25398
  1    38     -3.67466    0.85210
  1    39     -3.66780    0.78581
  1    40     -3.60941    0.33516


Fermi level: -3.68956

No gap
Writing to output.gpw (mode='')


Forces in eV/Ang:
  0 Li    0.00295    0.00434   -0.26764
  1 Li    0.00101    0.00578   -0.28092
  2 Li   -0.00165    0.01394   -0.26737
  3 Li    0.00397    0.00202   -0.27857
  4 Li    0.00130    0.00318   -0.28662
  5 Li    0.00140   -0.00741   -0.27130
  6 Li    0.01374   -0.00165   -0.26830
  7 Li   -0.00798    0.00237   -0.26950
  8 Li   -0.00465   -0.00361   -0.27122
  9 Li    0.00450   -0.00161    0.29102
 10 Li   -0.00278    0.00923    0.25235
 11 Li   -0.01551    0.02189    0.28825
 12 Li    0.01118   -0.00907    0.25636
 13 Li   -0.04046   -0.04238    0.27488
 14 Li    0.01086   -0.01893    0.28202
 15 Li    0.01958   -0.02285    0.29094
 16 Li   -0.01062   -0.00165    0.26974
 17 Li   -0.02971   -0.03571    0.28093
 18 Li   -0.00894   -0.00652    0.00517
 19 Li    0.00277    0.00416   -0.01528
 20 Li    0.00108   -0.00895   -0.00791
 21 Li    0.00565    0.00439   -0.01767
 22 Li    0.01079    0.00886    0.01101
 23 Li   -0.00735    0.00419   -0.01473
 24 Li   -0.01378    0.00594   -0.00267
 25 Li    0.00287    0.00216   -0.00385
 26 Li    0.01135    0.00744    0.00745
 27 Li    0.01577    0.01654   -0.00804
 28 Li   -0.00746   -0.00440   -0.01261
 29 Li   -0.01420    0.00443   -0.00658
 30 Li   -0.01116   -0.00282   -0.01523
 31 Li    0.00262    0.00253    0.00518
 32 Li    0.00744   -0.00509    0.01218
 33 Li    0.00027   -0.01052    0.00060
 34 Li    0.00318   -0.00427    0.00857
 35 Li    0.00067   -0.00336    0.01313
 36 O     0.02509   -0.02159    0.00245
 37 C    -0.01321   -0.00515   -0.01077
 38 C    -0.00392    0.01344   -0.00099
 39 C    -0.00008    0.01482   -0.00319
 40 C    -0.00267    0.00954   -0.00514
 41 H     0.01509    0.00030    0.00331
 42 H    -0.00274    0.00370   -0.00662
 43 H    -0.02845    0.00077   -0.02303
 44 H     0.01247    0.04419   -0.00070
 45 H     0.01217   -0.00337   -0.00865
 46 H    -0.00544   -0.00333    0.00048
 47 H     0.00047   -0.00342    0.00594
 48 H     0.00100   -0.00509   -0.00996
 49 H     0.00755    0.00123   -0.00909
 50 H    -0.02302   -0.01389    0.01599
 51 N    -0.01996    0.03775    0.00041
 52 N     0.01656    0.00207    0.00996

Timing:                                      incl.     excl.
-------------------------------------------------------------------
Density initialized from wave functions:     8.904     8.899   0.0% |
 Symmetrize density:                         0.004     0.004   0.0% |
Forces:                                     66.317    66.317   0.2% |
Hamiltonian:                               865.900     0.020   0.0% |
 Atomic:                                     0.036     0.036   0.0% |
  XC Correction:                             0.000     0.000   0.0% |
 Calculate atomic Hamiltonians:              0.062     0.062   0.0% |
 Communicate:                               14.753    14.753   0.0% |
 Hartree integrate/restrict:                 3.196     3.196   0.0% |
 Initialize Hamiltonian:                     0.000     0.000   0.0% |
 Poisson:                                   41.428    15.165   0.0% |
  Communicate from 1D:                       4.048     4.048   0.0% |
  Communicate from 2D:                       4.014     4.014   0.0% |
  Communicate to 1D:                         2.238     2.238   0.0% |
  Communicate to 2D:                         5.650     5.650   0.0% |
  FFT 1D:                                    5.194     5.194   0.0% |
  FFT 2D:                                    5.118     5.118   0.0% |
 XC 3D grid:                               805.762   124.836   0.3% |
  VdW-DF integral:                         680.926     5.701   0.0% |
   Convolution:                             61.033    61.033   0.2% |
   FFT:                                     26.486    26.486   0.1% |
   gather:                                 229.508   229.508   0.6% |
   hmm1:                                    22.186    22.186   0.1% |
   hmm2:                                    29.457    29.457   0.1% |
   iFFT:                                    27.416    27.416   0.1% |
   potential:                              275.547     7.429   0.0% |
    collect:                                41.245    41.245   0.1% |
    p1:                                    120.648   120.648   0.3% |
    p2:                                     44.849    44.849   0.1% |
    sum:                                    61.375    61.375   0.2% |
   splines:                                  3.591     3.591   0.0% |
 vbar:                                       0.643     0.643   0.0% |
LCAO initialization:                         1.226     0.183   0.0% |
 LCAO eigensolver:                           0.207     0.000   0.0% |
  Calculate projections:                     0.000     0.000   0.0% |
  DenseAtomicCorrection:                     0.000     0.000   0.0% |
  Distribute overlap matrix:                 0.188     0.188   0.0% |
  Orbital Layouts:                           0.017     0.017   0.0% |
  Potential matrix:                          0.001     0.001   0.0% |
  Sum over cells:                            0.001     0.001   0.0% |
 LCAO to grid:                               0.721     0.721   0.0% |
 Set positions (LCAO WFS):                   0.114     0.066   0.0% |
  Basic WFS set positions:                   0.001     0.001   0.0% |
  Basis functions set positions:             0.000     0.000   0.0% |
  P tci:                                     0.000     0.000   0.0% |
  ST tci:                                    0.014     0.014   0.0% |
  mktci:                                     0.033     0.033   0.0% |
Redistribute:                                0.095     0.095   0.0% |
SCF-cycle:                               36561.372   605.071   1.6% ||
 Davidson:                               10418.700  3083.373   8.2% |--|
  Apply hamiltonian:                       653.413   653.413   1.7% ||
  Subspace diag:                          1964.121     0.569   0.0% |
   calc_h_matrix:                         1033.925   362.359   1.0% |
    Apply hamiltonian:                     671.566   671.566   1.8% ||
   diagonalize:                             53.741    53.741   0.1% |
   rotate_psi:                             875.886   875.886   2.3% ||
  calc. matrices:                         3291.815  1748.063   4.6% |-|
   Apply hamiltonian:                     1543.752  1543.752   4.1% |-|
  diagonalize:                              33.318    33.318   0.1% |
  rotate_psi:                             1392.660  1392.660   3.7% ||
 Density:                                  184.018     0.126   0.0% |
  Atomic density matrices:                  23.610    23.610   0.1% |
  Mix:                                      77.951    77.951   0.2% |
  Multipole moments:                         6.570     6.570   0.0% |
  Pseudo density:                           75.761    75.633   0.2% |
   Symmetrize density:                       0.128     0.128   0.0% |
 Hamiltonian:                            25324.170     0.588   0.0% |
  Atomic:                                    1.216     1.205   0.0% |
   XC Correction:                            0.012     0.012   0.0% |
  Calculate atomic Hamiltonians:             1.856     1.856   0.0% |
  Communicate:                             390.532   390.532   1.0% |
  Hartree integrate/restrict:               95.103    95.103   0.3% |
  Poisson:                                1206.610   446.294   1.2% |
   Communicate from 1D:                    120.658   120.658   0.3% |
   Communicate from 2D:                    118.995   118.995   0.3% |
   Communicate to 1D:                       68.449    68.449   0.2% |
   Communicate to 2D:                      144.616   144.616   0.4% |
   FFT 1D:                                 155.681   155.681   0.4% |
   FFT 2D:                                 151.917   151.917   0.4% |
  XC 3D grid:                            23608.664  3721.902   9.9% |---|
   VdW-DF integral:                      19886.763   168.232   0.4% |
    Convolution:                          1811.228  1811.228   4.8% |-|
    FFT:                                   783.318   783.318   2.1% ||
    gather:                               6840.666  6840.666  18.2% |------|
    hmm1:                                  657.262   657.262   1.7% ||
    hmm2:                                  873.235   873.235   2.3% ||
    iFFT:                                  816.384   816.384   2.2% ||
    potential:                            7936.392   222.177   0.6% |
     collect:                             1234.017  1234.017   3.3% ||
     p1:                                  3579.313  3579.313   9.5% |---|
     p2:                                  1329.844  1329.844   3.5% ||
     sum:                                 1571.041  1571.041   4.2% |-|
    splines:                                 0.047     0.047   0.0% |
  vbar:                                     19.600    19.600   0.1% |
 Orthonormalize:                            29.413     0.022   0.0% |
  calc_s_matrix:                             4.723     4.723   0.0% |
  inverse-cholesky:                          6.797     6.797   0.0% |
  projections:                               0.004     0.004   0.0% |
  rotate_psi_s:                             17.868    17.868   0.0% |
Set symmetry:                                0.010     0.010   0.0% |
Other:                                     176.140   176.140   0.5% |
-------------------------------------------------------------------
Total:                                             37679.964 100.0%

Memory usage: 1.15 GiB
Date: Fri Mar 10 20:31:24 2023
