
  ___ ___ ___ _ _ _  
 |   |   |_  | | | | 
 | | | | | . | | | | 
 |__ |  _|___|_____|  22.8.0
 |___|_|             

User:   vazumah@r261.ib.bridges2.psc.edu
Date:   Wed Mar  8 22:02:24 2023
Arch:   x86_64
Pid:    21814
CWD:    /jet/home/vazumah/Calcs/N2_with_proton_donor/CH3CH2OH_x/bridge/8.085_1.617/N2_z
Python: 3.11.0
gpaw:   /jet/home/vazumah/.conda/envs/GPAW_mpich/lib/python3.11/site-packages/gpaw
_gpaw:  /jet/home/vazumah/.conda/envs/GPAW_mpich/lib/python3.11/site-packages/
        _gpaw.cpython-311-x86_64-linux-gnu.so
ase:    /jet/home/vazumah/.conda/envs/GPAW_mpich/lib/python3.11/site-packages/ase (version 3.22.1)
numpy:  /jet/home/vazumah/.conda/envs/GPAW_mpich/lib/python3.11/site-packages/numpy (version 1.24.2)
scipy:  /jet/home/vazumah/.conda/envs/GPAW_mpich/lib/python3.11/site-packages/scipy (version 1.10.1)
libxc:  5.2.3
units:  Angstrom and eV
cores: 128
OpenMP: True
OMP_NUM_THREADS: 1

Input parameters:
  h: 0.16
  kpts: {size: [4, 4, 1]}
  occupations: {name: fermi-dirac,
                width: 0.05}
  poissonsolver: {dipolelayer: xy}
  xc: BEEF-vdW

System changes: positions, numbers, cell, pbc, initial_charges, initial_magmoms 

Initialize ...

species:
  Li:
    name: Lithium
    id: 830b4218f175192f93f959cfc0aad614
    Z: 3.0
    valence: 1
    core: 2
    charge: 0.0
    file: /jet/home/vazumah/datasets/gpaw-setups-0.9.20000/Li.PBE.gz
    compensation charges: {type: gauss,
                           rc: 0.33,
                           lmax: 2}
    cutoffs: {filter: 1.91,
              core: 2.55}
    valence states:
      #              energy  rcut
      - 2s(1.00)    -2.874   1.058
      - 2p(0.00)    -1.090   1.058
      -  s          24.337   1.058
  
    # Using partial waves for Li as LCAO basis

  O:
    name: Oxygen
    id: 32ecd46bf208036f09c70b0ec9a88b78
    Z: 8.0
    valence: 6
    core: 2
    charge: 0.0
    file: /jet/home/vazumah/datasets/gpaw-setups-0.9.20000/O.PBE.gz
    compensation charges: {type: gauss,
                           rc: 0.21,
                           lmax: 2}
    cutoffs: {filter: 1.17,
              core: 0.83}
    valence states:
      #              energy  rcut
      - 2s(2.00)   -23.961   0.688
      - 2p(4.00)    -9.029   0.598
      -  s           3.251   0.688
      -  p          18.182   0.598
      -  d           0.000   0.619
  
    # Using partial waves for O as LCAO basis

  C:
    name: Carbon
    id: 4aa54d4b901d75f77cc0ea3eec22967b
    Z: 6.0
    valence: 4
    core: 2
    charge: 0.0
    file: /jet/home/vazumah/datasets/gpaw-setups-0.9.20000/C.PBE.gz
    compensation charges: {type: gauss,
                           rc: 0.20,
                           lmax: 2}
    cutoffs: {filter: 1.14,
              core: 1.14}
    valence states:
      #              energy  rcut
      - 2s(2.00)   -13.751   0.635
      - 2p(2.00)    -5.284   0.635
      -  s          13.461   0.635
      -  p          21.927   0.635
      -  d           0.000   0.635
  
    # Using partial waves for C as LCAO basis

  H:
    name: Hydrogen
    id: d65de229564ff8ea4db303e23b6d1ecf
    Z: 1.0
    valence: 1
    core: 0
    charge: 0.0
    file: /jet/home/vazumah/datasets/gpaw-setups-0.9.20000/H.PBE.gz
    compensation charges: {type: gauss,
                           rc: 0.15,
                           lmax: 2}
    cutoffs: {filter: 0.85,
              core: 0.53}
    valence states:
      #              energy  rcut
      - 1s(1.00)    -6.494   0.476
      -  s          20.717   0.476
      -  p           0.000   0.476
  
    # Using partial waves for H as LCAO basis

  N:
    name: Nitrogen
    id: f7500608b86eaa90eef8b1d9a670dc53
    Z: 7.0
    valence: 5
    core: 2
    charge: 0.0
    file: /jet/home/vazumah/datasets/gpaw-setups-0.9.20000/N.PBE.gz
    compensation charges: {type: gauss,
                           rc: 0.18,
                           lmax: 2}
    cutoffs: {filter: 1.11,
              core: 0.96}
    valence states:
      #              energy  rcut
      - 2s(2.00)   -18.583   0.603
      - 2p(3.00)    -7.089   0.529
      -  s           8.629   0.603
      -  p          20.123   0.529
      -  d           0.000   0.577
  
    # Using partial waves for N as LCAO basis

Reference energy: -14434.854043  # eV

Spin-paired calculation

Convergence criteria:
 Maximum [total energy] change in last 3 cyles: 0.0005 eV / electron
 Maximum integral of absolute [dens]ity change: 0.0001 electrons / valence electron
 Maximum integral of absolute [eigenst]ate change: 4e-08 eV^2 / valence electron
 Maximum number of scf [iter]ations: 333
 (Square brackets indicate name in SCF output, whereas a 'c' in
 the SCF output indicates the quantity has converged.)

Symmetries present (total): 1

  ( 1  0  0)
  ( 0  1  0)
  ( 0  0  1)

16 k-points: 4 x 4 x 1 Monkhorst-Pack grid
8 k-points in the irreducible part of the Brillouin zone
       k-points in crystal coordinates                weights
   0:     0.12500000   -0.37500000    0.00000000          2/16
   1:     0.12500000   -0.12500000    0.00000000          2/16
   2:     0.12500000    0.12500000    0.00000000          2/16
   3:     0.12500000    0.37500000    0.00000000          2/16
   4:     0.37500000   -0.37500000    0.00000000          2/16
   5:     0.37500000   -0.12500000    0.00000000          2/16
   6:     0.37500000    0.12500000    0.00000000          2/16
   7:     0.37500000    0.37500000    0.00000000          2/16

Wave functions: Uniform real-space grid
  Kinetic energy operator: 6*3+1=19 point O(h^6) finite-difference Laplacian
  ScaLapack parameters: grid=1x1, blocksize=None
  Wavefunction extrapolation:
    Improved wavefunction reuse through dual PAW basis 

Occupation numbers: Fermi-Dirac:
  width: 0.0500  # eV
 

Eigensolver
   Davidson(niter=2) 

Densities:
  Coarse grid: 60*60*164 grid
  Fine grid: 120*120*328 grid
  Total Charge: 0.000000 

Density mixing:
  Method: separate
  Backend: pulay
  Linear mixing parameter: 0.05
  old densities: 5
  Damping of long wavelength oscillations: 50 

Hamiltonian:
  XC and Coulomb potentials evaluated on a 120*120*328 grid
  Using the BEEF-vdW Exchange-Correlation functional
  Interpolation: tri-quintic (5. degree polynomial)
  Poisson solver: FastPoissonSolver using
    Stencil: 6*3+1=19 point O(h^6) finite-difference Laplacian
    FFT axes: [0, 1]
    FST axes: [2]

Dipole correction along z-axis 

XC parameters: BEEF-vdW with 2 nearest neighbor stencil

Memory estimate:
  Process memory now: 128.76 MiB
  Calculator: 80.22 MiB
    Density: 22.47 MiB
      Arrays: 7.22 MiB
      Localized functions: 12.50 MiB
      Mixer: 2.75 MiB
    Hamiltonian: 5.71 MiB
      Arrays: 4.72 MiB
      XC: 0.00 MiB
      Poisson: 0.00 MiB
      vbar: 0.99 MiB
    Wavefunctions: 52.04 MiB
      Arrays psit_nG: 24.17 MiB
      Eigensolver: 27.21 MiB
      Projections: 0.01 MiB
      Projectors: 0.65 MiB

Total number of cores used: 128
Parallelization over k-points: 8
Domain decomposition: 2 x 2 x 4

Number of atoms: 47
Number of atomic orbitals: 170
Number of bands in calculation: 44
Number of valence electrons: 66
Bands to converge: occupied

... initialized

Initializing position-dependent things.

Density initialized from atomic densities
Creating initial wave functions:
  44 bands from LCAO basis set

       .-----------------------.  
      /|                       |  
     / |                       |  
    /  |                       |  
   /   |                       |  
  /    |                       |  
 *     |                       |  
 |     |                       |  
 |     |                       |  
 |     |                       |  
 |     |                       |  
 |     |            H          |  
 |     |       H               |  
 |     |      H C   C H        |  
 |     |                       |  
 |   Li|     LiH     LN        |  
 |     |              N        |  
 | Li  |  LLi     LLi     Li   |  
 |     |                       |  
 Li    |LLi     LLi     Li     |  
 |   Li|     Li      Li        |  
 |    Li  Li  Li  Li  Li  Li   |  
 | Li  |   Li      Li          |  
 |     |Li      Li      Li     |  
 Li    | Li      Li            |  
 |    Li      Li      Li       |  
 |     |                       |  
 |     |                       |  
 |     |                       |  
 |     |                       |  
 |     |                       |  
 |     |                       |  
 |     .-----------------------.  
 |    /                       /   
 |   /                       /    
 |  /                       /     
 | /                       /      
 |/                       /       
 *-----------------------*        

Positions:
   0 Li     1.617037    1.617037   10.000000    ( 0.0000,  0.0000,  0.0000)
   1 Li     4.851111    1.617037   10.000000    ( 0.0000,  0.0000,  0.0000)
   2 Li     8.085185    1.617037   10.000000    ( 0.0000,  0.0000,  0.0000)
   3 Li     1.617037    4.851111   10.000000    ( 0.0000,  0.0000,  0.0000)
   4 Li     4.851111    4.851111   10.000000    ( 0.0000,  0.0000,  0.0000)
   5 Li     8.085185    4.851111   10.000000    ( 0.0000,  0.0000,  0.0000)
   6 Li     1.617037    8.085185   10.000000    ( 0.0000,  0.0000,  0.0000)
   7 Li     4.851111    8.085185   10.000000    ( 0.0000,  0.0000,  0.0000)
   8 Li     8.085185    8.085185   10.000000    ( 0.0000,  0.0000,  0.0000)
   9 Li     0.000000    0.000000   11.617037    ( 0.0000,  0.0000,  0.0000)
  10 Li     3.234074    0.000000   11.617037    ( 0.0000,  0.0000,  0.0000)
  11 Li     6.468148    0.000000   11.617037    ( 0.0000,  0.0000,  0.0000)
  12 Li     0.000000    3.234074   11.617037    ( 0.0000,  0.0000,  0.0000)
  13 Li     3.234074    3.234074   11.617037    ( 0.0000,  0.0000,  0.0000)
  14 Li     6.468148    3.234074   11.617037    ( 0.0000,  0.0000,  0.0000)
  15 Li     0.000000    6.468148   11.617037    ( 0.0000,  0.0000,  0.0000)
  16 Li     3.234074    6.468148   11.617037    ( 0.0000,  0.0000,  0.0000)
  17 Li     6.468148    6.468148   11.617037    ( 0.0000,  0.0000,  0.0000)
  18 Li     1.617038    1.617038   13.469728    ( 0.0000,  0.0000,  0.0000)
  19 Li     4.851111    1.617038   13.469729    ( 0.0000,  0.0000,  0.0000)
  20 Li     8.085184    1.617038   13.469728    ( 0.0000,  0.0000,  0.0000)
  21 Li     1.617038    4.851111   13.469729    ( 0.0000,  0.0000,  0.0000)
  22 Li     4.851111    4.851111   13.469730    ( 0.0000,  0.0000,  0.0000)
  23 Li     8.085184    4.851111   13.469729    ( 0.0000,  0.0000,  0.0000)
  24 Li     1.617038    8.085184   13.469728    ( 0.0000,  0.0000,  0.0000)
  25 Li     4.851111    8.085184   13.469729    ( 0.0000,  0.0000,  0.0000)
  26 Li     8.085184    8.085184   13.469728    ( 0.0000,  0.0000,  0.0000)
  27 Li    -0.000000   -0.000000   15.445939    ( 0.0000,  0.0000,  0.0000)
  28 Li     3.234074    0.000000   15.445939    ( 0.0000,  0.0000,  0.0000)
  29 Li     6.468148    0.000000   15.445939    ( 0.0000,  0.0000,  0.0000)
  30 Li     0.000000    3.234074   15.445939    ( 0.0000,  0.0000,  0.0000)
  31 Li     3.234076    3.234076   15.445938    ( 0.0000,  0.0000,  0.0000)
  32 Li     6.468146    3.234076   15.445938    ( 0.0000,  0.0000,  0.0000)
  33 Li     0.000000    6.468148   15.445939    ( 0.0000,  0.0000,  0.0000)
  34 Li     3.234076    6.468146   15.445938    ( 0.0000,  0.0000,  0.0000)
  35 Li     6.468146    6.468146   15.445938    ( 0.0000,  0.0000,  0.0000)
  36 O      8.085185    1.617037   19.645939    ( 0.0000,  0.0000,  0.0000)
  37 C      6.902778    2.433794   19.650238    ( 0.0000,  0.0000,  0.0000)
  38 C      5.618563    1.614176   19.635704    ( 0.0000,  0.0000,  0.0000)
  39 H      6.911401    3.117330   20.510398    ( 0.0000,  0.0000,  0.0000)
  40 H      6.978166    3.043520   18.747442    ( 0.0000,  0.0000,  0.0000)
  41 H      4.741636    2.268122   19.620269    ( 0.0000,  0.0000,  0.0000)
  42 H      5.583852    0.965153   18.758886    ( 0.0000,  0.0000,  0.0000)
  43 H      5.548375    0.985688   20.528265    ( 0.0000,  0.0000,  0.0000)
  44 H      8.046018    1.034060   20.414164    ( 0.0000,  0.0000,  0.0000)
  45 N      8.085000    1.617000   16.945939    ( 0.0000,  0.0000,  0.0000)
  46 N      8.085000    1.617000   18.042561    ( 0.0000,  0.0000,  0.0000)

Unit cell:
           periodic     x           y           z      points  spacing
  1. axis:    yes    9.702222    0.000000    0.000000    60     0.1617
  2. axis:    yes    0.000000    9.702222    0.000000    60     0.1617
  3. axis:    no     0.000000    0.000000   26.351111   164     0.1607

  Lengths:   9.702222   9.702222  26.351111
  Angles:   90.000000  90.000000  90.000000

Effective grid spacing dv^(1/3) = 0.1614

     iter     time        total  log10-change:
                         energy  eigst   dens
iter:   1 22:02:39  -579.174170
iter:   2 22:02:46   -59.103903  +2.59  +0.01
iter:   3 22:02:54    -3.608085  +3.28  -0.14
iter:   4 22:03:01  -187.036930  +3.19  -0.22
Writing to output.gpw (mode='')

iter:   5 22:03:08  -230.030331  +2.88  -0.24
iter:   6 22:03:15  -292.109456  +2.62  -0.56
iter:   7 22:03:22  -321.120452  +2.22  -0.61
iter:   8 22:03:29  -345.718189  +2.06  -0.58
iter:   9 22:03:36  -478.735406  +2.75  -0.53
Writing to output.gpw (mode='')

iter:  10 22:03:43  -363.767843  +1.71  -0.27
iter:  11 22:03:51  -317.308574  +1.55  -0.45
iter:  12 22:03:58  -316.475256  +1.42  -0.70
iter:  13 22:04:05  -311.891349  +1.40  -0.77
iter:  14 22:04:12  -313.498272  +1.44  -0.75
Writing to output.gpw (mode='')

iter:  15 22:04:19  -309.343445  +0.65  -0.68
iter:  16 22:04:26  -308.452373  +0.28  -0.75
iter:  17 22:04:33  -308.299594  +0.97  -0.77
iter:  18 22:04:41  -305.029507  +0.34  -0.78
iter:  19 22:04:48  -304.692657  +0.06  -0.89
Writing to output.gpw (mode='')

iter:  20 22:05:01  -303.913915  -0.08  -0.93
iter:  21 22:05:08  -303.809921  +0.38  -1.06
iter:  22 22:05:15  -303.589156  -0.10  -1.22
iter:  23 22:05:22  -303.346514  +0.01  -1.30
iter:  24 22:05:29  -303.212544  +0.01  -1.46
Writing to output.gpw (mode='')

iter:  25 22:05:36  -303.338394  -0.23  -1.64
iter:  26 22:05:43  -303.317415  -0.82  -1.61
iter:  27 22:05:51  -303.330065c -1.00  -1.67
iter:  28 22:05:58  -303.402756  -0.69  -1.65
iter:  29 22:06:05  -303.458860  -0.65  -1.55
Writing to output.gpw (mode='')

iter:  30 22:06:12  -303.526317  -0.79  -1.49
iter:  31 22:06:19  -303.530100  -1.03  -1.43
iter:  32 22:06:26  -303.342120  -1.27  -1.41
iter:  33 22:06:33  -303.315680  -1.20  -1.57
iter:  34 22:06:41  -303.353051  -1.89  -1.62
Writing to output.gpw (mode='')

iter:  35 22:06:48  -303.294148  -0.61  -1.57
iter:  36 22:06:55  -303.249189  -1.02  -1.86
iter:  37 22:07:02  -303.256973  -1.29  -2.13
iter:  38 22:07:09  -303.252933c -1.75  -2.11
iter:  39 22:07:16  -303.249198c -2.11  -2.19
Writing to output.gpw (mode='')

iter:  40 22:07:23  -303.249568c -1.96  -2.34
iter:  41 22:07:30  -303.250350c -2.29  -2.48
iter:  42 22:07:38  -303.251037c -2.52  -2.57
iter:  43 22:07:45  -303.251309c -2.57  -2.67
iter:  44 22:07:52  -303.251724c -2.55  -2.79
Writing to output.gpw (mode='')

iter:  45 22:07:59  -303.252122c -2.62  -2.87
iter:  46 22:08:06  -303.252389c -2.72  -2.87
iter:  47 22:08:13  -303.252510c -2.94  -2.99
iter:  48 22:08:20  -303.252672c -2.99  -3.11
iter:  49 22:08:28  -303.252759c -3.12  -3.17
Writing to output.gpw (mode='')

iter:  50 22:08:35  -303.252869c -3.10  -3.44
iter:  51 22:08:42  -303.252978c -3.12  -3.53
iter:  52 22:08:49  -303.253061c -3.36  -3.55
iter:  53 22:08:56  -303.253134c -3.47  -3.69
iter:  54 22:09:03  -303.253177c -3.57  -3.75
Writing to output.gpw (mode='')

iter:  55 22:09:10  -303.253217c -3.49  -3.80
iter:  56 22:09:18  -303.253252c -3.73  -3.81
iter:  57 22:09:25  -303.253285c -3.85  -3.91
iter:  58 22:09:32  -303.253312c -3.81  -4.16c
iter:  59 22:09:39  -303.253332c -3.87  -4.28c
Writing to output.gpw (mode='')

iter:  60 22:09:46  -303.253351c -3.92  -4.27c
iter:  61 22:09:58  -303.253366c -3.97  -4.30c
iter:  62 22:10:05  -303.253383c -3.98  -4.30c
iter:  63 22:10:13  -303.253395c -4.17  -4.34c
iter:  64 22:10:20  -303.253407c -4.25  -4.42c
Writing to output.gpw (mode='')

iter:  65 22:10:27  -303.253414c -4.32  -4.55c
iter:  66 22:10:34  -303.253422c -4.17  -4.61c
iter:  67 22:10:41  -303.253427c -4.44  -4.65c
iter:  68 22:10:48  -303.253432c -4.53  -4.72c
iter:  69 22:10:55  -303.253435c -4.68  -4.83c
Writing to output.gpw (mode='')

iter:  70 22:11:03  -303.253438c -4.71  -4.82c
iter:  71 22:11:10  -303.253440c -4.78  -4.78c
iter:  72 22:11:17  -303.253442c -4.86  -4.76c
iter:  73 22:11:24  -303.253444c -4.61  -4.66c
iter:  74 22:11:31  -303.253446c -4.88  -4.65c
Writing to output.gpw (mode='')

iter:  75 22:11:38  -303.253447c -5.01  -4.60c
iter:  76 22:11:45  -303.253448c -5.09  -4.56c
iter:  77 22:11:53  -303.253449c -5.13  -4.63c
iter:  78 22:12:00  -303.253450c -5.21  -4.65c
iter:  79 22:12:07  -303.253452c -5.20  -4.63c
Writing to output.gpw (mode='')

iter:  80 22:12:14  -303.253452c -5.27  -4.75c
iter:  81 22:12:21  -303.253452c -5.45  -4.70c
iter:  82 22:12:28  -303.253452c -5.54  -4.69c
iter:  83 22:12:35  -303.253452c -5.50  -4.64c
iter:  84 22:12:42  -303.253454c -5.56  -4.59c
Writing to output.gpw (mode='')

iter:  85 22:12:51  -303.253455c -5.61  -4.84c
iter:  86 22:12:58  -303.253455c -5.57  -5.05c
iter:  87 22:13:11  -303.253455c -5.53  -5.14c
iter:  88 22:13:20  -303.253455c -5.59  -5.29c
iter:  89 22:13:27  -303.253455c -5.75  -5.40c
Writing to output.gpw (mode='')

iter:  90 22:13:34  -303.253455c -5.80  -5.45c
iter:  91 22:13:41  -303.253455c -5.85  -5.51c
iter:  92 22:13:48  -303.253455c -6.06  -5.61c
iter:  93 22:13:55  -303.253455c -6.01  -5.64c
iter:  94 22:14:02  -303.253455c -5.95  -5.63c
Writing to output.gpw (mode='')

iter:  95 22:14:09  -303.253455c -6.15  -5.69c
iter:  96 22:14:16  -303.253455c -6.21  -5.89c
iter:  97 22:14:24  -303.253455c -6.16  -5.95c
iter:  98 22:14:31  -303.253455c -6.20  -6.01c
iter:  99 22:14:38  -303.253455c -6.22  -6.14c
Writing to output.gpw (mode='')

iter: 100 22:14:45  -303.253455c -6.29  -6.14c
iter: 101 22:14:58  -303.253455c -6.24  -6.15c
iter: 102 22:15:05  -303.253455c -6.41  -6.11c
iter: 103 22:15:12  -303.253455c -6.45  -5.91c
iter: 104 22:15:19  -303.253455c -6.47  -5.99c
Writing to output.gpw (mode='')

iter: 105 22:15:26  -303.253455c -6.58  -5.98c
iter: 106 22:15:34  -303.253455c -6.54  -5.90c
iter: 107 22:15:41  -303.253455c -6.57  -5.92c
iter: 108 22:15:48  -303.253455c -6.59  -5.89c
iter: 109 22:15:55  -303.253455c -6.71  -5.78c
Writing to output.gpw (mode='')

iter: 110 22:16:02  -303.253455c -6.73  -5.74c
iter: 111 22:16:09  -303.253455c -6.73  -5.72c
iter: 112 22:16:16  -303.253455c -6.79  -5.70c
iter: 113 22:16:24  -303.253455c -6.83  -5.66c
iter: 114 22:16:31  -303.253455c -6.86  -5.60c
Writing to output.gpw (mode='')

iter: 115 22:16:38  -303.253455c -6.88  -5.69c
iter: 116 22:16:45  -303.253455c -6.91  -5.63c
iter: 117 22:16:52  -303.253455c -7.05  -5.71c
iter: 118 22:16:59  -303.253455c -6.98  -5.69c
iter: 119 22:17:06  -303.253455c -7.15  -5.80c
Writing to output.gpw (mode='')

iter: 120 22:17:14  -303.253455c -7.03  -5.79c
iter: 121 22:17:21  -303.253455c -7.17  -6.07c
iter: 122 22:17:28  -303.253455c -7.00  -6.08c
iter: 123 22:17:35  -303.253455c -7.08  -6.18c
iter: 124 22:17:42  -303.253455c -7.31  -6.39c
Writing to output.gpw (mode='')

iter: 125 22:17:50  -303.253455c -7.23  -6.46c
iter: 126 22:17:57  -303.253455c -7.26  -6.52c
iter: 127 22:18:04  -303.253455c -7.40  -6.64c
iter: 128 22:18:11  -303.253455c -7.43c -6.67c

Converged after 128 iterations.

Dipole moment: (-2.224114, -4.174708, 0.336346) |e|*Ang

Energy contributions relative to reference atoms: (reference = -14434.854043)

Kinetic:       +178.069637
Potential:     -164.603330
External:        +0.000000
XC:            -317.363710
Entropy (-ST):   -0.146277
Local:           +0.717086
--------------------------
Free energy:   -303.326594
Extrapolated:  -303.253455

Dipole-layer corrected work functions: 3.380174, 2.733601 eV

Showing only first 2 kpts
 Kpt  Band  Eigenvalues  Occupancy
  0    31     -3.30394    1.98581
  0    32     -3.18613    1.85976
  0    33     -2.88494    0.06220
  0    34     -2.82029    0.01746

  1    31     -3.10907    1.47911
  1    32     -3.06685    1.09932
  1    33     -3.04784    0.90978
  1    34     -2.93632    0.16464


Fermi level: -3.05689

No gap
Writing to output.gpw (mode='')


Forces in eV/Ang:
  0 Li    0.03006   -0.00090   -0.27183
  1 Li   -0.02934   -0.00030   -0.27312
  2 Li   -0.00084    0.00117   -0.27913
  3 Li   -0.00354   -0.00107   -0.27592
  4 Li    0.00286   -0.00306   -0.27687
  5 Li    0.00010    0.02932   -0.27255
  6 Li   -0.00236    0.00257   -0.27646
  7 Li    0.00097    0.00360   -0.27616
  8 Li    0.00086   -0.03001   -0.27269
  9 Li   -0.00463    0.00408    0.29701
 10 Li    0.00014    0.00742    0.24401
 11 Li    0.00436    0.00520    0.29717
 12 Li   -0.00366   -0.00294    0.29570
 13 Li    0.00161   -0.00986    0.24757
 14 Li    0.00187   -0.00232    0.29235
 15 Li   -0.00788   -0.00176    0.24476
 16 Li    0.00009    0.00159    0.26907
 17 Li    0.00883   -0.00284    0.24789
 18 Li   -0.00388   -0.00100    0.04238
 19 Li    0.00388   -0.00176    0.04909
 20 Li    0.00093    0.00170   -0.17856
 21 Li   -0.01133   -0.01578    0.04686
 22 Li    0.01107   -0.01204    0.04560
 23 Li    0.00102   -0.00607    0.04930
 24 Li   -0.01687    0.01611    0.05110
 25 Li    0.01730    0.01333    0.05030
 26 Li    0.00035    0.00060    0.03950
 27 Li    0.05342   -0.05545   -0.03490
 28 Li    0.00378    0.02830   -0.01885
 29 Li   -0.05895   -0.06242   -0.05849
 30 Li    0.06584    0.07213   -0.03892
 31 Li    0.00680   -0.02954   -0.01594
 32 Li   -0.07636    0.07714   -0.08408
 33 Li   -0.03060   -0.00300   -0.01671
 34 Li    0.00137    0.00158   -0.01560
 35 Li    0.02841   -0.00615   -0.01044
 36 O    -0.07571   -0.88113   11.93670
 37 C    -0.96579    0.65099    1.31507
 38 C     0.02960   -0.09677    0.10523
 39 H     0.17896   -0.13417   -0.12676
 40 H    -0.14334    0.20320    0.31257
 41 H     0.07680    0.00715   -0.05976
 42 H    -0.08759   -0.00838   -0.02487
 43 H     0.00454    0.01045   -0.03119
 44 H    -0.07392   -0.23572    2.13976
 45 N     0.37568   -1.26074   -4.77144
 46 N     0.69288    1.73396  -10.69536

System changes: positions 

Initializing position-dependent things.

Density initialized from wave functions
       .-----------------------.  
      /|                       |  
     / |                       |  
    /  |                       |  
   /   |                       |  
  /    |                       |  
 *     |                       |  
 |     |                       |  
 |     |                       |  
 |     |                       |  
 |     |                       |  
 |     |            H          |  
 |     |       H               |  
 |     Li     H C   C HLi      |  
 |     |                       |  
 |     |     LiH     LN      Li|  
 |     |              N        |  
 | Li  |  LLi     LLi     Li   |  
 |     |                       |  
 |     |LLi     Li      Li     |  
 |   Li|     Li      Li        |  
 |    Li  Li  Li  Li  Li  Li   |  
 | Li  |   Li      Li          |  
 |     |Li      Li      Li     |  
 Li    | Li      Li            |  
 |    Li      Li      Li       |  
 |     |                       |  
 |     |                       |  
 |     |                       |  
 |     |                       |  
 |     |                       |  
 |     |                       |  
 |     .-----------------------.  
 |    /                       /   
 |   /                       /    
 |  /                       /     
 | /                       /      
 |/                       /       
 *-----------------------*        

Positions:
   0 Li     1.617037    1.617037   10.000000    ( 0.0000,  0.0000,  0.0000)
   1 Li     4.851111    1.617037   10.000000    ( 0.0000,  0.0000,  0.0000)
   2 Li     8.085185    1.617037   10.000000    ( 0.0000,  0.0000,  0.0000)
   3 Li     1.617037    4.851111   10.000000    ( 0.0000,  0.0000,  0.0000)
   4 Li     4.851111    4.851111   10.000000    ( 0.0000,  0.0000,  0.0000)
   5 Li     8.085185    4.851111   10.000000    ( 0.0000,  0.0000,  0.0000)
   6 Li     1.617037    8.085185   10.000000    ( 0.0000,  0.0000,  0.0000)
   7 Li     4.851111    8.085185   10.000000    ( 0.0000,  0.0000,  0.0000)
   8 Li     8.085185    8.085185   10.000000    ( 0.0000,  0.0000,  0.0000)
   9 Li     0.000000    0.000000   11.617037    ( 0.0000,  0.0000,  0.0000)
  10 Li     3.234074    0.000000   11.617037    ( 0.0000,  0.0000,  0.0000)
  11 Li     6.468148    0.000000   11.617037    ( 0.0000,  0.0000,  0.0000)
  12 Li     0.000000    3.234074   11.617037    ( 0.0000,  0.0000,  0.0000)
  13 Li     3.234074    3.234074   11.617037    ( 0.0000,  0.0000,  0.0000)
  14 Li     6.468148    3.234074   11.617037    ( 0.0000,  0.0000,  0.0000)
  15 Li     0.000000    6.468148   11.617037    ( 0.0000,  0.0000,  0.0000)
  16 Li     3.234074    6.468148   11.617037    ( 0.0000,  0.0000,  0.0000)
  17 Li     6.468148    6.468148   11.617037    ( 0.0000,  0.0000,  0.0000)
  18 Li     1.617025    1.617035   13.469869    ( 0.0000,  0.0000,  0.0000)
  19 Li     4.851124    1.617033   13.469894    ( 0.0000,  0.0000,  0.0000)
  20 Li     8.085187    1.617044   13.469131    ( 0.0000,  0.0000,  0.0000)
  21 Li     1.617001    4.851058   13.469886    ( 0.0000,  0.0000,  0.0000)
  22 Li     4.851148    4.851071   13.469883    ( 0.0000,  0.0000,  0.0000)
  23 Li     8.085187    4.851091   13.469894    ( 0.0000,  0.0000,  0.0000)
  24 Li     1.616982    8.085238   13.469899    ( 0.0000,  0.0000,  0.0000)
  25 Li     4.851169    8.085228   13.469898    ( 0.0000,  0.0000,  0.0000)
  26 Li     8.085185    8.085186   13.469860    ( 0.0000,  0.0000,  0.0000)
  27 Li     0.000179   -0.000185   15.445823    ( 0.0000,  0.0000,  0.0000)
  28 Li     3.234086    0.000095   15.445876    ( 0.0000,  0.0000,  0.0000)
  29 Li     6.467951   -0.000209   15.445743    ( 0.0000,  0.0000,  0.0000)
  30 Li     0.000220    3.234315   15.445809    ( 0.0000,  0.0000,  0.0000)
  31 Li     3.234099    3.233978   15.445885    ( 0.0000,  0.0000,  0.0000)
  32 Li     6.467890    3.234334   15.445657    ( 0.0000,  0.0000,  0.0000)
  33 Li    -0.000102    6.468138   15.445883    ( 0.0000,  0.0000,  0.0000)
  34 Li     3.234081    6.468151   15.445886    ( 0.0000,  0.0000,  0.0000)
  35 Li     6.468240    6.468125   15.445903    ( 0.0000,  0.0000,  0.0000)
  36 O      8.084932    1.614092   19.685830    ( 0.0000,  0.0000,  0.0000)
  37 C      6.899550    2.435970   19.654632    ( 0.0000,  0.0000,  0.0000)
  38 C      5.618662    1.613852   19.636056    ( 0.0000,  0.0000,  0.0000)
  39 H      6.911999    3.116881   20.509974    ( 0.0000,  0.0000,  0.0000)
  40 H      6.977687    3.044199   18.748487    ( 0.0000,  0.0000,  0.0000)
  41 H      4.741893    2.268146   19.620070    ( 0.0000,  0.0000,  0.0000)
  42 H      5.583559    0.965125   18.758803    ( 0.0000,  0.0000,  0.0000)
  43 H      5.548390    0.985723   20.528161    ( 0.0000,  0.0000,  0.0000)
  44 H      8.045771    1.033272   20.421315    ( 0.0000,  0.0000,  0.0000)
  45 N      8.086255    1.612787   16.929994    ( 0.0000,  0.0000,  0.0000)
  46 N      8.087316    1.622795   18.006819    ( 0.0000,  0.0000,  0.0000)

Unit cell:
           periodic     x           y           z      points  spacing
  1. axis:    yes    9.702222    0.000000    0.000000    60     0.1617
  2. axis:    yes    0.000000    9.702222    0.000000    60     0.1617
  3. axis:    no     0.000000    0.000000   26.351111   164     0.1607

  Lengths:   9.702222   9.702222  26.351111
  Angles:   90.000000  90.000000  90.000000

Effective grid spacing dv^(1/3) = 0.1614

     iter     time        total  log10-change:
                         energy  eigst   dens
iter:   1 22:18:20  -304.676809  -0.72
iter:   2 22:18:27  -304.248521  -0.42  -1.28
iter:   3 22:18:34  -304.161495  -1.21  -1.51
iter:   4 22:18:41  -304.114387  -0.51  -1.84
Writing to output.gpw (mode='')

iter:   5 22:18:49  -304.109909  -1.47  -1.88
iter:   6 22:18:56  -304.119964c -1.28  -2.16
iter:   7 22:19:03  -304.104618c -1.19  -2.08
iter:   8 22:19:10  -304.102174c -1.85  -2.32
iter:   9 22:19:17  -304.101047c -1.99  -2.43
Writing to output.gpw (mode='')

iter:  10 22:19:25  -304.100794c -2.53  -2.58
iter:  11 22:19:32  -304.100855c -2.65  -2.69
iter:  12 22:19:39  -304.100890c -2.71  -2.74
iter:  13 22:19:46  -304.101044c -2.86  -2.79
iter:  14 22:19:59  -304.101061c -3.20  -2.81
Writing to output.gpw (mode='')

iter:  15 22:20:06  -304.101198c -3.29  -3.09
iter:  16 22:20:13  -304.101176c -3.71  -3.15
iter:  17 22:20:20  -304.101202c -3.80  -3.48
iter:  18 22:20:28  -304.101225c -3.87  -3.52
iter:  19 22:20:35  -304.101236c -4.05  -3.54
Writing to output.gpw (mode='')

iter:  20 22:20:42  -304.101246c -3.94  -3.65
iter:  21 22:20:49  -304.101254c -3.91  -3.78
iter:  22 22:20:57  -304.101262c -4.39  -3.78
iter:  23 22:21:04  -304.101276c -4.29  -3.85
iter:  24 22:21:11  -304.101286c -4.44  -3.91
Writing to output.gpw (mode='')

iter:  25 22:21:18  -304.101299c -4.61  -3.98
iter:  26 22:21:25  -304.101301c -4.75  -4.07c
iter:  27 22:21:33  -304.101304c -4.88  -4.26c
iter:  28 22:21:40  -304.101307c -4.90  -4.28c
iter:  29 22:21:47  -304.101311c -4.76  -4.30c
Writing to output.gpw (mode='')

iter:  30 22:21:54  -304.101311c -4.98  -4.36c
iter:  31 22:22:02  -304.101314c -5.01  -4.43c
iter:  32 22:22:09  -304.101317c -5.16  -4.69c
iter:  33 22:22:16  -304.101318c -5.43  -4.82c
iter:  34 22:22:23  -304.101320c -5.43  -4.84c
Writing to output.gpw (mode='')

iter:  35 22:22:31  -304.101320c -5.54  -4.94c
iter:  36 22:22:38  -304.101321c -5.55  -5.04c
iter:  37 22:22:45  -304.101321c -5.60  -5.07c
iter:  38 22:22:52  -304.101322c -5.63  -5.09c
iter:  39 22:22:59  -304.101322c -5.57  -5.08c
Writing to output.gpw (mode='')

iter:  40 22:23:07  -304.101323c -5.74  -4.89c
iter:  41 22:23:14  -304.101323c -5.75  -5.00c
iter:  42 22:23:21  -304.101323c -6.15  -5.01c
iter:  43 22:23:28  -304.101323c -6.09  -4.91c
iter:  44 22:23:35  -304.101323c -5.85  -4.94c
Writing to output.gpw (mode='')

iter:  45 22:23:43  -304.101324c -6.29  -4.99c
iter:  46 22:23:50  -304.101324c -6.21  -4.94c
iter:  47 22:23:57  -304.101324c -6.42  -4.86c
iter:  48 22:24:04  -304.101324c -6.32  -4.85c
iter:  49 22:24:12  -304.101324c -6.34  -4.84c
Writing to output.gpw (mode='')

iter:  50 22:24:19  -304.101325c -6.42  -4.96c
iter:  51 22:24:26  -304.101325c -6.63  -5.17c
iter:  52 22:24:33  -304.101325c -6.72  -5.21c
iter:  53 22:24:41  -304.101325c -6.65  -5.20c
iter:  54 22:24:48  -304.101325c -6.74  -5.19c
Writing to output.gpw (mode='')

iter:  55 22:25:02  -304.101325c -6.74  -5.11c
iter:  56 22:25:09  -304.101325c -6.99  -5.06c
iter:  57 22:25:16  -304.101325c -6.79  -5.05c
iter:  58 22:25:23  -304.101325c -7.20  -5.16c
iter:  59 22:25:31  -304.101325c -7.02  -5.22c
Writing to output.gpw (mode='')

iter:  60 22:25:38  -304.101325c -6.95  -5.23c
iter:  61 22:25:45  -304.101325c -7.42c -5.35c

Converged after 61 iterations.

Dipole moment: (-2.201109, -4.199039, 0.356048) |e|*Ang

Energy contributions relative to reference atoms: (reference = -14434.854043)

Kinetic:       +179.109132
Potential:     -165.816676
External:        +0.000000
XC:            -318.050291
Entropy (-ST):   -0.145820
Local:           +0.729421
--------------------------
Free energy:   -304.174235
Extrapolated:  -304.101325

Dipole-layer corrected work functions: 3.379150, 2.694704 eV

Showing only first 2 kpts
 Kpt  Band  Eigenvalues  Occupancy
  0    31     -3.28454    1.98596
  0    32     -3.16799    1.86444
  0    33     -2.86386    0.06087
  0    34     -2.79769    0.01657

  1    31     -3.08671    1.46039
  1    32     -3.04796    1.10988
  1    33     -3.02823    0.91327
  1    34     -2.91617    0.16404


Fermi level: -3.03693

No gap
Writing to output.gpw (mode='')


Forces in eV/Ang:
  0 Li    0.02989   -0.00076   -0.27183
  1 Li   -0.02921   -0.00024   -0.27299
  2 Li   -0.00074    0.00097   -0.27892
  3 Li   -0.00351   -0.00146   -0.27585
  4 Li    0.00292   -0.00334   -0.27660
  5 Li    0.00009    0.02923   -0.27244
  6 Li   -0.00270    0.00267   -0.27617
  7 Li    0.00135    0.00359   -0.27603
  8 Li    0.00075   -0.02977   -0.27270
  9 Li   -0.00448    0.00391    0.29673
 10 Li    0.00007    0.00767    0.24416
 11 Li    0.00437    0.00514    0.29706
 12 Li   -0.00384   -0.00317    0.29574
 13 Li    0.00139   -0.00959    0.24717
 14 Li    0.00209   -0.00262    0.29256
 15 Li   -0.00794   -0.00155    0.24482
 16 Li    0.00025    0.00139    0.27044
 17 Li    0.00870   -0.00243    0.24763
 18 Li   -0.00534   -0.00086    0.04408
 19 Li    0.00510   -0.00146    0.05049
 20 Li    0.00092    0.00191   -0.18514
 21 Li   -0.01182   -0.01552    0.04686
 22 Li    0.01176   -0.01231    0.04627
 23 Li    0.00086   -0.00715    0.05026
 24 Li   -0.01641    0.01607    0.05066
 25 Li    0.01670    0.01354    0.04973
 26 Li    0.00043    0.00226    0.04175
 27 Li    0.06957   -0.07117   -0.05514
 28 Li    0.00371    0.03007   -0.01737
 29 Li   -0.07569   -0.07861   -0.07874
 30 Li    0.08184    0.08770   -0.06000
 31 Li    0.00676   -0.03096   -0.01470
 32 Li   -0.09022    0.09087   -0.10376
 33 Li   -0.03240   -0.00223   -0.01515
 34 Li    0.00148    0.00103   -0.01537
 35 Li    0.03011   -0.00549   -0.00904
 36 O    -0.11212    0.21874    8.80830
 37 C    -0.60062    0.28039    1.24461
 38 C    -0.01678   -0.03316    0.08929
 39 H     0.06023    0.02261   -0.00788
 40 H    -0.07337    0.12134    0.36909
 41 H     0.05588   -0.01038   -0.05674
 42 H    -0.07221   -0.00496   -0.02036
 43 H    -0.00124   -0.00107   -0.01060
 44 H    -0.25004   -0.87084    2.69550
 45 N     0.30526   -1.06922   -7.02556
 46 N     0.71268    1.35981   -5.78464

System changes: positions 

Initializing position-dependent things.

Density initialized from wave functions
       .-----------------------.  
      /|                       |  
     / |                       |  
    /  |                       |  
   /   |                       |  
  /    |                       |  
 *     |                       |  
 |     |                       |  
 |     |                       |  
 |     |                       |  
 |     |                       |  
 |     |            H          |  
 |     |       H               |  
 |     Li     H C   C HLi      |  
 |     |                       |  
 |     |     LiH     LN      Li|  
 |     |              N        |  
 | Li  |  LLi     LLi     Li   |  
 |     |                       |  
 |     |LLi     Li      Li     |  
 |   Li|     Li      Li        |  
 |    Li  Li  Li  Li  Li  Li   |  
 | Li  |   Li      Li          |  
 |     |Li      Li      Li     |  
 Li    | Li      Li            |  
 |    Li      Li      Li       |  
 |     |                       |  
 |     |                       |  
 |     |                       |  
 |     |                       |  
 |     |                       |  
 |     |                       |  
 |     .-----------------------.  
 |    /                       /   
 |   /                       /    
 |  /                       /     
 | /                       /      
 |/                       /       
 *-----------------------*        

Positions:
   0 Li     1.617037    1.617037   10.000000    ( 0.0000,  0.0000,  0.0000)
   1 Li     4.851111    1.617037   10.000000    ( 0.0000,  0.0000,  0.0000)
   2 Li     8.085185    1.617037   10.000000    ( 0.0000,  0.0000,  0.0000)
   3 Li     1.617037    4.851111   10.000000    ( 0.0000,  0.0000,  0.0000)
   4 Li     4.851111    4.851111   10.000000    ( 0.0000,  0.0000,  0.0000)
   5 Li     8.085185    4.851111   10.000000    ( 0.0000,  0.0000,  0.0000)
   6 Li     1.617037    8.085185   10.000000    ( 0.0000,  0.0000,  0.0000)
   7 Li     4.851111    8.085185   10.000000    ( 0.0000,  0.0000,  0.0000)
   8 Li     8.085185    8.085185   10.000000    ( 0.0000,  0.0000,  0.0000)
   9 Li     0.000000    0.000000   11.617037    ( 0.0000,  0.0000,  0.0000)
  10 Li     3.234074    0.000000   11.617037    ( 0.0000,  0.0000,  0.0000)
  11 Li     6.468148    0.000000   11.617037    ( 0.0000,  0.0000,  0.0000)
  12 Li     0.000000    3.234074   11.617037    ( 0.0000,  0.0000,  0.0000)
  13 Li     3.234074    3.234074   11.617037    ( 0.0000,  0.0000,  0.0000)
  14 Li     6.468148    3.234074   11.617037    ( 0.0000,  0.0000,  0.0000)
  15 Li     0.000000    6.468148   11.617037    ( 0.0000,  0.0000,  0.0000)
  16 Li     3.234074    6.468148   11.617037    ( 0.0000,  0.0000,  0.0000)
  17 Li     6.468148    6.468148   11.617037    ( 0.0000,  0.0000,  0.0000)
  18 Li     1.616996    1.617031   13.470090    ( 0.0000,  0.0000,  0.0000)
  19 Li     4.851152    1.617026   13.470145    ( 0.0000,  0.0000,  0.0000)
  20 Li     8.085192    1.617054   13.468205    ( 0.0000,  0.0000,  0.0000)
  21 Li     1.616941    4.850982   13.470117    ( 0.0000,  0.0000,  0.0000)
  22 Li     4.851207    4.851010   13.470112    ( 0.0000,  0.0000,  0.0000)
  23 Li     8.085191    4.851053   13.470144    ( 0.0000,  0.0000,  0.0000)
  24 Li     1.616902    8.085317   13.470147    ( 0.0000,  0.0000,  0.0000)
  25 Li     4.851250    8.085295   13.470141    ( 0.0000,  0.0000,  0.0000)
  26 Li     8.085187    8.085201   13.470071    ( 0.0000,  0.0000,  0.0000)
  27 Li     0.000558   -0.000571   15.445506    ( 0.0000,  0.0000,  0.0000)
  28 Li     3.234104    0.000247   15.445794    ( 0.0000,  0.0000,  0.0000)
  29 Li     6.467541   -0.000632   15.445310    ( 0.0000,  0.0000,  0.0000)
  30 Li     0.000659    3.234782   15.445466    ( 0.0000,  0.0000,  0.0000)
  31 Li     3.234132    3.233822   15.445815    ( 0.0000,  0.0000,  0.0000)
  32 Li     6.467415    3.234813   15.445102    ( 0.0000,  0.0000,  0.0000)
  33 Li    -0.000266    6.468129   15.445812    ( 0.0000,  0.0000,  0.0000)
  34 Li     3.234089    6.468155   15.445811    ( 0.0000,  0.0000,  0.0000)
  35 Li     6.468393    6.468099   15.445862    ( 0.0000,  0.0000,  0.0000)
  36 O      8.084298    1.617650   19.722155    ( 0.0000,  0.0000,  0.0000)
  37 C      6.897416    2.436515   19.660603    ( 0.0000,  0.0000,  0.0000)
  38 C      5.618475    1.613832   19.636459    ( 0.0000,  0.0000,  0.0000)
  39 H      6.912028    3.117346   20.510203    ( 0.0000,  0.0000,  0.0000)
  40 H      6.977484    3.044612   18.750432    ( 0.0000,  0.0000,  0.0000)
  41 H      4.742121    2.268056   19.619797    ( 0.0000,  0.0000,  0.0000)
  42 H      5.583238    0.965108   18.758713    ( 0.0000,  0.0000,  0.0000)
  43 H      5.548371    0.985692   20.528155    ( 0.0000,  0.0000,  0.0000)
  44 H      8.044142    1.027551   20.435843    ( 0.0000,  0.0000,  0.0000)
  45 N      8.087600    1.607953   16.890310    ( 0.0000,  0.0000,  0.0000)
  46 N      8.090870    1.628648   17.989405    ( 0.0000,  0.0000,  0.0000)

Unit cell:
           periodic     x           y           z      points  spacing
  1. axis:    yes    9.702222    0.000000    0.000000    60     0.1617
  2. axis:    yes    0.000000    9.702222    0.000000    60     0.1617
  3. axis:    no     0.000000    0.000000   26.351111   164     0.1607

  Lengths:   9.702222   9.702222  26.351111
  Angles:   90.000000  90.000000  90.000000

Effective grid spacing dv^(1/3) = 0.1614

     iter     time        total  log10-change:
                         energy  eigst   dens
iter:   1 22:25:54  -304.834768  -0.79
iter:   2 22:26:03  -304.824652  -1.52  -2.04
iter:   3 22:26:10  -304.788988  -1.37  -2.14
iter:   4 22:26:18  -304.787941  -2.02  -2.28
Writing to output.gpw (mode='')

iter:   5 22:26:25  -304.785044c -1.94  -2.38
iter:   6 22:26:32  -304.784461c -1.95  -2.53
iter:   7 22:26:39  -304.783359c -2.53  -2.50
iter:   8 22:26:46  -304.783600c -2.58  -2.66
iter:   9 22:26:54  -304.783443c -3.04  -2.71
Writing to output.gpw (mode='')

iter:  10 22:27:01  -304.783316c -3.08  -2.79
iter:  11 22:27:08  -304.783051c -3.42  -2.92
iter:  12 22:27:15  -304.782926c -3.28  -3.01
iter:  13 22:27:22  -304.782969c -3.49  -3.20
iter:  14 22:27:30  -304.782956c -4.28  -3.26
Writing to output.gpw (mode='')

iter:  15 22:27:37  -304.783011c -3.95  -3.42
iter:  16 22:27:44  -304.783001c -4.35  -3.44
iter:  17 22:27:51  -304.782989c -4.33  -3.68
iter:  18 22:27:58  -304.782994c -5.06  -3.62
iter:  19 22:28:05  -304.783009c -4.65  -3.70
Writing to output.gpw (mode='')

iter:  20 22:28:13  -304.782995c -4.36  -3.73
iter:  21 22:28:20  -304.783000c -5.06  -3.66
iter:  22 22:28:27  -304.782999c -5.04  -4.00
iter:  23 22:28:34  -304.782998c -5.38  -4.17c
iter:  24 22:28:41  -304.782996c -5.66  -4.23c
Writing to output.gpw (mode='')

iter:  25 22:28:48  -304.782994c -5.65  -4.30c
iter:  26 22:28:55  -304.782995c -5.54  -4.48c
iter:  27 22:29:03  -304.782998c -5.82  -4.42c
iter:  28 22:29:10  -304.782997c -5.91  -4.42c
iter:  29 22:29:17  -304.782997c -6.34  -4.59c
Writing to output.gpw (mode='')

iter:  30 22:29:24  -304.782996c -6.33  -4.67c
iter:  31 22:29:31  -304.782996c -6.50  -4.96c
iter:  32 22:29:38  -304.782996c -6.37  -4.98c
iter:  33 22:29:46  -304.782997c -6.44  -5.07c
iter:  34 22:30:00  -304.782997c -6.47  -5.23c
Writing to output.gpw (mode='')

iter:  35 22:30:07  -304.782997c -6.71  -5.26c
iter:  36 22:30:14  -304.782997c -6.66  -5.33c
iter:  37 22:30:21  -304.782997c -6.50  -5.37c
iter:  38 22:30:28  -304.782997c -7.06  -5.40c
iter:  39 22:30:35  -304.782997c -6.94  -5.53c
Writing to output.gpw (mode='')

iter:  40 22:30:43  -304.782997c -7.09  -5.73c
iter:  41 22:30:50  -304.782997c -7.23  -5.84c
iter:  42 22:30:57  -304.782997c -7.48c -5.82c

Converged after 42 iterations.

Dipole moment: (-2.271303, -4.132833, 0.344621) |e|*Ang

Energy contributions relative to reference atoms: (reference = -14434.854043)

Kinetic:       +173.469685
Potential:     -161.571808
External:        +0.000000
XC:            -317.341991
Entropy (-ST):   -0.146309
Local:           +0.734271
--------------------------
Free energy:   -304.856151
Extrapolated:  -304.782997

Dipole-layer corrected work functions: 3.380092, 2.717613 eV

Showing only first 2 kpts
 Kpt  Band  Eigenvalues  Occupancy
  0    31     -3.29613    1.98587
  0    32     -3.17566    1.85328
  0    33     -2.87537    0.06038
  0    34     -2.81354    0.01792

  1    31     -3.10345    1.49747
  1    32     -3.06164    1.12718
  1    33     -3.03883    0.90009
  1    34     -2.92334    0.15028


Fermi level: -3.04885

No gap
Writing to output.gpw (mode='')


Forces in eV/Ang:
  0 Li    0.03022   -0.00068   -0.27211
  1 Li   -0.02949   -0.00031   -0.27354
  2 Li   -0.00081    0.00100   -0.27949
  3 Li   -0.00324   -0.00119   -0.27634
  4 Li    0.00253   -0.00327   -0.27688
  5 Li    0.00021    0.02972   -0.27277
  6 Li   -0.00260    0.00222   -0.27641
  7 Li    0.00108    0.00322   -0.27641
  8 Li    0.00074   -0.03006   -0.27338
  9 Li   -0.00524    0.00439    0.29822
 10 Li    0.00021    0.00776    0.24412
 11 Li    0.00519    0.00582    0.29871
 12 Li   -0.00431   -0.00377    0.29669
 13 Li    0.00133   -0.00984    0.24745
 14 Li    0.00235   -0.00309    0.29345
 15 Li   -0.00792   -0.00207    0.24468
 16 Li    0.00027    0.00189    0.26851
 17 Li    0.00882   -0.00273    0.24764
 18 Li   -0.00420   -0.00113    0.04135
 19 Li    0.00373   -0.00145    0.04762
 20 Li    0.00124    0.00272   -0.17533
 21 Li   -0.01171   -0.01553    0.04677
 22 Li    0.01197   -0.01211    0.04627
 23 Li    0.00074   -0.00637    0.04782
 24 Li   -0.01677    0.01679    0.05108
 25 Li    0.01695    0.01361    0.04954
 26 Li    0.00056   -0.00001    0.03835
 27 Li    0.05538   -0.05668   -0.03780
 28 Li    0.00371    0.02865   -0.01862
 29 Li   -0.06347   -0.06579   -0.06182
 30 Li    0.07216    0.07769   -0.04526
 31 Li    0.00692   -0.02946   -0.01585
 32 Li   -0.07895    0.07865   -0.08875
 33 Li   -0.03089   -0.00165   -0.01672
 34 Li    0.00129    0.00071   -0.01594
 35 Li    0.02870   -0.00507   -0.01077
 36 O    -0.04549    0.83003    6.64804
 37 C    -0.44394    0.14054    1.14355
 38 C    -0.03401   -0.02678    0.09039
 39 H    -0.04265    0.15153    0.10553
 40 H    -0.01162    0.02658    0.43886
 41 H     0.03602   -0.01005   -0.05220
 42 H    -0.05157    0.00577   -0.01179
 43 H    -0.01671   -0.01093    0.00055
 44 H    -0.37924   -1.22643    2.88528
 45 N     0.24870   -0.95401   -3.76909
 46 N     0.76320    1.08829   -7.27810

System changes: positions 

Initializing position-dependent things.

Density initialized from wave functions
       .-----------------------.  
      /|                       |  
     / |                       |  
    /  |                       |  
   /   |                       |  
  /    |                       |  
 *     |                       |  
 |     |                       |  
 |     |                       |  
 |     |                       |  
 |     |                       |  
 |     |            H          |  
 |     |       H               |  
 |     Li     H C   C HLi      |  
 |     |                       |  
 |     |     LiH     LN      Li|  
 |     |                       |  
 | Li  |  LLi     LLi N   Li   |  
 |     |                       |  
 |     |LLi     Li      Li     |  
 |   Li|     Li      Li        |  
 |    Li  Li  Li  Li  Li  Li   |  
 | Li  |   Li      Li          |  
 |     |Li      Li      Li     |  
 Li    | Li      Li            |  
 |    Li      Li      Li       |  
 |     |                       |  
 |     |                       |  
 |     |                       |  
 |     |                       |  
 |     |                       |  
 |     |                       |  
 |     .-----------------------.  
 |    /                       /   
 |   /                       /    
 |  /                       /     
 | /                       /      
 |/                       /       
 *-----------------------*        

Positions:
   0 Li     1.617037    1.617037   10.000000    ( 0.0000,  0.0000,  0.0000)
   1 Li     4.851111    1.617037   10.000000    ( 0.0000,  0.0000,  0.0000)
   2 Li     8.085185    1.617037   10.000000    ( 0.0000,  0.0000,  0.0000)
   3 Li     1.617037    4.851111   10.000000    ( 0.0000,  0.0000,  0.0000)
   4 Li     4.851111    4.851111   10.000000    ( 0.0000,  0.0000,  0.0000)
   5 Li     8.085185    4.851111   10.000000    ( 0.0000,  0.0000,  0.0000)
   6 Li     1.617037    8.085185   10.000000    ( 0.0000,  0.0000,  0.0000)
   7 Li     4.851111    8.085185   10.000000    ( 0.0000,  0.0000,  0.0000)
   8 Li     8.085185    8.085185   10.000000    ( 0.0000,  0.0000,  0.0000)
   9 Li     0.000000    0.000000   11.617037    ( 0.0000,  0.0000,  0.0000)
  10 Li     3.234074    0.000000   11.617037    ( 0.0000,  0.0000,  0.0000)
  11 Li     6.468148    0.000000   11.617037    ( 0.0000,  0.0000,  0.0000)
  12 Li     0.000000    3.234074   11.617037    ( 0.0000,  0.0000,  0.0000)
  13 Li     3.234074    3.234074   11.617037    ( 0.0000,  0.0000,  0.0000)
  14 Li     6.468148    3.234074   11.617037    ( 0.0000,  0.0000,  0.0000)
  15 Li     0.000000    6.468148   11.617037    ( 0.0000,  0.0000,  0.0000)
  16 Li     3.234074    6.468148   11.617037    ( 0.0000,  0.0000,  0.0000)
  17 Li     6.468148    6.468148   11.617037    ( 0.0000,  0.0000,  0.0000)
  18 Li     1.616955    1.617021   13.470445    ( 0.0000,  0.0000,  0.0000)
  19 Li     4.851187    1.617015   13.470552    ( 0.0000,  0.0000,  0.0000)
  20 Li     8.085203    1.617080   13.466698    ( 0.0000,  0.0000,  0.0000)
  21 Li     1.616839    4.850851   13.470516    ( 0.0000,  0.0000,  0.0000)
  22 Li     4.851314    4.850905   13.470511    ( 0.0000,  0.0000,  0.0000)
  23 Li     8.085196    4.850995   13.470551    ( 0.0000,  0.0000,  0.0000)
  24 Li     1.616760    8.085462   13.470582    ( 0.0000,  0.0000,  0.0000)
  25 Li     4.851392    8.085413   13.470561    ( 0.0000,  0.0000,  0.0000)
  26 Li     8.085193    8.085203   13.470401    ( 0.0000,  0.0000,  0.0000)
  27 Li     0.001080   -0.001102   15.445119    ( 0.0000,  0.0000,  0.0000)
  28 Li     3.234136    0.000497   15.445639    ( 0.0000,  0.0000,  0.0000)
  29 Li     6.466940   -0.001248   15.444717    ( 0.0000,  0.0000,  0.0000)
  30 Li     0.001338    3.235504   15.445003    ( 0.0000,  0.0000,  0.0000)
  31 Li     3.234192    3.233567   15.445683    ( 0.0000,  0.0000,  0.0000)
  32 Li     6.466695    3.235527   15.444276    ( 0.0000,  0.0000,  0.0000)
  33 Li    -0.000536    6.468121   15.445673    ( 0.0000,  0.0000,  0.0000)
  34 Li     3.234100    6.468157   15.445674    ( 0.0000,  0.0000,  0.0000)
  35 Li     6.468643    6.468061   15.445773    ( 0.0000,  0.0000,  0.0000)
  36 O      8.083899    1.632736   19.755011    ( 0.0000,  0.0000,  0.0000)
  37 C      6.896139    2.435217   19.669684    ( 0.0000,  0.0000,  0.0000)
  38 C      5.617872    1.613981   19.637145    ( 0.0000,  0.0000,  0.0000)
  39 H      6.910692    3.119903   20.512108    ( 0.0000,  0.0000,  0.0000)
  40 H      6.977960    3.044100   18.754706    ( 0.0000,  0.0000,  0.0000)
  41 H      4.742253    2.267872   19.619381    ( 0.0000,  0.0000,  0.0000)
  42 H      5.582944    0.965208   18.758662    ( 0.0000,  0.0000,  0.0000)
  43 H      5.548151    0.985505   20.528309    ( 0.0000,  0.0000,  0.0000)
  44 H      8.039530    1.012446   20.464193    ( 0.0000,  0.0000,  0.0000)
  45 N      8.089163    1.601216   16.854928    ( 0.0000,  0.0000,  0.0000)
  46 N      8.097653    1.635045   17.950507    ( 0.0000,  0.0000,  0.0000)

Unit cell:
           periodic     x           y           z      points  spacing
  1. axis:    yes    9.702222    0.000000    0.000000    60     0.1617
  2. axis:    yes    0.000000    9.702222    0.000000    60     0.1617
  3. axis:    no     0.000000    0.000000   26.351111   164     0.1607

  Lengths:   9.702222   9.702222  26.351111
  Angles:   90.000000  90.000000  90.000000

Effective grid spacing dv^(1/3) = 0.1614

     iter     time        total  log10-change:
                         energy  eigst   dens
iter:   1 22:31:06  -305.634710  -0.72
iter:   2 22:31:13  -305.527237  -0.92  -1.56
iter:   3 22:31:20  -305.498779  -1.74  -1.76
iter:   4 22:31:27  -305.494665c -0.93  -2.16
Writing to output.gpw (mode='')

iter:   5 22:31:34  -305.480747c -1.87  -2.02
iter:   6 22:31:41  -305.480955c -1.84  -2.32
iter:   7 22:31:49  -305.481234c -1.86  -2.56
iter:   8 22:31:56  -305.480003c -2.48  -2.43
iter:   9 22:32:03  -305.479956c -2.87  -2.55
Writing to output.gpw (mode='')

iter:  10 22:32:10  -305.479752c -2.63  -2.64
iter:  11 22:32:17  -305.479850c -3.06  -2.91
iter:  12 22:32:24  -305.479968c -2.84  -2.88
iter:  13 22:32:31  -305.479757c -3.50  -2.99
iter:  14 22:32:39  -305.479754c -3.57  -3.17
Writing to output.gpw (mode='')

iter:  15 22:32:46  -305.479755c -3.88  -3.27
iter:  16 22:32:53  -305.479768c -4.02  -3.45
iter:  17 22:33:00  -305.479756c -4.06  -3.50
iter:  18 22:33:07  -305.479755c -4.28  -3.61
iter:  19 22:33:14  -305.479758c -4.43  -3.69
Writing to output.gpw (mode='')

iter:  20 22:33:22  -305.479763c -4.77  -3.82
iter:  21 22:33:29  -305.479767c -4.76  -3.97
iter:  22 22:33:36  -305.479768c -4.90  -4.18c
iter:  23 22:33:43  -305.479770c -5.10  -4.22c
iter:  24 22:33:50  -305.479772c -5.13  -4.29c
Writing to output.gpw (mode='')

iter:  25 22:33:57  -305.479772c -5.56  -4.30c
iter:  26 22:34:04  -305.479773c -5.44  -4.31c
iter:  27 22:34:12  -305.479773c -5.77  -4.38c
iter:  28 22:34:19  -305.479774c -5.46  -4.45c
iter:  29 22:34:26  -305.479774c -5.90  -4.48c
Writing to output.gpw (mode='')

iter:  30 22:34:33  -305.479775c -6.03  -4.53c
iter:  31 22:34:40  -305.479776c -6.34  -4.92c
iter:  32 22:34:47  -305.479775c -6.08  -5.05c
iter:  33 22:35:01  -305.479775c -6.33  -5.09c
iter:  34 22:35:08  -305.479775c -6.26  -5.25c
Writing to output.gpw (mode='')

iter:  35 22:35:15  -305.479775c -6.53  -5.29c
iter:  36 22:35:22  -305.479775c -6.50  -5.40c
iter:  37 22:35:30  -305.479775c -6.78  -5.48c
iter:  38 22:35:37  -305.479775c -6.72  -5.62c
iter:  39 22:35:44  -305.479776c -6.89  -5.68c
Writing to output.gpw (mode='')

iter:  40 22:35:51  -305.479776c -6.89  -5.79c
iter:  41 22:35:58  -305.479776c -6.90  -5.79c
iter:  42 22:36:05  -305.479776c -7.17  -5.80c
iter:  43 22:36:13  -305.479776c -7.32  -5.75c
iter:  44 22:36:20  -305.479776c -7.38  -5.70c
Writing to output.gpw (mode='')

iter:  45 22:36:27  -305.479776c -7.49c -5.72c

Converged after 45 iterations.

Dipole moment: (-2.298138, -4.119712, 0.330239) |e|*Ang

Energy contributions relative to reference atoms: (reference = -14434.854043)

Kinetic:       +170.419923
Potential:     -159.538100
External:        +0.000000
XC:            -317.027550
Entropy (-ST):   -0.146363
Local:           +0.739132
--------------------------
Free energy:   -305.552957
Extrapolated:  -305.479776

Dipole-layer corrected work functions: 3.380582, 2.745748 eV

Showing only first 2 kpts
 Kpt  Band  Eigenvalues  Occupancy
  0    31     -3.31037    1.98585
  0    32     -3.18813    1.84817
  0    33     -2.88827    0.05874
  0    34     -2.82968    0.01858

  1    31     -3.11973    1.51218
  1    32     -3.07695    1.13696
  1    33     -3.05219    0.89067
  1    34     -2.93435    0.14137


Fermi level: -3.06316

No gap

Forces in eV/Ang:
  0 Li    0.03044   -0.00058   -0.27230
  1 Li   -0.02966   -0.00031   -0.27387
  2 Li   -0.00080    0.00093   -0.27970
  3 Li   -0.00303   -0.00129   -0.27669
  4 Li    0.00223   -0.00339   -0.27705
  5 Li    0.00025    0.03006   -0.27282
  6 Li   -0.00271    0.00190   -0.27653
  7 Li    0.00110    0.00293   -0.27660
  8 Li    0.00068   -0.03014   -0.27389
  9 Li   -0.00571    0.00453    0.29903
 10 Li    0.00019    0.00788    0.24414
 11 Li    0.00569    0.00612    0.29974
 12 Li   -0.00443   -0.00406    0.29695
 13 Li    0.00112   -0.00991    0.24748
 14 Li    0.00247   -0.00348    0.29402
 15 Li   -0.00799   -0.00246    0.24477
 16 Li    0.00046    0.00236    0.26807
 17 Li    0.00886   -0.00295    0.24752
 18 Li   -0.00450   -0.00124    0.04065
 19 Li    0.00346   -0.00143    0.04627
 20 Li    0.00162    0.00365   -0.17022
 21 Li   -0.01163   -0.01510    0.04639
 22 Li    0.01217   -0.01180    0.04602
 23 Li    0.00064   -0.00696    0.04693
 24 Li   -0.01653    0.01708    0.05060
 25 Li    0.01677    0.01374    0.04896
 26 Li    0.00058   -0.00073    0.03718
 27 Li    0.05838   -0.05980   -0.04315
 28 Li    0.00371    0.02874   -0.01824
 29 Li   -0.06614   -0.06831   -0.06579
 30 Li    0.07809    0.08319   -0.05247
 31 Li    0.00677   -0.02941   -0.01558
 32 Li   -0.08296    0.08224   -0.09324
 33 Li   -0.03088   -0.00083   -0.01639
 34 Li    0.00113    0.00021   -0.01599
 35 Li    0.02877   -0.00408   -0.01084
 36 O     0.07489    0.23017    5.62037
 37 C    -0.37326    0.19205    0.95184
 38 C    -0.02393   -0.05481    0.10321
 39 H    -0.16908    0.26200    0.18654
 40 H     0.01753   -0.05956    0.51218
 41 H     0.01364    0.00020   -0.04709
 42 H    -0.03309    0.01528    0.00106
 43 H    -0.04087   -0.02632    0.01016
 44 H    -0.40692   -0.53682    1.79099
 45 N     0.17061   -0.87217   -4.04382
 46 N     0.78039    0.81889   -4.96339

System changes: positions 

Initializing position-dependent things.

Density initialized from wave functions
       .-----------------------.  
      /|                       |  
     / |                       |  
    /  |                       |  
   /   |                       |  
  /    |                       |  
 *     |                       |  
 |     |                       |  
 |     |                       |  
 |     |                       |  
 |     |                       |  
 |     |            H          |  
 |     |       H               |  
 |     Li     H C   CHOLi      |  
 |     |                       |  
 |     |     LiH     LN      Li|  
 |     |                       |  
 | Li  |  LLi     LLi N   Li   |  
 |     |                       |  
 |     |LLi     Li      Li     |  
 |   Li|     Li      Li        |  
 |    Li  Li  Li  Li  Li  Li   |  
 | Li  |   Li      Li          |  
 |     |Li      Li      Li     |  
 Li    | Li      Li            |  
 |    Li      Li      Li       |  
 |     |                       |  
 |     |                       |  
 |     |                       |  
 |     |                       |  
 |     |                       |  
 |     |                       |  
 |     .-----------------------.  
 |    /                       /   
 |   /                       /    
 |  /                       /     
 | /                       /      
 |/                       /       
 *-----------------------*        

Positions:
   0 Li     1.617037    1.617037   10.000000    ( 0.0000,  0.0000,  0.0000)
   1 Li     4.851111    1.617037   10.000000    ( 0.0000,  0.0000,  0.0000)
   2 Li     8.085185    1.617037   10.000000    ( 0.0000,  0.0000,  0.0000)
   3 Li     1.617037    4.851111   10.000000    ( 0.0000,  0.0000,  0.0000)
   4 Li     4.851111    4.851111   10.000000    ( 0.0000,  0.0000,  0.0000)
   5 Li     8.085185    4.851111   10.000000    ( 0.0000,  0.0000,  0.0000)
   6 Li     1.617037    8.085185   10.000000    ( 0.0000,  0.0000,  0.0000)
   7 Li     4.851111    8.085185   10.000000    ( 0.0000,  0.0000,  0.0000)
   8 Li     8.085185    8.085185   10.000000    ( 0.0000,  0.0000,  0.0000)
   9 Li     0.000000    0.000000   11.617037    ( 0.0000,  0.0000,  0.0000)
  10 Li     3.234074    0.000000   11.617037    ( 0.0000,  0.0000,  0.0000)
  11 Li     6.468148    0.000000   11.617037    ( 0.0000,  0.0000,  0.0000)
  12 Li     0.000000    3.234074   11.617037    ( 0.0000,  0.0000,  0.0000)
  13 Li     3.234074    3.234074   11.617037    ( 0.0000,  0.0000,  0.0000)
  14 Li     6.468148    3.234074   11.617037    ( 0.0000,  0.0000,  0.0000)
  15 Li     0.000000    6.468148   11.617037    ( 0.0000,  0.0000,  0.0000)
  16 Li     3.234074    6.468148   11.617037    ( 0.0000,  0.0000,  0.0000)
  17 Li     6.468148    6.468148   11.617037    ( 0.0000,  0.0000,  0.0000)
  18 Li     1.616902    1.617006   13.470893    ( 0.0000,  0.0000,  0.0000)
  19 Li     4.851223    1.617001   13.471058    ( 0.0000,  0.0000,  0.0000)
  20 Li     8.085224    1.617130   13.464825    ( 0.0000,  0.0000,  0.0000)
  21 Li     1.616707    4.850684   13.471035    ( 0.0000,  0.0000,  0.0000)
  22 Li     4.851456    4.850773   13.471030    ( 0.0000,  0.0000,  0.0000)
  23 Li     8.085201    4.850914   13.471066    ( 0.0000,  0.0000,  0.0000)
  24 Li     1.616575    8.085659   13.471150    ( 0.0000,  0.0000,  0.0000)
  25 Li     4.851578    8.085569   13.471105    ( 0.0000,  0.0000,  0.0000)
  26 Li     8.085201    8.085188   13.470807    ( 0.0000,  0.0000,  0.0000)
  27 Li     0.001745   -0.001779   15.444616    ( 0.0000,  0.0000,  0.0000)
  28 Li     3.234177    0.000821   15.445436    ( 0.0000,  0.0000,  0.0000)
  29 Li     6.466176   -0.002030   15.443962    ( 0.0000,  0.0000,  0.0000)
  30 Li     0.002257    3.236476   15.444371    ( 0.0000,  0.0000,  0.0000)
  31 Li     3.234268    3.233238   15.445509    ( 0.0000,  0.0000,  0.0000)
  32 Li     6.465746    3.236460   15.443203    ( 0.0000,  0.0000,  0.0000)
  33 Li    -0.000883    6.468121   15.445489    ( 0.0000,  0.0000,  0.0000)
  34 Li     3.234111    6.468153   15.445492    ( 0.0000,  0.0000,  0.0000)
  35 Li     6.468967    6.468024   15.445648    ( 0.0000,  0.0000,  0.0000)
  36 O      8.085340    1.641756   19.788304    ( 0.0000,  0.0000,  0.0000)
  37 C      6.894743    2.435057   19.678849    ( 0.0000,  0.0000,  0.0000)
  38 C      5.617327    1.613602   19.638280    ( 0.0000,  0.0000,  0.0000)
  39 H      6.907251    3.124653   20.515649    ( 0.0000,  0.0000,  0.0000)
  40 H      6.978918    3.042242   18.761351    ( 0.0000,  0.0000,  0.0000)
  41 H      4.742124    2.267829   19.618908    ( 0.0000,  0.0000,  0.0000)
  42 H      5.582819    0.965487   18.758786    ( 0.0000,  0.0000,  0.0000)
  43 H      5.547499    0.985050   20.528612    ( 0.0000,  0.0000,  0.0000)
  44 H      8.033340    1.003848   20.484239    ( 0.0000,  0.0000,  0.0000)
  45 N      8.090179    1.593217   16.815749    ( 0.0000,  0.0000,  0.0000)
  46 N      8.106844    1.640107   17.917408    ( 0.0000,  0.0000,  0.0000)

Unit cell:
           periodic     x           y           z      points  spacing
  1. axis:    yes    9.702222    0.000000    0.000000    60     0.1617
  2. axis:    yes    0.000000    9.702222    0.000000    60     0.1617
  3. axis:    no     0.000000    0.000000   26.351111   164     0.1607

  Lengths:   9.702222   9.702222  26.351111
  Angles:   90.000000  90.000000  90.000000

Effective grid spacing dv^(1/3) = 0.1614

     iter     time        total  log10-change:
                         energy  eigst   dens
iter:   1 22:36:36  -306.073448  -0.79
iter:   2 22:36:43  -306.032471  -1.26  -1.73
iter:   3 22:36:50  -306.020752  -2.04  -1.93
iter:   4 22:36:58  -306.018118c -1.17  -2.29
Writing to output.gpw (mode='')

iter:   5 22:37:05  -306.012591c -2.21  -2.22
iter:   6 22:37:12  -306.012135c -2.21  -2.46
iter:   7 22:37:19  -306.014524c -2.15  -2.74
iter:   8 22:37:27  -306.011956c -2.57  -2.63
iter:   9 22:37:34  -306.011811c -2.79  -2.75
Writing to output.gpw (mode='')

iter:  10 22:37:41  -306.011785c -2.86  -3.02
iter:  11 22:37:48  -306.011786c -3.58  -3.15
iter:  12 22:37:55  -306.011726c -3.66  -3.14
iter:  13 22:38:03  -306.011755c -3.51  -3.31
iter:  14 22:38:10  -306.011731c -4.12  -3.38
Writing to output.gpw (mode='')

iter:  15 22:38:17  -306.011728c -4.37  -3.57
iter:  16 22:38:24  -306.011743c -4.68  -3.63
iter:  17 22:38:31  -306.011746c -4.66  -3.70
iter:  18 22:38:38  -306.011744c -4.78  -3.87
iter:  19 22:38:46  -306.011749c -5.03  -3.97
Writing to output.gpw (mode='')

iter:  20 22:38:53  -306.011753c -5.07  -4.14c
iter:  21 22:39:00  -306.011751c -5.35  -4.21c
iter:  22 22:39:07  -306.011748c -5.57  -4.32c
iter:  23 22:39:14  -306.011750c -5.54  -4.46c
iter:  24 22:39:22  -306.011750c -6.06  -4.52c
Writing to output.gpw (mode='')

iter:  25 22:39:29  -306.011749c -5.80  -4.64c
iter:  26 22:39:36  -306.011750c -6.15  -4.72c
iter:  27 22:39:43  -306.011751c -6.04  -4.86c
iter:  28 22:39:56  -306.011751c -6.19  -4.95c
iter:  29 22:40:05  -306.011751c -6.47  -5.05c
Writing to output.gpw (mode='')

iter:  30 22:40:12  -306.011751c -6.49  -5.06c
iter:  31 22:40:19  -306.011751c -6.43  -5.22c
iter:  32 22:40:26  -306.011751c -6.71  -5.33c
iter:  33 22:40:34  -306.011751c -6.81  -5.39c
iter:  34 22:40:41  -306.011751c -6.78  -5.48c
Writing to output.gpw (mode='')

iter:  35 22:40:48  -306.011751c -6.94  -5.54c
iter:  36 22:40:55  -306.011752c -6.93  -5.62c
iter:  37 22:41:02  -306.011752c -7.27  -5.70c
iter:  38 22:41:10  -306.011752c -7.31  -5.70c
iter:  39 22:41:17  -306.011752c -7.19  -5.67c
Writing to output.gpw (mode='')

iter:  40 22:41:24  -306.011752c -7.19  -5.46c
iter:  41 22:41:31  -306.011752c -7.29  -5.43c
iter:  42 22:41:38  -306.011752c -7.39  -5.43c
iter:  43 22:41:45  -306.011752c -7.66c -5.36c

Converged after 43 iterations.

Dipole moment: (-2.353282, -4.075491, 0.310932) |e|*Ang

Energy contributions relative to reference atoms: (reference = -14434.854043)

Kinetic:       +166.921265
Potential:     -156.998160
External:        +0.000000
XC:            -316.605097
Entropy (-ST):   -0.146790
Local:           +0.743635
--------------------------
Free energy:   -306.085146
Extrapolated:  -306.011752

Dipole-layer corrected work functions: 3.381476, 2.783758 eV

Showing only first 2 kpts
 Kpt  Band  Eigenvalues  Occupancy
  0    31     -3.32962    1.98579
  0    32     -3.20439    1.83899
  0    33     -2.90650    0.05737
  0    34     -2.85291    0.02002

  1    31     -3.14312    1.54061
  1    32     -3.09680    1.14084
  1    33     -3.07030    0.87748
  1    34     -2.94954    0.13056


Fermi level: -3.08262

No gap
Writing to output.gpw (mode='')


Forces in eV/Ang:
  0 Li    0.03064   -0.00052   -0.27252
  1 Li   -0.02977   -0.00035   -0.27443
  2 Li   -0.00082    0.00089   -0.28004
  3 Li   -0.00277   -0.00123   -0.27720
  4 Li    0.00175   -0.00347   -0.27737
  5 Li    0.00031    0.03041   -0.27294
  6 Li   -0.00275    0.00136   -0.27681
  7 Li    0.00094    0.00251   -0.27692
  8 Li    0.00065   -0.03017   -0.27462
  9 Li   -0.00634    0.00464    0.30023
 10 Li    0.00012    0.00800    0.24417
 11 Li    0.00631    0.00655    0.30132
 12 Li   -0.00452   -0.00431    0.29738
 13 Li    0.00085   -0.01005    0.24774
 14 Li    0.00252   -0.00393    0.29486
 15 Li   -0.00802   -0.00304    0.24488
 16 Li    0.00075    0.00307    0.26715
 17 Li    0.00891   -0.00337    0.24747
 18 Li   -0.00424   -0.00141    0.03853
 19 Li    0.00227   -0.00148    0.04346
 20 Li    0.00231    0.00472   -0.15941
 21 Li   -0.01134   -0.01458    0.04579
 22 Li    0.01233   -0.01130    0.04544
 23 Li    0.00056   -0.00702    0.04482
 24 Li   -0.01635    0.01754    0.05005
 25 Li    0.01675    0.01389    0.04825
 26 Li    0.00057   -0.00265    0.03416
 27 Li    0.05308   -0.05473   -0.03879
 28 Li    0.00391    0.02776   -0.01852
 29 Li   -0.05998   -0.06205   -0.05955
 30 Li    0.07697    0.08152   -0.05020
 31 Li    0.00690   -0.02834   -0.01583
 32 Li   -0.07982    0.07835   -0.08889
 33 Li   -0.02981   -0.00004   -0.01676
 34 Li    0.00088   -0.00036   -0.01593
 35 Li    0.02779   -0.00315   -0.01164
 36 O     0.11905    0.30793    4.34906
 37 C    -0.27417    0.15035    0.86557
 38 C    -0.01128   -0.04918    0.10834
 39 H    -0.25832    0.30871    0.22357
 40 H     0.06585   -0.10656    0.51378
 41 H     0.00688   -0.00102   -0.03975
 42 H    -0.01226    0.02270    0.01032
 43 H    -0.06423   -0.04421    0.02610
 44 H    -0.46649   -0.43744    1.47429
 45 N     0.07782   -0.76551   -3.07269
 46 N     0.84263    0.62555   -4.24424

System changes: positions 

Initializing position-dependent things.

Density initialized from wave functions
       .-----------------------.  
      /|                       |  
     / |                       |  
    /  |                       |  
   /   |                       |  
  /    |                       |  
 *     |                       |  
 |     |                       |  
 |     |                       |  
 |     |                       |  
 |     |                       |  
 |     |            H          |  
 |     |       H     H         |  
 |     Li     H C   C OLi      |  
 |     |                       |  
 |     |     LiH     LN      Li|  
 |     |                       |  
 | Li  |  LLi     LLi N   Li   |  
 |     |                       |  
 |     |LLi     Li      Li     |  
 |   Li|     Li      Li        |  
 |    Li  Li  Li  Li  Li  Li   |  
 | Li  |   Li      Li          |  
 |     |Li      Li      Li     |  
 Li    | Li      Li            |  
 |    Li      Li      Li       |  
 |     |                       |  
 |     |                       |  
 |     |                       |  
 |     |                       |  
 |     |                       |  
 |     |                       |  
 |     .-----------------------.  
 |    /                       /   
 |   /                       /    
 |  /                       /     
 | /                       /      
 |/                       /       
 *-----------------------*        

Positions:
   0 Li     1.617037    1.617037   10.000000    ( 0.0000,  0.0000,  0.0000)
   1 Li     4.851111    1.617037   10.000000    ( 0.0000,  0.0000,  0.0000)
   2 Li     8.085185    1.617037   10.000000    ( 0.0000,  0.0000,  0.0000)
   3 Li     1.617037    4.851111   10.000000    ( 0.0000,  0.0000,  0.0000)
   4 Li     4.851111    4.851111   10.000000    ( 0.0000,  0.0000,  0.0000)
   5 Li     8.085185    4.851111   10.000000    ( 0.0000,  0.0000,  0.0000)
   6 Li     1.617037    8.085185   10.000000    ( 0.0000,  0.0000,  0.0000)
   7 Li     4.851111    8.085185   10.000000    ( 0.0000,  0.0000,  0.0000)
   8 Li     8.085185    8.085185   10.000000    ( 0.0000,  0.0000,  0.0000)
   9 Li     0.000000    0.000000   11.617037    ( 0.0000,  0.0000,  0.0000)
  10 Li     3.234074    0.000000   11.617037    ( 0.0000,  0.0000,  0.0000)
  11 Li     6.468148    0.000000   11.617037    ( 0.0000,  0.0000,  0.0000)
  12 Li     0.000000    3.234074   11.617037    ( 0.0000,  0.0000,  0.0000)
  13 Li     3.234074    3.234074   11.617037    ( 0.0000,  0.0000,  0.0000)
  14 Li     6.468148    3.234074   11.617037    ( 0.0000,  0.0000,  0.0000)
  15 Li     0.000000    6.468148   11.617037    ( 0.0000,  0.0000,  0.0000)
  16 Li     3.234074    6.468148   11.617037    ( 0.0000,  0.0000,  0.0000)
  17 Li     6.468148    6.468148   11.617037    ( 0.0000,  0.0000,  0.0000)
  18 Li     1.616838    1.616984   13.471443    ( 0.0000,  0.0000,  0.0000)
  19 Li     4.851251    1.616981   13.471673    ( 0.0000,  0.0000,  0.0000)
  20 Li     8.085263    1.617210   13.462559    ( 0.0000,  0.0000,  0.0000)
  21 Li     1.616540    4.850475   13.471701    ( 0.0000,  0.0000,  0.0000)
  22 Li     4.851642    4.850611   13.471695    ( 0.0000,  0.0000,  0.0000)
  23 Li     8.085208    4.850807   13.471705    ( 0.0000,  0.0000,  0.0000)
  24 Li     1.616338    8.085920   13.471877    ( 0.0000,  0.0000,  0.0000)
  25 Li     4.851820    8.085774   13.471802    ( 0.0000,  0.0000,  0.0000)
  26 Li     8.085210    8.085139   13.471288    ( 0.0000,  0.0000,  0.0000)
  27 Li     0.002528   -0.002584   15.444026    ( 0.0000,  0.0000,  0.0000)
  28 Li     3.234234    0.001226   15.445167    ( 0.0000,  0.0000,  0.0000)
  29 Li     6.465284   -0.002946   15.443076    ( 0.0000,  0.0000,  0.0000)
  30 Li     0.003431    3.237710   15.443586    ( 0.0000,  0.0000,  0.0000)
  31 Li     3.234369    3.232827   15.445279    ( 0.0000,  0.0000,  0.0000)
  32 Li     6.464560    3.237616   15.441876    ( 0.0000,  0.0000,  0.0000)
  33 Li    -0.001317    6.468132   15.445245    ( 0.0000,  0.0000,  0.0000)
  34 Li     3.234123    6.468140   15.445258    ( 0.0000,  0.0000,  0.0000)
  35 Li     6.469372    6.467989   15.445474    ( 0.0000,  0.0000,  0.0000)
  36 O      8.087766    1.652372   19.819778    ( 0.0000,  0.0000,  0.0000)
  37 C      6.893727    2.434912   19.689763    ( 0.0000,  0.0000,  0.0000)
  38 C      5.616932    1.613131   19.639851    ( 0.0000,  0.0000,  0.0000)
  39 H      6.901740    3.131029   20.520397    ( 0.0000,  0.0000,  0.0000)
  40 H      6.980735    3.039420   18.769714    ( 0.0000,  0.0000,  0.0000)
  41 H      4.741934    2.267765   19.618401    ( 0.0000,  0.0000,  0.0000)
  42 H      5.582932    0.965938   18.759069    ( 0.0000,  0.0000,  0.0000)
  43 H      5.546311    0.984199   20.529221    ( 0.0000,  0.0000,  0.0000)
  44 H      8.024828    0.995541   20.504498    ( 0.0000,  0.0000,  0.0000)
  45 N      8.090185    1.584066   16.776810    ( 0.0000,  0.0000,  0.0000)
  46 N      8.119710    1.644711   17.882225    ( 0.0000,  0.0000,  0.0000)

Unit cell:
           periodic     x           y           z      points  spacing
  1. axis:    yes    9.702222    0.000000    0.000000    60     0.1617
  2. axis:    yes    0.000000    9.702222    0.000000    60     0.1617
  3. axis:    no     0.000000    0.000000   26.351111   164     0.1607

  Lengths:   9.702222   9.702222  26.351111
  Angles:   90.000000  90.000000  90.000000

Effective grid spacing dv^(1/3) = 0.1614

     iter     time        total  log10-change:
                         energy  eigst   dens
iter:   1 22:41:54  -306.509497  -0.79
iter:   2 22:42:01  -306.468907  -1.29  -1.74
iter:   3 22:42:11  -306.457868  -2.07  -1.95
iter:   4 22:42:18  -306.454704c -1.26  -2.29
Writing to output.gpw (mode='')

iter:   5 22:42:25  -306.450371c -2.33  -2.28
iter:   6 22:42:32  -306.449959c -2.39  -2.52
iter:   7 22:42:40  -306.451650c -2.27  -2.76
iter:   8 22:42:47  -306.449924c -2.51  -2.68
iter:   9 22:42:55  -306.449946c -3.32  -2.76
Writing to output.gpw (mode='')

iter:  10 22:43:06  -306.449888c -3.04  -3.01
iter:  11 22:43:17  -306.449841c -3.71  -3.13
iter:  12 22:43:25  -306.449838c -3.64  -3.24
iter:  13 22:43:32  -306.449856c -3.87  -3.33
iter:  14 22:43:39  -306.449849c -4.23  -3.47
Writing to output.gpw (mode='')

iter:  15 22:43:46  -306.449855c -4.58  -3.63
iter:  16 22:43:53  -306.449873c -4.42  -3.72
iter:  17 22:44:01  -306.449863c -4.89  -3.78
iter:  18 22:44:08  -306.449861c -4.73  -3.92
iter:  19 22:44:15  -306.449873c -4.92  -3.90
Writing to output.gpw (mode='')

iter:  20 22:44:23  -306.449875c -5.16  -4.04c
iter:  21 22:44:30  -306.449872c -5.23  -4.22c
iter:  22 22:44:37  -306.449871c -5.52  -4.36c
iter:  23 22:44:44  -306.449871c -5.59  -4.41c
iter:  24 22:44:57  -306.449872c -5.72  -4.49c
Writing to output.gpw (mode='')

iter:  25 22:45:05  -306.449872c -5.88  -4.50c
iter:  26 22:45:12  -306.449872c -6.08  -4.56c
iter:  27 22:45:19  -306.449873c -6.06  -4.68c
iter:  28 22:45:27  -306.449873c -6.48  -4.75c
iter:  29 22:45:34  -306.449873c -6.51  -4.89c
Writing to output.gpw (mode='')

iter:  30 22:45:41  -306.449873c -6.61  -4.93c
iter:  31 22:45:48  -306.449873c -6.48  -5.03c
iter:  32 22:45:55  -306.449873c -6.64  -5.15c
iter:  33 22:46:03  -306.449873c -6.62  -5.29c
iter:  34 22:46:10  -306.449873c -6.86  -5.42c
Writing to output.gpw (mode='')

iter:  35 22:46:17  -306.449873c -6.73  -5.44c
iter:  36 22:46:24  -306.449874c -6.95  -5.48c
iter:  37 22:46:32  -306.449874c -6.71  -5.51c
iter:  38 22:46:39  -306.449874c -7.05  -5.65c
iter:  39 22:46:46  -306.449874c -7.10  -5.63c
Writing to output.gpw (mode='')

iter:  40 22:46:54  -306.449874c -7.32  -5.57c
iter:  41 22:47:01  -306.449874c -7.32  -5.71c
iter:  42 22:47:08  -306.449874c -7.12  -5.83c
iter:  43 22:47:15  -306.449874c -7.43c -5.85c

Converged after 43 iterations.

Dipole moment: (-2.409363, -4.032964, 0.290169) |e|*Ang

Energy contributions relative to reference atoms: (reference = -14434.854043)

Kinetic:       +163.908825
Potential:     -154.809789
External:        +0.000000
XC:            -316.221980
Entropy (-ST):   -0.147299
Local:           +0.746719
--------------------------
Free energy:   -306.523523
Extrapolated:  -306.449874

Dipole-layer corrected work functions: 3.382321, 2.824517 eV

Showing only first 2 kpts
 Kpt  Band  Eigenvalues  Occupancy
  0    31     -3.35025    1.98574
  0    32     -3.22211    1.82962
  0    33     -2.92582    0.05574
  0    34     -2.87809    0.02183

  1    31     -3.16744    1.56506
  1    32     -3.11757    1.14053
  1    33     -3.08975    0.86411
  1    34     -2.96610    0.12058


Fermi level: -3.10342

No gap
Writing to output.gpw (mode='')


Forces in eV/Ang:
  0 Li    0.03083   -0.00052   -0.27267
  1 Li   -0.02977   -0.00038   -0.27506
  2 Li   -0.00084    0.00083   -0.28030
  3 Li   -0.00253   -0.00119   -0.27771
  4 Li    0.00114   -0.00361   -0.27769
  5 Li    0.00034    0.03075   -0.27297
  6 Li   -0.00286    0.00071   -0.27713
  7 Li    0.00071    0.00208   -0.27718
  8 Li    0.00064   -0.03010   -0.27539
  9 Li   -0.00694    0.00456    0.30133
 10 Li   -0.00012    0.00812    0.24417
 11 Li    0.00684    0.00690    0.30302
 12 Li   -0.00445   -0.00436    0.29762
 13 Li    0.00045   -0.01014    0.24805
 14 Li    0.00244   -0.00441    0.29581
 15 Li   -0.00802   -0.00368    0.24507
 16 Li    0.00126    0.00391    0.26656
 17 Li    0.00892   -0.00390    0.24737
 18 Li   -0.00424   -0.00151    0.03628
 19 Li    0.00073   -0.00159    0.04017
 20 Li    0.00334    0.00589   -0.14681
 21 Li   -0.01090   -0.01390    0.04500
 22 Li    0.01248   -0.01060    0.04451
 23 Li    0.00051   -0.00720    0.04247
 24 Li   -0.01592    0.01795    0.04913
 25 Li    0.01678    0.01409    0.04736
 26 Li    0.00048   -0.00479    0.03081
 27 Li    0.04862   -0.05083   -0.03607
 28 Li    0.00435    0.02662   -0.01862
 29 Li   -0.05267   -0.05475   -0.05354
 30 Li    0.07648    0.08053   -0.04923
 31 Li    0.00716   -0.02715   -0.01583
 32 Li   -0.07703    0.07479   -0.08496
 33 Li   -0.02859    0.00078   -0.01685
 34 Li    0.00048   -0.00101   -0.01560
 35 Li    0.02666   -0.00207   -0.01226
 36 O     0.12853    0.11958    3.39637
 37 C    -0.20001    0.15727    0.75119
 38 C     0.00529   -0.04821    0.11857
 39 H    -0.32873    0.33120    0.24346
 40 H     0.10145   -0.13474    0.49888
 41 H     0.00892   -0.00412   -0.03073
 42 H     0.01091    0.03127    0.02129
 43 H    -0.08888   -0.06117    0.03954
 44 H    -0.47189   -0.23784    1.07512
 45 N    -0.00016   -0.65888   -2.47556
 46 N     0.83409    0.42180   -3.47080

System changes: positions 

Initializing position-dependent things.

Density initialized from wave functions
       .-----------------------.  
      /|                       |  
     / |                       |  
    /  |                       |  
   /   |                       |  
  /    |                       |  
 *     |                       |  
 |     |                       |  
 |     |                       |  
 |     |                       |  
 |     |                       |  
 |     |            H          |  
 |     |       H     H         |  
 |     Li     H C   C OLi      |  
 |     |                       |  
 |     |     LiH     LN      Li|  
 |     |                       |  
 | Li  |  LLi     LLi N   Li   |  
 |     |                       |  
 |     |LLi     Li      Li     |  
 |   Li|     Li      Li        |  
 |    Li  Li  Li  Li  Li  Li   |  
 | Li  |   Li      Li          |  
 |     |Li      Li      Li     |  
 Li    | Li      Li            |  
 |    Li      Li      Li       |  
 |     |                       |  
 |     |                       |  
 |     |                       |  
 |     |                       |  
 |     |                       |  
 |     |                       |  
 |     .-----------------------.  
 |    /                       /   
 |   /                       /    
 |  /                       /     
 | /                       /      
 |/                       /       
 *-----------------------*        

Positions:
   0 Li     1.617037    1.617037   10.000000    ( 0.0000,  0.0000,  0.0000)
   1 Li     4.851111    1.617037   10.000000    ( 0.0000,  0.0000,  0.0000)
   2 Li     8.085185    1.617037   10.000000    ( 0.0000,  0.0000,  0.0000)
   3 Li     1.617037    4.851111   10.000000    ( 0.0000,  0.0000,  0.0000)
   4 Li     4.851111    4.851111   10.000000    ( 0.0000,  0.0000,  0.0000)
   5 Li     8.085185    4.851111   10.000000    ( 0.0000,  0.0000,  0.0000)
   6 Li     1.617037    8.085185   10.000000    ( 0.0000,  0.0000,  0.0000)
   7 Li     4.851111    8.085185   10.000000    ( 0.0000,  0.0000,  0.0000)
   8 Li     8.085185    8.085185   10.000000    ( 0.0000,  0.0000,  0.0000)
   9 Li     0.000000    0.000000   11.617037    ( 0.0000,  0.0000,  0.0000)
  10 Li     3.234074    0.000000   11.617037    ( 0.0000,  0.0000,  0.0000)
  11 Li     6.468148    0.000000   11.617037    ( 0.0000,  0.0000,  0.0000)
  12 Li     0.000000    3.234074   11.617037    ( 0.0000,  0.0000,  0.0000)
  13 Li     3.234074    3.234074   11.617037    ( 0.0000,  0.0000,  0.0000)
  14 Li     6.468148    3.234074   11.617037    ( 0.0000,  0.0000,  0.0000)
  15 Li     0.000000    6.468148   11.617037    ( 0.0000,  0.0000,  0.0000)
  16 Li     3.234074    6.468148   11.617037    ( 0.0000,  0.0000,  0.0000)
  17 Li     6.468148    6.468148   11.617037    ( 0.0000,  0.0000,  0.0000)
  18 Li     1.616761    1.616956   13.472071    ( 0.0000,  0.0000,  0.0000)
  19 Li     4.851261    1.616954   13.472365    ( 0.0000,  0.0000,  0.0000)
  20 Li     8.085325    1.617323   13.460023    ( 0.0000,  0.0000,  0.0000)
  21 Li     1.616347    4.850234   13.472490    ( 0.0000,  0.0000,  0.0000)
  22 Li     4.851866    4.850425   13.472480    ( 0.0000,  0.0000,  0.0000)
  23 Li     8.085215    4.850677   13.472440    ( 0.0000,  0.0000,  0.0000)
  24 Li     1.616060    8.086241   13.472739    ( 0.0000,  0.0000,  0.0000)
  25 Li     4.852113    8.086024   13.472629    ( 0.0000,  0.0000,  0.0000)
  26 Li     8.085219    8.085047   13.471817    ( 0.0000,  0.0000,  0.0000)
  27 Li     0.003397   -0.003489   15.443363    ( 0.0000,  0.0000,  0.0000)
[...]
iter:  19 05:46:31  -309.893751c -6.91  -4.47c
Writing to output.gpw (mode='')

iter:  20 05:46:39  -309.893754c -6.87  -4.55c
iter:  21 05:46:46  -309.893754c -7.30  -4.67c
iter:  22 05:46:53  -309.893753c -7.14  -4.88c
iter:  23 05:47:00  -309.893754c -7.37  -5.05c
iter:  24 05:47:07  -309.893754c -7.84c -5.14c

Converged after 24 iterations.

Dipole moment: (-2.765150, -2.911451, 0.155174) |e|*Ang

Energy contributions relative to reference atoms: (reference = -14434.854043)

Kinetic:       +146.712302
Potential:     -139.621187
External:        +0.000000
XC:            -317.691543
Entropy (-ST):   -0.161148
Local:           +0.787249
--------------------------
Free energy:   -309.974328
Extrapolated:  -309.893754

Dipole-layer corrected work functions: 3.400369, 3.102071 eV

Showing only first 2 kpts
 Kpt  Band  Eigenvalues  Occupancy
  0    31     -3.48393    1.98114
  0    32     -3.28863    1.35757
  0    33     -3.22072    0.70412
  0    34     -3.04009    0.02890

  1    31     -3.49380    1.98449
  1    32     -3.39695    1.89712
  1    33     -3.19299    0.47567
  1    34     -3.00493    0.01441


Fermi level: -3.25122

No gap
Writing to output.gpw (mode='')


Forces in eV/Ang:
  0 Li   -0.00859    0.01063   -0.29529
  1 Li    0.00403   -0.01036   -0.29354
  2 Li   -0.00127    0.00039   -0.25255
  3 Li    0.00550    0.00793   -0.29197
  4 Li   -0.01543    0.01499   -0.28465
  5 Li    0.00949   -0.00596   -0.29456
  6 Li    0.01358   -0.01356   -0.28579
  7 Li   -0.00895   -0.00685   -0.29163
  8 Li   -0.01116    0.00680   -0.29455
  9 Li   -0.02933    0.03808    0.27256
 10 Li   -0.00657    0.01994    0.29487
 11 Li    0.04419    0.03574    0.32345
 12 Li   -0.02497   -0.03570    0.32486
 13 Li    0.01947   -0.02034    0.28643
 14 Li    0.05208   -0.04112    0.27438
 15 Li   -0.01516    0.00792    0.29275
 16 Li    0.00263   -0.00479    0.29299
 17 Li    0.02646   -0.01587    0.28849
 18 Li   -0.00799   -0.00047    0.00422
 19 Li   -0.00839    0.00004   -0.00222
 20 Li    0.01282   -0.00518   -0.00688
 21 Li   -0.00165   -0.00165   -0.00429
 22 Li    0.00120   -0.00001    0.00587
 23 Li   -0.00001   -0.00138    0.00225
 24 Li    0.00212    0.00273    0.00033
 25 Li   -0.00506   -0.00504    0.00317
 26 Li    0.00758   -0.00141    0.00093
 27 Li   -0.00310    0.01511   -0.00293
 28 Li   -0.00538   -0.00024    0.00247
 29 Li    0.01294    0.01099    0.00207
 30 Li   -0.00851    0.00160    0.00129
 31 Li   -0.00933    0.00063   -0.00171
 32 Li   -0.01316    0.01738    0.00365
 33 Li    0.00291   -0.00144    0.00024
 34 Li   -0.00238    0.00314    0.00242
 35 Li   -0.00140   -0.00217    0.00290
 36 O    -0.04678   -0.04839    0.01315
 37 C     0.00344    0.01289    0.01829
 38 C     0.00389   -0.00961   -0.01809
 39 H    -0.01834    0.03711   -0.00193
 40 H     0.00411   -0.01691   -0.00161
 41 H     0.00430    0.02121   -0.00147
 42 H     0.01465   -0.02478   -0.03206
 43 H     0.00286    0.00382    0.00755
 44 H     0.00888    0.02678   -0.04454
 45 N    -0.03346    0.01327    0.01405
 46 N     0.00652   -0.00995   -0.01702

System changes: positions 

Initializing position-dependent things.

Density initialized from wave functions
       .-----------------------.  
      /|                       |  
     / |                       |  
    /  |                       |  
   /   |                       |  
  /    |                       |  
 *     |                       |  
 |     |                       |  
 |     |                       |  
 |     |                       |  
 |     |                       |  
 |     |           H H         |  
 |     |      H    C  O        |  
 |     |      HLC    H Li      |  
 |     |        H              |  
 |   Li|     Li      Li        |  
 |     |                       |  
 | Li  |  LiLi    LiLi    Li   |  
 |     |             N N       |  
 |     |Li      Li      LLi    |  
 |   Li|     Li      LLi       |  
 |    Li  Li  Li  Li      Li   |  
 | Li  |   Li      Li          |  
 |     |Li      Li      Li     |  
 Li    | Li      Li            |  
 |    Li      Li      Li       |  
 |     |                       |  
 |     |                       |  
 |     |                       |  
 |     |                       |  
 |     |                       |  
 |     |                       |  
 |     .-----------------------.  
 |    /                       /   
 |   /                       /    
 |  /                       /     
 | /                       /      
 |/                       /       
 *-----------------------*        

Positions:
   0 Li     1.617037    1.617037   10.000000    ( 0.0000,  0.0000,  0.0000)
   1 Li     4.851111    1.617037   10.000000    ( 0.0000,  0.0000,  0.0000)
   2 Li     8.085185    1.617037   10.000000    ( 0.0000,  0.0000,  0.0000)
   3 Li     1.617037    4.851111   10.000000    ( 0.0000,  0.0000,  0.0000)
   4 Li     4.851111    4.851111   10.000000    ( 0.0000,  0.0000,  0.0000)
   5 Li     8.085185    4.851111   10.000000    ( 0.0000,  0.0000,  0.0000)
   6 Li     1.617037    8.085185   10.000000    ( 0.0000,  0.0000,  0.0000)
   7 Li     4.851111    8.085185   10.000000    ( 0.0000,  0.0000,  0.0000)
   8 Li     8.085185    8.085185   10.000000    ( 0.0000,  0.0000,  0.0000)
   9 Li     0.000000    0.000000   11.617037    ( 0.0000,  0.0000,  0.0000)
  10 Li     3.234074    0.000000   11.617037    ( 0.0000,  0.0000,  0.0000)
  11 Li     6.468148    0.000000   11.617037    ( 0.0000,  0.0000,  0.0000)
  12 Li     0.000000    3.234074   11.617037    ( 0.0000,  0.0000,  0.0000)
  13 Li     3.234074    3.234074   11.617037    ( 0.0000,  0.0000,  0.0000)
  14 Li     6.468148    3.234074   11.617037    ( 0.0000,  0.0000,  0.0000)
  15 Li     0.000000    6.468148   11.617037    ( 0.0000,  0.0000,  0.0000)
  16 Li     3.234074    6.468148   11.617037    ( 0.0000,  0.0000,  0.0000)
  17 Li     6.468148    6.468148   11.617037    ( 0.0000,  0.0000,  0.0000)
  18 Li     1.621355    1.662757   13.512578    ( 0.0000,  0.0000,  0.0000)
  19 Li     4.886046    1.573584   13.505392    ( 0.0000,  0.0000,  0.0000)
  20 Li     8.110364    1.615384   13.594942    ( 0.0000,  0.0000,  0.0000)
  21 Li     1.660050    4.880971   13.496679    ( 0.0000,  0.0000,  0.0000)
  22 Li     4.925104    4.780851   13.489002    ( 0.0000,  0.0000,  0.0000)
  23 Li     8.138550    4.831128   13.511890    ( 0.0000,  0.0000,  0.0000)
  24 Li     1.552773    8.145729   13.498473    ( 0.0000,  0.0000,  0.0000)
  25 Li     4.823850    8.048824   13.484513    ( 0.0000,  0.0000,  0.0000)
  26 Li     8.041996    8.097266   13.506657    ( 0.0000,  0.0000,  0.0000)
  27 Li    -0.212965    0.225704   15.624223    ( 0.0000,  0.0000,  0.0000)
  28 Li     3.118112   -0.050553   15.432089    ( 0.0000,  0.0000,  0.0000)
  29 Li     6.369227   -0.130562   15.492451    ( 0.0000,  0.0000,  0.0000)
  30 Li     0.159283    3.348227   15.536626    ( 0.0000,  0.0000,  0.0000)
  31 Li     3.425232    3.281836   15.442944    ( 0.0000,  0.0000,  0.0000)
  32 Li     6.750899    2.970330   15.602210    ( 0.0000,  0.0000,  0.0000)
  33 Li     0.045036    6.605544   15.439284    ( 0.0000,  0.0000,  0.0000)
  34 Li     3.237220    6.464090   15.437171    ( 0.0000,  0.0000,  0.0000)
  35 Li     6.416864    6.309023   15.436353    ( 0.0000,  0.0000,  0.0000)
  36 O      7.884994    1.717399   20.606563    ( 0.0000,  0.0000,  0.0000)
  37 C      6.755513    2.491557   20.172240    ( 0.0000,  0.0000,  0.0000)
  38 C      5.579024    1.634514   19.723425    ( 0.0000,  0.0000,  0.0000)
  39 H      6.446310    3.177562   20.970471    ( 0.0000,  0.0000,  0.0000)
  40 H      7.132016    3.096919   19.342890    ( 0.0000,  0.0000,  0.0000)
  41 H      4.761988    2.263711   19.358577    ( 0.0000,  0.0000,  0.0000)
  42 H      5.879531    0.959410   18.919389    ( 0.0000,  0.0000,  0.0000)
  43 H      5.190239    1.033786   20.551689    ( 0.0000,  0.0000,  0.0000)
  44 H      7.610914    1.187244   21.365622    ( 0.0000,  0.0000,  0.0000)
  45 N      7.678533    1.155690   15.616514    ( 0.0000,  0.0000,  0.0000)
  46 N      8.566091    2.045966   15.636133    ( 0.0000,  0.0000,  0.0000)

Unit cell:
           periodic     x           y           z      points  spacing
  1. axis:    yes    9.702222    0.000000    0.000000    60     0.1617
  2. axis:    yes    0.000000    9.702222    0.000000    60     0.1617
  3. axis:    no     0.000000    0.000000   26.351111   164     0.1607

  Lengths:   9.702222   9.702222  26.351111
  Angles:   90.000000  90.000000  90.000000

Effective grid spacing dv^(1/3) = 0.1614

     iter     time        total  log10-change:
                         energy  eigst   dens
iter:   1 05:47:16  -309.895116  -2.70
iter:   2 05:47:23  -309.894700  -3.27  -2.56
iter:   3 05:47:30  -309.894352c -4.02  -2.78
iter:   4 05:47:38  -309.894124c -4.13  -3.02
Writing to output.gpw (mode='')

iter:   5 05:47:45  -309.894100c -4.35  -3.31
iter:   6 05:47:52  -309.894042c -4.07  -3.39
iter:   7 05:47:59  -309.894034c -4.29  -3.59
iter:   8 05:48:06  -309.894071c -4.97  -3.77
iter:   9 05:48:13  -309.894076c -5.18  -3.84
Writing to output.gpw (mode='')

iter:  10 05:48:21  -309.894061c -5.10  -3.89
iter:  11 05:48:28  -309.894062c -5.59  -4.08c
iter:  12 05:48:35  -309.894060c -5.90  -4.19c
iter:  13 05:48:42  -309.894059c -6.11  -4.22c
iter:  14 05:48:49  -309.894054c -6.01  -4.31c
Writing to output.gpw (mode='')

iter:  15 05:48:57  -309.894056c -6.45  -4.49c
iter:  16 05:49:04  -309.894058c -6.55  -4.56c
iter:  17 05:49:11  -309.894059c -6.78  -4.60c
iter:  18 05:49:18  -309.894058c -6.75  -4.77c
iter:  19 05:49:25  -309.894058c -7.31  -4.96c
Writing to output.gpw (mode='')

iter:  20 05:49:33  -309.894056c -7.11  -5.02c
iter:  21 05:49:40  -309.894057c -7.56c -5.14c

Converged after 21 iterations.

Dipole moment: (-2.781246, -2.923632, 0.155498) |e|*Ang

Energy contributions relative to reference atoms: (reference = -14434.854043)

Kinetic:       +146.586054
Potential:     -139.531559
External:        +0.000000
XC:            -317.655146
Entropy (-ST):   -0.161181
Local:           +0.787184
--------------------------
Free energy:   -309.974648
Extrapolated:  -309.894057

Dipole-layer corrected work functions: 3.400233, 3.101313 eV

Showing only first 2 kpts
 Kpt  Band  Eigenvalues  Occupancy
  0    31     -3.48341    1.98111
  0    32     -3.28802    1.35616
  0    33     -3.22039    0.70515
  0    34     -3.03967    0.02891

  1    31     -3.49339    1.98450
  1    32     -3.39640    1.89693
  1    33     -3.19272    0.47695
  1    34     -3.00463    0.01445


Fermi level: -3.25077

No gap
Writing to output.gpw (mode='')


Forces in eV/Ang:
  0 Li   -0.00853    0.01067   -0.29515
  1 Li    0.00408   -0.01037   -0.29361
  2 Li   -0.00103    0.00039   -0.25246
  3 Li    0.00562    0.00804   -0.29204
  4 Li   -0.01535    0.01488   -0.28463
  5 Li    0.00963   -0.00599   -0.29449
  6 Li    0.01359   -0.01362   -0.28588
  7 Li   -0.00891   -0.00674   -0.29151
  8 Li   -0.01110    0.00682   -0.29457
  9 Li   -0.02939    0.03694    0.27244
 10 Li   -0.00779    0.01971    0.29472
 11 Li    0.04385    0.03600    0.32390
 12 Li   -0.02533   -0.03522    0.32430
 13 Li    0.01789   -0.02054    0.28694
 14 Li    0.05102   -0.04142    0.27486
 15 Li   -0.01598    0.00793    0.29316
 16 Li    0.00276   -0.00477    0.29342
 17 Li    0.02590   -0.01579    0.28905
 18 Li   -0.00492    0.00013    0.00272
 19 Li   -0.00555   -0.00018   -0.00107
 20 Li    0.00933   -0.00618   -0.00264
 21 Li   -0.00106   -0.00182   -0.00426
 22 Li    0.00180    0.00060    0.00520
 23 Li    0.00182   -0.00032    0.00199
 24 Li    0.00176    0.00404   -0.00005
 25 Li   -0.00510   -0.00560    0.00293
 26 Li    0.00817   -0.00148    0.00033
 27 Li   -0.00810    0.01655   -0.00202
 28 Li   -0.00453   -0.00067    0.00149
 29 Li    0.01160    0.00989    0.00128
 30 Li   -0.01234   -0.00250    0.00044
 31 Li   -0.00811    0.00114   -0.00137
 32 Li   -0.00747    0.01045    0.00350
 33 Li    0.00264   -0.00122    0.00007
 34 Li   -0.00257    0.00236    0.00275
 35 Li   -0.00179   -0.00172    0.00238
 36 O    -0.01105   -0.04226    0.00573
 37 C    -0.00010    0.00041    0.02057
 38 C     0.00789    0.00031   -0.01396
 39 H    -0.02485    0.04077   -0.01258
 40 H    -0.01058   -0.02580    0.01036
 41 H     0.00784    0.01243   -0.00284
 42 H     0.00553   -0.01276   -0.01666
 43 H     0.01177    0.01279   -0.01052
 44 H    -0.00192    0.02234   -0.03444
 45 N    -0.02594    0.02235    0.00436
 46 N     0.00095   -0.00347   -0.00811

Timing:                                      incl.     excl.
-------------------------------------------------------------------
Density initialized from wave functions:     4.604     4.602   0.0% |
 Symmetrize density:                         0.002     0.002   0.0% |
Forces:                                     41.581    41.581   0.1% |
Hamiltonian:                               617.973     0.016   0.0% |
 Atomic:                                     0.025     0.024   0.0% |
  XC Correction:                             0.000     0.000   0.0% |
 Calculate atomic Hamiltonians:              0.068     0.068   0.0% |
 Communicate:                                6.177     6.177   0.0% |
 Hartree integrate/restrict:                 2.189     2.189   0.0% |
 Initialize Hamiltonian:                     0.000     0.000   0.0% |
 Poisson:                                   29.512    10.873   0.0% |
  Communicate from 1D:                       2.889     2.889   0.0% |
  Communicate from 2D:                       2.940     2.940   0.0% |
  Communicate to 1D:                         1.637     1.637   0.0% |
  Communicate to 2D:                         3.431     3.431   0.0% |
  FFT 1D:                                    3.909     3.909   0.0% |
  FFT 2D:                                    3.832     3.832   0.0% |
 XC 3D grid:                               579.476    89.014   0.3% |
  VdW-DF integral:                         490.462     4.138   0.0% |
   Convolution:                             45.763    45.763   0.2% |
   FFT:                                     19.316    19.316   0.1% |
   gather:                                 171.342   171.342   0.6% |
   hmm1:                                    16.202    16.202   0.1% |
   hmm2:                                    21.167    21.167   0.1% |
   iFFT:                                    20.069    20.069   0.1% |
   potential:                              188.832     5.653   0.0% |
    collect:                                29.440    29.440   0.1% |
    p1:                                     86.492    86.492   0.3% |
    p2:                                     31.959    31.959   0.1% |
    sum:                                    35.289    35.289   0.1% |
   splines:                                  3.633     3.633   0.0% |
 vbar:                                       0.511     0.511   0.0% |
LCAO initialization:                         1.140     0.184   0.0% |
 LCAO eigensolver:                           0.295     0.000   0.0% |
  Calculate projections:                     0.000     0.000   0.0% |
  DenseAtomicCorrection:                     0.000     0.000   0.0% |
  Distribute overlap matrix:                 0.193     0.193   0.0% |
  Orbital Layouts:                           0.101     0.101   0.0% |
  Potential matrix:                          0.001     0.001   0.0% |
  Sum over cells:                            0.001     0.001   0.0% |
 LCAO to grid:                               0.547     0.547   0.0% |
 Set positions (LCAO WFS):                   0.114     0.063   0.0% |
  Basic WFS set positions:                   0.001     0.001   0.0% |
  Basis functions set positions:             0.000     0.000   0.0% |
  P tci:                                     0.000     0.000   0.0% |
  ST tci:                                    0.020     0.020   0.0% |
  mktci:                                     0.029     0.029   0.0% |
Redistribute:                                0.071     0.071   0.0% |
SCF-cycle:                               27253.966   385.676   1.4% ||
 Davidson:                                6885.854  2062.940   7.4% |--|
  Apply hamiltonian:                       430.703   430.703   1.5% ||
  Subspace diag:                          1304.134     0.432   0.0% |
   calc_h_matrix:                          639.985   191.982   0.7% |
    Apply hamiltonian:                     448.003   448.003   1.6% ||
   diagonalize:                             77.385    77.385   0.3% |
   rotate_psi:                             586.333   586.333   2.1% ||
  calc. matrices:                         2134.714  1091.434   3.9% |-|
   Apply hamiltonian:                     1043.280  1043.280   3.7% ||
  diagonalize:                              18.854    18.854   0.1% |
  rotate_psi:                              934.510   934.510   3.3% ||
 Density:                                  132.316     0.090   0.0% |
  Atomic density matrices:                  12.995    12.995   0.0% |
  Mix:                                      58.230    58.230   0.2% |
  Multipole moments:                         6.786     6.786   0.0% |
  Pseudo density:                           54.214    54.145   0.2% |
   Symmetrize density:                       0.070     0.070   0.0% |
 Hamiltonian:                            19830.453     0.503   0.0% |
  Atomic:                                    0.942     0.932   0.0% |
   XC Correction:                            0.010     0.010   0.0% |
  Calculate atomic Hamiltonians:             1.411     1.411   0.0% |
  Communicate:                             272.854   272.854   1.0% |
  Hartree integrate/restrict:               71.068    71.068   0.3% |
  Poisson:                                 947.653   348.114   1.2% |
   Communicate from 1D:                     94.169    94.169   0.3% |
   Communicate from 2D:                     96.577    96.577   0.3% |
   Communicate to 1D:                       54.081    54.081   0.2% |
   Communicate to 2D:                      112.273   112.273   0.4% |
   FFT 1D:                                 123.030   123.030   0.4% |
   FFT 2D:                                 119.409   119.409   0.4% |
  XC 3D grid:                            18519.749  2823.068  10.1% |---|
   VdW-DF integral:                      15696.681   133.499   0.5% |
    Convolution:                          1467.408  1467.408   5.2% |-|
    FFT:                                   622.134   622.134   2.2% ||
    gather:                               5487.783  5487.783  19.6% |-------|
    hmm1:                                  511.404   511.404   1.8% ||
    hmm2:                                  671.832   671.832   2.4% ||
    iFFT:                                  644.660   644.660   2.3% ||
    potential:                            6157.927   180.288   0.6% |
     collect:                              960.918   960.918   3.4% ||
     p1:                                  2768.608  2768.608   9.9% |---|
     p2:                                  1018.692  1018.692   3.6% ||
     sum:                                 1229.422  1229.422   4.4% |-|
    splines:                                 0.035     0.035   0.0% |
  vbar:                                     16.271    16.271   0.1% |
 Orthonormalize:                            19.668     0.015   0.0% |
  calc_s_matrix:                             2.758     2.758   0.0% |
  inverse-cholesky:                          5.981     5.981   0.0% |
  projections:                               0.002     0.002   0.0% |
  rotate_psi_s:                             10.911    10.911   0.0% |
Set symmetry:                                0.018     0.018   0.0% |
Other:                                     117.123   117.123   0.4% |
-------------------------------------------------------------------
Total:                                             28036.476 100.0%

Memory usage: 1.12 GiB
Date: Thu Mar  9 05:49:40 2023
