
  ___ ___ ___ _ _ _  
 |   |   |_  | | | | 
 | | | | | . | | | | 
 |__ |  _|___|_____|  22.8.0
 |___|_|             

User:   vazumah@c05.hercules
Date:   Mon Feb 27 10:27:54 2023
Arch:   x86_64
Pid:    32468
CWD:    /home/vazumah/Python_projects/LiNRR/Li_adsorb_studies/proton_donors/N2_with_proton_donor/Li_BCC_100/adsorbates/BH3_retest/bridge/0.0_1.617/N2_x
Python: 3.10.8
gpaw:   /home/vazumah/.conda/envs/GPAW/lib/python3.10/site-packages/gpaw
_gpaw:  /home/vazumah/.conda/envs/GPAW/lib/python3.10/site-packages/
        _gpaw.cpython-310-x86_64-linux-gnu.so
ase:    /home/vazumah/.conda/envs/GPAW/lib/python3.10/site-packages/ase (version 3.22.1)
numpy:  /home/vazumah/.conda/envs/GPAW/lib/python3.10/site-packages/numpy (version 1.24.1)
scipy:  /home/vazumah/.conda/envs/GPAW/lib/python3.10/site-packages/scipy (version 1.10.0)
libxc:  5.2.3
units:  Angstrom and eV
cores: 24
OpenMP: True
OMP_NUM_THREADS: 1

Input parameters:
  h: 0.16
  kpts: {size: [4, 4, 1]}
  occupations: {name: fermi-dirac,
                width: 0.05}
  poissonsolver: {dipolelayer: xy}
  xc: BEEF-vdW

System changes: positions, numbers, cell, pbc, initial_charges, initial_magmoms 

Initialize ...

species:
  Li:
    name: Lithium
    id: 830b4218f175192f93f959cfc0aad614
    Z: 3.0
    valence: 1
    core: 2
    charge: 0.0
    file: /home/vazumah/.conda/envs/GPAW/share/gpaw/Li.PBE.gz
    compensation charges: {type: gauss,
                           rc: 0.33,
                           lmax: 2}
    cutoffs: {filter: 1.91,
              core: 2.55}
    valence states:
      #              energy  rcut
      - 2s(1.00)    -2.874   1.058
      - 2p(0.00)    -1.090   1.058
      -  s          24.337   1.058
  
    # Using partial waves for Li as LCAO basis

  B:
    name: Boron
    id: 6e91439235a05fd7549e31636e8f777c
    Z: 5.0
    valence: 3
    core: 2
    charge: 0.0
    file: /home/vazumah/.conda/envs/GPAW/share/gpaw/B.PBE.gz
    compensation charges: {type: gauss,
                           rc: 0.20,
                           lmax: 2}
    cutoffs: {filter: 1.14,
              core: 1.38}
    valence states:
      #              energy  rcut
      - 2s(2.00)    -9.443   0.635
      - 2p(1.00)    -3.606   0.635
      -  s          17.768   0.635
      -  p          23.605   0.635
      -  d           0.000   0.635
  
    # Using partial waves for B as LCAO basis

  H:
    name: Hydrogen
    id: d65de229564ff8ea4db303e23b6d1ecf
    Z: 1.0
    valence: 1
    core: 0
    charge: 0.0
    file: /home/vazumah/.conda/envs/GPAW/share/gpaw/H.PBE.gz
    compensation charges: {type: gauss,
                           rc: 0.15,
                           lmax: 2}
    cutoffs: {filter: 0.85,
              core: 0.53}
    valence states:
      #              energy  rcut
      - 1s(1.00)    -6.494   0.476
      -  s          20.717   0.476
      -  p           0.000   0.476
  
    # Using partial waves for H as LCAO basis

  N:
    name: Nitrogen
    id: f7500608b86eaa90eef8b1d9a670dc53
    Z: 7.0
    valence: 5
    core: 2
    charge: 0.0
    file: /home/vazumah/.conda/envs/GPAW/share/gpaw/N.PBE.gz
    compensation charges: {type: gauss,
                           rc: 0.18,
                           lmax: 2}
    cutoffs: {filter: 1.11,
              core: 0.96}
    valence states:
      #              energy  rcut
      - 2s(2.00)   -18.583   0.603
      - 2p(3.00)    -7.089   0.529
      -  s           8.629   0.603
      -  p          20.123   0.529
      -  d           0.000   0.577
  
    # Using partial waves for N as LCAO basis

Reference energy: -10970.764591  # eV

Spin-paired calculation

Convergence criteria:
 Maximum [total energy] change in last 3 cyles: 0.0005 eV / electron
 Maximum integral of absolute [dens]ity change: 0.0001 electrons / valence electron
 Maximum integral of absolute [eigenst]ate change: 4e-08 eV^2 / valence electron
 Maximum number of scf [iter]ations: 333
 (Square brackets indicate name in SCF output, whereas a 'c' in
 the SCF output indicates the quantity has converged.)

Symmetries present (total): 1

  ( 1  0  0)
  ( 0  1  0)
  ( 0  0  1)

16 k-points: 4 x 4 x 1 Monkhorst-Pack grid
8 k-points in the irreducible part of the Brillouin zone
       k-points in crystal coordinates                weights
   0:     0.12500000   -0.37500000    0.00000000          2/16
   1:     0.12500000   -0.12500000    0.00000000          2/16
   2:     0.12500000    0.12500000    0.00000000          2/16
   3:     0.12500000    0.37500000    0.00000000          2/16
   4:     0.37500000   -0.37500000    0.00000000          2/16
   5:     0.37500000   -0.12500000    0.00000000          2/16
   6:     0.37500000    0.12500000    0.00000000          2/16
   7:     0.37500000    0.37500000    0.00000000          2/16

Wave functions: Uniform real-space grid
  Kinetic energy operator: 6*3+1=19 point O(h^6) finite-difference Laplacian
  ScaLapack parameters: grid=1x1, blocksize=None
  Wavefunction extrapolation:
    Improved wavefunction reuse through dual PAW basis 

Occupation numbers: Fermi-Dirac:
  width: 0.0500  # eV
 

Eigensolver
   Davidson(niter=2) 

Densities:
  Coarse grid: 60*60*164 grid
  Fine grid: 120*120*328 grid
  Total Charge: 0.000000 

Density mixing:
  Method: separate
  Backend: pulay
  Linear mixing parameter: 0.05
  old densities: 5
  Damping of long wavelength oscillations: 50 

Hamiltonian:
  XC and Coulomb potentials evaluated on a 120*120*328 grid
  Using the BEEF-vdW Exchange-Correlation functional
  Interpolation: tri-quintic (5. degree polynomial)
  Poisson solver: FastPoissonSolver using
    Stencil: 6*3+1=19 point O(h^6) finite-difference Laplacian
    FFT axes: [0, 1]
    FST axes: [2]

Dipole correction along z-axis 

XC parameters: BEEF-vdW with 2 nearest neighbor stencil

Memory estimate:
  Process memory now: 223.34 MiB
  Calculator: 381.63 MiB
    Density: 119.06 MiB
      Arrays: 38.89 MiB
      Localized functions: 65.34 MiB
      Mixer: 14.83 MiB
    Hamiltonian: 30.60 MiB
      Arrays: 25.43 MiB
      XC: 0.00 MiB
      Poisson: 0.00 MiB
      vbar: 5.17 MiB
    Wavefunctions: 231.97 MiB
      Arrays psit_nG: 106.79 MiB
      Eigensolver: 121.82 MiB
      Projections: 0.04 MiB
      Projectors: 3.32 MiB

Total number of cores used: 24
Parallelization over k-points: 8
Domain decomposition: 1 x 1 x 3

Number of atoms: 42
Number of atomic orbitals: 159
Number of bands in calculation: 36
Number of valence electrons: 52
Bands to converge: occupied

... initialized

Initializing position-dependent things.

Density initialized from atomic densities
Creating initial wave functions:
  36 bands from LCAO basis set

       .-----------------------.  
      /|                       |  
     / |                       |  
    /  |                       |  
   /   |                       |  
  /    |                       |  
 *     |                       |  
 |     |                       |  
 |     |                       |  
 |     |                       |  
 |     |                       |  
 |     |                       |  
 |     |                       |  
 |     |                       |  
 |   H |                H      |  
 HB  Li|     Li      Li        |  
 |N  N |                       |  
 | Li  |  LLi     LLi     Li   |  
 |     |                       |  
 Li    |LLi     LLi     Li     |  
 |   Li|     Li      Li        |  
 |    Li  Li  Li  Li  Li  Li   |  
 | Li  |   Li      Li          |  
 |     |Li      Li      Li     |  
 Li    | Li      Li            |  
 |    Li      Li      Li       |  
 |     |                       |  
 |     |                       |  
 |     |                       |  
 |     |                       |  
 |     |                       |  
 |     |                       |  
 |     .-----------------------.  
 |    /                       /   
 |   /                       /    
 |  /                       /     
 | /                       /      
 |/                       /       
 *-----------------------*        

Positions:
   0 Li     1.617037    1.617037   10.000000    ( 0.0000,  0.0000,  0.0000)
   1 Li     4.851111    1.617037   10.000000    ( 0.0000,  0.0000,  0.0000)
   2 Li     8.085185    1.617037   10.000000    ( 0.0000,  0.0000,  0.0000)
   3 Li     1.617037    4.851111   10.000000    ( 0.0000,  0.0000,  0.0000)
   4 Li     4.851111    4.851111   10.000000    ( 0.0000,  0.0000,  0.0000)
   5 Li     8.085185    4.851111   10.000000    ( 0.0000,  0.0000,  0.0000)
   6 Li     1.617037    8.085185   10.000000    ( 0.0000,  0.0000,  0.0000)
   7 Li     4.851111    8.085185   10.000000    ( 0.0000,  0.0000,  0.0000)
   8 Li     8.085185    8.085185   10.000000    ( 0.0000,  0.0000,  0.0000)
   9 Li     0.000000    0.000000   11.617037    ( 0.0000,  0.0000,  0.0000)
  10 Li     3.234074    0.000000   11.617037    ( 0.0000,  0.0000,  0.0000)
  11 Li     6.468148    0.000000   11.617037    ( 0.0000,  0.0000,  0.0000)
  12 Li     0.000000    3.234074   11.617037    ( 0.0000,  0.0000,  0.0000)
  13 Li     3.234074    3.234074   11.617037    ( 0.0000,  0.0000,  0.0000)
  14 Li     6.468148    3.234074   11.617037    ( 0.0000,  0.0000,  0.0000)
  15 Li     0.000000    6.468148   11.617037    ( 0.0000,  0.0000,  0.0000)
  16 Li     3.234074    6.468148   11.617037    ( 0.0000,  0.0000,  0.0000)
  17 Li     6.468148    6.468148   11.617037    ( 0.0000,  0.0000,  0.0000)
  18 Li     1.617038    1.617038   13.469728    ( 0.0000,  0.0000,  0.0000)
  19 Li     4.851111    1.617038   13.469729    ( 0.0000,  0.0000,  0.0000)
  20 Li     8.085184    1.617038   13.469728    ( 0.0000,  0.0000,  0.0000)
  21 Li     1.617038    4.851111   13.469729    ( 0.0000,  0.0000,  0.0000)
  22 Li     4.851111    4.851111   13.469730    ( 0.0000,  0.0000,  0.0000)
  23 Li     8.085184    4.851111   13.469729    ( 0.0000,  0.0000,  0.0000)
  24 Li     1.617038    8.085184   13.469728    ( 0.0000,  0.0000,  0.0000)
  25 Li     4.851111    8.085184   13.469729    ( 0.0000,  0.0000,  0.0000)
  26 Li     8.085184    8.085184   13.469728    ( 0.0000,  0.0000,  0.0000)
  27 Li    -0.000000   -0.000000   15.445939    ( 0.0000,  0.0000,  0.0000)
  28 Li     3.234074    0.000000   15.445939    ( 0.0000,  0.0000,  0.0000)
  29 Li     6.468148    0.000000   15.445939    ( 0.0000,  0.0000,  0.0000)
  30 Li     0.000000    3.234074   15.445939    ( 0.0000,  0.0000,  0.0000)
  31 Li     3.234076    3.234076   15.445938    ( 0.0000,  0.0000,  0.0000)
  32 Li     6.468146    3.234076   15.445938    ( 0.0000,  0.0000,  0.0000)
  33 Li     0.000000    6.468148   15.445939    ( 0.0000,  0.0000,  0.0000)
  34 Li     3.234076    6.468146   15.445938    ( 0.0000,  0.0000,  0.0000)
  35 Li     6.468146    6.468146   15.445938    ( 0.0000,  0.0000,  0.0000)
  36 B      0.000000    1.617037   18.445939    ( 0.0000,  0.0000,  0.0000)
  37 H      1.032569    2.209323   18.445939    ( 0.0000,  0.0000,  0.0000)
  38 H     -1.029909    2.213996   18.445939    ( 0.0000,  0.0000,  0.0000)
  39 H      0.000086    0.428437   18.445939    ( 0.0000,  0.0000,  0.0000)
  40 N      0.000000    1.617000   16.945939    ( 0.0000,  0.0000,  0.0000)
  41 N      1.096622    1.617000   16.945939    ( 0.0000,  0.0000,  0.0000)

Unit cell:
           periodic     x           y           z      points  spacing
  1. axis:    yes    9.702222    0.000000    0.000000    60     0.1617
  2. axis:    yes    0.000000    9.702222    0.000000    60     0.1617
  3. axis:    no     0.000000    0.000000   26.351111   164     0.1607

  Lengths:   9.702222   9.702222  26.351111
  Angles:   90.000000  90.000000  90.000000

Effective grid spacing dv^(1/3) = 0.1614

     iter     time        total  log10-change:
                         energy  eigst   dens
iter:   1 10:31:13  -327.759810
iter:   2 10:33:39  -219.312087  +2.21  -0.14
iter:   3 10:36:13  -189.583591  +2.60  -0.36
iter:   4 10:38:36  -208.778361  +2.76  -0.40
Writing to output.gpw (mode='')

iter:   5 10:41:04  -225.348196  +2.30  -0.46
iter:   6 10:43:36  -240.883340  +2.09  -0.62
iter:   7 10:46:05  -284.744654  +2.54  -0.70
iter:   8 10:48:39  -270.493049  +1.67  -0.37
iter:   9 10:51:12  -273.251152  +1.39  -0.45
Writing to output.gpw (mode='')

iter:  10 10:53:49  -254.658331  +1.19  -0.43
iter:  11 10:56:21  -257.631845  +0.83  -0.82
iter:  12 10:58:43  -256.089059  +0.92  -0.81
iter:  13 11:01:15  -257.070760  +0.77  -0.83
iter:  14 11:03:40  -256.874201  +1.23  -0.77
Writing to output.gpw (mode='')

iter:  15 11:06:26  -254.954712  +0.45  -0.80
iter:  16 11:08:59  -253.777533  +0.16  -0.84
iter:  17 11:11:24  -254.093156  -0.00  -0.88
iter:  18 11:14:00  -253.255393  +0.32  -0.88
iter:  19 11:16:23  -252.835501  +0.61  -0.99
Writing to output.gpw (mode='')

iter:  20 11:18:52  -252.690972  +0.11  -0.98
iter:  21 11:21:20  -252.566744  +0.36  -1.01
iter:  22 11:23:49  -252.279674  -0.16  -1.29
iter:  23 11:26:22  -252.243873  -0.40  -1.36
iter:  24 11:28:51  -252.201842  -0.72  -1.39
Writing to output.gpw (mode='')

iter:  25 11:31:34  -252.203366  -0.39  -1.58
iter:  26 11:34:00  -252.208271c -0.94  -1.65
iter:  27 11:36:31  -252.206975c -1.13  -1.70
iter:  28 11:39:02  -252.203843c -0.96  -1.83
iter:  29 11:41:25  -252.205496c -1.27  -2.03
Writing to output.gpw (mode='')

iter:  30 11:43:55  -252.206775c -1.69  -2.24
iter:  31 11:46:33  -252.208446c -1.72  -2.26
iter:  32 11:48:59  -252.210727c -1.72  -2.32
iter:  33 11:51:26  -252.212717c -1.88  -2.44
iter:  34 11:53:50  -252.213817c -2.04  -2.46
Writing to output.gpw (mode='')

iter:  35 11:56:20  -252.215399c -2.01  -2.50
iter:  36 11:58:42  -252.215765c -2.11  -2.44
iter:  37 12:01:06  -252.216548c -2.26  -2.64
iter:  38 12:03:27  -252.217243c -2.21  -2.67
iter:  39 12:05:57  -252.218558c -2.15  -2.65
Writing to output.gpw (mode='')

iter:  40 12:08:28  -252.218888c -2.37  -2.54
iter:  41 12:10:43  -252.219460c -2.45  -2.60
iter:  42 12:13:12  -252.220300c -2.19  -2.57
iter:  43 12:15:40  -252.220842c -2.28  -2.60
iter:  44 12:18:04  -252.221372c -2.78  -2.63
Writing to output.gpw (mode='')

iter:  45 12:20:34  -252.222375c -2.42  -2.60
iter:  46 12:23:09  -252.222077c -2.53  -2.49
iter:  47 12:25:40  -252.222784c -2.49  -2.61
iter:  48 12:28:07  -252.222678c -2.64  -2.47
iter:  49 12:30:32  -252.222958c -3.04  -2.75
Writing to output.gpw (mode='')

iter:  50 12:33:08  -252.223167c -2.89  -2.71
iter:  51 12:35:36  -252.223362c -3.02  -2.72
iter:  52 12:38:03  -252.223352c -2.99  -2.72
iter:  53 12:40:24  -252.223216c -3.21  -2.68
iter:  54 12:42:49  -252.223414c -3.11  -2.67
Writing to output.gpw (mode='')

iter:  55 12:45:20  -252.222896c -3.10  -2.62
iter:  56 12:47:38  -252.222978c -3.47  -2.73
iter:  57 12:50:07  -252.223591c -2.91  -2.78
iter:  58 12:52:35  -252.223310c -3.20  -2.75
iter:  59 12:55:03  -252.223262c -3.55  -2.93
Writing to output.gpw (mode='')

iter:  60 12:57:37  -252.223279c -3.83  -3.07
iter:  61 12:59:59  -252.223256c -3.61  -3.12
iter:  62 13:02:34  -252.223280c -3.67  -3.29
iter:  63 13:05:08  -252.223271c -3.94  -3.40
iter:  64 13:07:35  -252.223282c -4.21  -3.41
Writing to output.gpw (mode='')

iter:  65 13:10:04  -252.223256c -3.89  -3.38
iter:  66 13:12:29  -252.223260c -4.38  -3.34
iter:  67 13:14:57  -252.223265c -4.23  -3.34
iter:  68 13:17:23  -252.223272c -4.16  -3.35
iter:  69 13:19:52  -252.223290c -4.19  -3.29
Writing to output.gpw (mode='')

iter:  70 13:22:23  -252.223292c -4.51  -3.28
iter:  71 13:24:48  -252.223329c -4.26  -3.24
iter:  72 13:27:14  -252.223323c -4.39  -3.31
iter:  73 13:29:35  -252.223331c -4.63  -3.47
iter:  74 13:32:03  -252.223333c -4.57  -3.42
Writing to output.gpw (mode='')

iter:  75 13:34:42  -252.223338c -4.45  -3.44
iter:  76 13:37:06  -252.223342c -4.47  -3.54
iter:  77 13:39:45  -252.223359c -4.62  -3.76
iter:  78 13:42:03  -252.223353c -4.85  -3.87
iter:  79 13:44:24  -252.223344c -5.07  -3.93
Writing to output.gpw (mode='')

iter:  80 13:46:54  -252.223327c -5.09  -3.98
iter:  81 13:49:10  -252.223327c -5.25  -4.17c
iter:  82 13:51:36  -252.223332c -5.21  -4.20c
iter:  83 13:54:05  -252.223332c -5.45  -4.19c
iter:  84 13:56:35  -252.223338c -5.46  -4.20c
Writing to output.gpw (mode='')

iter:  85 13:59:08  -252.223337c -5.56  -4.37c
iter:  86 14:01:31  -252.223333c -5.45  -4.45c
iter:  87 14:03:53  -252.223333c -5.76  -4.57c
iter:  88 14:06:17  -252.223337c -5.64  -4.67c
iter:  89 14:08:46  -252.223335c -5.80  -4.81c
Writing to output.gpw (mode='')

iter:  90 14:11:12  -252.223336c -5.83  -4.77c
iter:  91 14:13:32  -252.223336c -5.85  -4.85c
iter:  92 14:16:01  -252.223336c -5.98  -5.18c
iter:  93 14:18:28  -252.223336c -5.75  -5.33c
iter:  94 14:20:54  -252.223337c -5.87  -5.36c
Writing to output.gpw (mode='')

iter:  95 14:23:29  -252.223337c -6.04  -5.48c
iter:  96 14:25:55  -252.223337c -5.82  -5.46c
iter:  97 14:28:12  -252.223336c -6.14  -5.37c
iter:  98 14:30:51  -252.223336c -6.27  -5.50c
iter:  99 14:33:17  -252.223336c -6.25  -5.41c
Writing to output.gpw (mode='')

iter: 100 14:35:59  -252.223336c -6.41  -5.48c
iter: 101 14:38:30  -252.223336c -6.37  -5.43c
iter: 102 14:40:55  -252.223336c -6.36  -5.41c
iter: 103 14:43:22  -252.223336c -6.42  -5.37c
iter: 104 14:45:58  -252.223336c -6.46  -5.35c
Writing to output.gpw (mode='')

iter: 105 14:48:38  -252.223336c -6.61  -5.33c
iter: 106 14:50:56  -252.223336c -6.68  -5.25c
iter: 107 14:53:18  -252.223336c -6.71  -5.30c
iter: 108 14:55:43  -252.223336c -6.70  -5.17c
iter: 109 14:58:13  -252.223337c -6.87  -5.24c
Writing to output.gpw (mode='')

iter: 110 15:00:44  -252.223337c -6.74  -5.35c
iter: 111 15:03:08  -252.223337c -6.57  -5.42c
iter: 112 15:05:32  -252.223337c -6.61  -5.50c
iter: 113 15:07:58  -252.223337c -6.91  -5.56c
iter: 114 15:10:27  -252.223337c -6.89  -5.60c
Writing to output.gpw (mode='')

iter: 115 15:13:05  -252.223337c -6.81  -5.64c
iter: 116 15:15:24  -252.223337c -7.08  -5.77c
iter: 117 15:17:54  -252.223337c -7.09  -5.83c
iter: 118 15:20:21  -252.223337c -7.11  -5.87c
iter: 119 15:22:56  -252.223337c -7.26  -5.96c
Writing to output.gpw (mode='')

iter: 120 15:25:29  -252.223337c -7.50c -6.21c

Converged after 120 iterations.

Dipole moment: (-12.003793, -4.028228, -0.316111) |e|*Ang

Energy contributions relative to reference atoms: (reference = -10970.764591)

Kinetic:       +136.589765
Potential:     -119.684097
External:        +0.000000
XC:            -269.368809
Entropy (-ST):   -0.154797
Local:           +0.317201
--------------------------
Free energy:   -252.300736
Extrapolated:  -252.223337

Dipole-layer corrected work functions: 3.420313, 4.027986 eV

Showing only first 2 kpts
 Kpt  Band  Eigenvalues  Occupancy
  0    24     -3.96377    1.98355
  0    25     -3.81745    1.73199
  0    26     -3.61118    0.18909
  0    27     -3.47312    0.01312

  1    24     -3.78593    1.54962
  1    25     -3.73164    1.07473
  1    26     -3.68886    0.66107
  1    27     -3.59723    0.14641


Fermi level: -3.72415

No gap

Forces in eV/Ang:
  0 Li    0.01331    0.00050   -0.27084
  1 Li    0.00649    0.00015   -0.26299
  2 Li   -0.01986    0.00011   -0.27405
  3 Li    0.00424    0.01972   -0.27400
  4 Li   -0.00086    0.00625   -0.28816
  5 Li   -0.00469    0.01434   -0.27672
  6 Li    0.00341   -0.02068   -0.27473
  7 Li   -0.00019   -0.00647   -0.28538
  8 Li   -0.00546   -0.01490   -0.27928
  9 Li   -0.00149    0.01460    0.32904
 10 Li    0.01452   -0.00169    0.25896
 11 Li   -0.01223   -0.00172    0.24870
 12 Li   -0.00108   -0.01467    0.32419
 13 Li    0.01550    0.00124    0.25905
 14 Li   -0.01609    0.00140    0.24786
 15 Li    0.00795    0.00038    0.22732
 16 Li   -0.02461    0.00037    0.24764
 17 Li    0.02052    0.00014    0.25845
 18 Li    0.05967   -0.00032   -0.10863
 19 Li    0.01020    0.00012    0.03413
 20 Li   -0.05531    0.00433   -0.07798
 21 Li   -0.01987   -0.02291    0.05348
 22 Li   -0.00360    0.00155    0.03712
 23 Li    0.02596   -0.02070    0.05138
 24 Li   -0.01980    0.02580    0.05694
 25 Li   -0.00177   -0.00006    0.04353
 26 Li    0.02344    0.01744    0.04628
 27 Li   -0.06738    0.03553   -0.00265
 28 Li   -0.02090    0.01498    0.00719
 29 Li   -0.03583   -0.01764   -0.01222
 30 Li    0.00985   -0.04615   -0.01007
 31 Li   -0.02926   -0.01660    0.00600
 32 Li   -0.01228    0.01623    0.00077
 33 Li    0.00400    0.00217   -0.02595
 34 Li   -0.01384    0.00043   -0.01663
 35 Li    0.00816   -0.00048   -0.01492
 36 B    -1.25931   -0.56107    2.04487
 37 H     0.57425    0.76439    3.41778
 38 H    -0.33230    0.69987    1.37059
 39 H    -0.34013   -0.48419    1.85967
 40 N    -9.83001   -0.97696   -5.03236
 41 N    11.27881    0.56101   -3.61032

System changes: positions 

Initializing position-dependent things.

Density initialized from wave functions
       .-----------------------.  
      /|                       |  
     / |                       |  
    /  |                       |  
   /   |                       |  
  /    |                       |  
 *     |                       |  
 |     |                       |  
 |     |                       |  
 |     |                       |  
 |     |                       |  
 |     |                       |  
 |     |                       |  
 |     |               Li      |  
 |   H |                H      |  
 |   Li|     Li      Li  HB    |  
 |   N |                  N    |  
 | Li  |  LLi     LLi     Li   |  
 |     |                       |  
 |     |LLi     Li      LLi    |  
 |   Li|     Li      Li        |  
 |    Li  Li  Li  Li  Li  Li   |  
 | Li  |   Li      Li          |  
 |     |Li      Li      Li     |  
 Li    | Li      Li            |  
 |    Li      Li      Li       |  
 |     |                       |  
 |     |                       |  
 |     |                       |  
 |     |                       |  
 |     |                       |  
 |     |                       |  
 |     .-----------------------.  
 |    /                       /   
 |   /                       /    
 |  /                       /     
 | /                       /      
 |/                       /       
 *-----------------------*        

Positions:
   0 Li     1.617037    1.617037   10.000000    ( 0.0000,  0.0000,  0.0000)
   1 Li     4.851111    1.617037   10.000000    ( 0.0000,  0.0000,  0.0000)
   2 Li     8.085185    1.617037   10.000000    ( 0.0000,  0.0000,  0.0000)
   3 Li     1.617037    4.851111   10.000000    ( 0.0000,  0.0000,  0.0000)
   4 Li     4.851111    4.851111   10.000000    ( 0.0000,  0.0000,  0.0000)
   5 Li     8.085185    4.851111   10.000000    ( 0.0000,  0.0000,  0.0000)
   6 Li     1.617037    8.085185   10.000000    ( 0.0000,  0.0000,  0.0000)
   7 Li     4.851111    8.085185   10.000000    ( 0.0000,  0.0000,  0.0000)
   8 Li     8.085185    8.085185   10.000000    ( 0.0000,  0.0000,  0.0000)
   9 Li     0.000000    0.000000   11.617037    ( 0.0000,  0.0000,  0.0000)
  10 Li     3.234074    0.000000   11.617037    ( 0.0000,  0.0000,  0.0000)
  11 Li     6.468148    0.000000   11.617037    ( 0.0000,  0.0000,  0.0000)
  12 Li     0.000000    3.234074   11.617037    ( 0.0000,  0.0000,  0.0000)
  13 Li     3.234074    3.234074   11.617037    ( 0.0000,  0.0000,  0.0000)
  14 Li     6.468148    3.234074   11.617037    ( 0.0000,  0.0000,  0.0000)
  15 Li     0.000000    6.468148   11.617037    ( 0.0000,  0.0000,  0.0000)
  16 Li     3.234074    6.468148   11.617037    ( 0.0000,  0.0000,  0.0000)
  17 Li     6.468148    6.468148   11.617037    ( 0.0000,  0.0000,  0.0000)
  18 Li     1.617239    1.617037   13.469361    ( 0.0000,  0.0000,  0.0000)
  19 Li     4.851145    1.617039   13.469845    ( 0.0000,  0.0000,  0.0000)
  20 Li     8.084997    1.617053   13.469465    ( 0.0000,  0.0000,  0.0000)
  21 Li     1.616971    4.851034   13.469910    ( 0.0000,  0.0000,  0.0000)
  22 Li     4.851099    4.851116   13.469855    ( 0.0000,  0.0000,  0.0000)
  23 Li     8.085271    4.851041   13.469903    ( 0.0000,  0.0000,  0.0000)
  24 Li     1.616971    8.085271   13.469920    ( 0.0000,  0.0000,  0.0000)
  25 Li     4.851105    8.085183   13.469876    ( 0.0000,  0.0000,  0.0000)
  26 Li     8.085263    8.085243   13.469884    ( 0.0000,  0.0000,  0.0000)
  27 Li    -0.000227    0.000120   15.445930    ( 0.0000,  0.0000,  0.0000)
  28 Li     3.234003    0.000051   15.445963    ( 0.0000,  0.0000,  0.0000)
  29 Li     6.468027   -0.000060   15.445898    ( 0.0000,  0.0000,  0.0000)
  30 Li     0.000033    3.233918   15.445905    ( 0.0000,  0.0000,  0.0000)
  31 Li     3.233978    3.234020   15.445958    ( 0.0000,  0.0000,  0.0000)
  32 Li     6.468104    3.234131   15.445941    ( 0.0000,  0.0000,  0.0000)
  33 Li     0.000013    6.468156   15.445851    ( 0.0000,  0.0000,  0.0000)
  34 Li     3.234030    6.468147   15.445882    ( 0.0000,  0.0000,  0.0000)
  35 Li     6.468173    6.468144   15.445888    ( 0.0000,  0.0000,  0.0000)
  36 B     -0.004249    1.615144   18.452838    ( 0.0000,  0.0000,  0.0000)
  37 H      1.034507    2.211902   18.457471    ( 0.0000,  0.0000,  0.0000)
  38 H     -1.031030    2.216357   18.450564    ( 0.0000,  0.0000,  0.0000)
  39 H     -0.001062    0.426804   18.452214    ( 0.0000,  0.0000,  0.0000)
  40 N     -0.033165    1.613704   16.928961    ( 0.0000,  0.0000,  0.0000)
  41 N      1.134675    1.618893   16.933759    ( 0.0000,  0.0000,  0.0000)

Unit cell:
           periodic     x           y           z      points  spacing
  1. axis:    yes    9.702222    0.000000    0.000000    60     0.1617
  2. axis:    yes    0.000000    9.702222    0.000000    60     0.1617
  3. axis:    no     0.000000    0.000000   26.351111   164     0.1607

  Lengths:   9.702222   9.702222  26.351111
  Angles:   90.000000  90.000000  90.000000

Effective grid spacing dv^(1/3) = 0.1614

     iter     time        total  log10-change:
                         energy  eigst   dens
iter:   1 15:28:30  -257.678820  +0.57
iter:   2 15:30:55  -253.865892  +0.38  -0.89
iter:   3 15:33:20  -253.294998  -0.41  -1.02
iter:   4 15:35:51  -253.029383  -0.61  -1.21
Writing to output.gpw (mode='')

iter:   5 15:38:38  -252.991917  -1.11  -1.43
iter:   6 15:41:02  -252.911020  -0.90  -1.50
iter:   7 15:43:24  -252.882684  -0.92  -1.74
iter:   8 15:45:57  -252.885466  -1.38  -2.09
iter:   9 15:48:24  -252.884394c -1.55  -2.08
Writing to output.gpw (mode='')

iter:  10 15:50:57  -252.884812c -1.52  -2.20
iter:  11 15:53:21  -252.885076c -1.99  -2.30
iter:  12 15:55:47  -252.885307c -2.08  -2.42
iter:  13 15:58:18  -252.885479c -2.14  -2.52
iter:  14 16:00:45  -252.885338c -2.23  -2.66
Writing to output.gpw (mode='')

iter:  15 16:03:22  -252.885670c -2.60  -2.89
iter:  16 16:05:49  -252.885929c -2.65  -2.95
iter:  17 16:08:13  -252.886026c -2.92  -3.05
iter:  18 16:10:41  -252.886374c -2.98  -3.08
iter:  19 16:13:03  -252.886456c -3.08  -3.16
Writing to output.gpw (mode='')

iter:  20 16:15:32  -252.886355c -3.26  -3.17
iter:  21 16:18:05  -252.886499c -3.32  -3.35
iter:  22 16:20:27  -252.886486c -3.48  -3.50
iter:  23 16:23:00  -252.886516c -3.37  -3.59
iter:  24 16:25:22  -252.886543c -3.82  -3.65
Writing to output.gpw (mode='')

iter:  25 16:28:10  -252.886562c -3.69  -3.61
iter:  26 16:30:40  -252.886610c -3.81  -3.63
iter:  27 16:33:05  -252.886617c -3.88  -3.59
iter:  28 16:35:32  -252.886634c -3.91  -3.56
iter:  29 16:37:59  -252.886662c -4.22  -3.56
Writing to output.gpw (mode='')

iter:  30 16:40:34  -252.886681c -4.46  -3.53
iter:  31 16:42:54  -252.886673c -4.42  -3.49
iter:  32 16:45:23  -252.886660c -4.22  -3.52
iter:  33 16:47:50  -252.886700c -4.56  -3.50
iter:  34 16:50:17  -252.886719c -4.41  -3.48
Writing to output.gpw (mode='')

iter:  35 16:53:03  -252.886651c -4.53  -3.37
iter:  36 16:55:33  -252.886646c -4.93  -3.55
iter:  37 16:57:54  -252.886644c -5.01  -3.53
iter:  38 17:00:15  -252.886631c -4.45  -3.54
iter:  39 17:02:42  -252.886607c -5.21  -3.43
Writing to output.gpw (mode='')

iter:  40 17:05:23  -252.886565c -4.70  -3.50
iter:  41 17:07:49  -252.886587c -5.46  -3.74
iter:  42 17:10:19  -252.886573c -5.50  -3.78
iter:  43 17:12:47  -252.886580c -5.57  -3.92
iter:  44 17:15:23  -252.886575c -5.56  -4.00c
Writing to output.gpw (mode='')

iter:  45 17:18:03  -252.886590c -5.50  -4.29c
iter:  46 17:20:31  -252.886586c -5.97  -4.35c
iter:  47 17:23:02  -252.886584c -5.99  -4.41c
iter:  48 17:25:34  -252.886585c -6.04  -4.53c
iter:  49 17:28:05  -252.886584c -6.00  -4.58c
Writing to output.gpw (mode='')

iter:  50 17:30:55  -252.886583c -5.92  -4.66c
iter:  51 17:33:19  -252.886584c -6.30  -4.72c
iter:  52 17:35:54  -252.886582c -6.29  -4.79c
iter:  53 17:38:27  -252.886584c -6.52  -4.82c
iter:  54 17:40:49  -252.886584c -6.49  -4.89c
Writing to output.gpw (mode='')

iter:  55 17:43:30  -252.886584c -6.45  -5.11c
iter:  56 17:45:47  -252.886584c -6.59  -5.26c
iter:  57 17:48:12  -252.886583c -6.65  -5.29c
iter:  58 17:50:38  -252.886584c -6.65  -5.36c
iter:  59 17:53:10  -252.886583c -6.82  -5.42c
Writing to output.gpw (mode='')

iter:  60 17:55:51  -252.886583c -6.97  -5.48c
iter:  61 17:58:16  -252.886583c -6.81  -5.52c
iter:  62 18:00:39  -252.886583c -6.90  -5.53c
iter:  63 18:03:03  -252.886583c -7.03  -5.61c
iter:  64 18:05:32  -252.886583c -7.19  -5.67c
Writing to output.gpw (mode='')

iter:  65 18:08:11  -252.886583c -7.28  -5.67c
iter:  66 18:10:42  -252.886583c -7.37  -5.60c
iter:  67 18:13:11  -252.886583c -7.31  -5.73c
iter:  68 18:15:36  -252.886583c -7.34  -5.80c
iter:  69 18:17:58  -252.886583c -7.40c -5.80c

Converged after 69 iterations.

Dipole moment: (-8.144307, -3.850222, -0.372388) |e|*Ang

Energy contributions relative to reference atoms: (reference = -10970.764591)

Kinetic:       +125.354558
Potential:     -111.050563
External:        +0.000000
XC:            -267.424915
Entropy (-ST):   -0.164049
Local:           +0.316361
--------------------------
Free energy:   -252.968608
Extrapolated:  -252.886583

Dipole-layer corrected work functions: 3.424712, 4.140570 eV

Showing only first 2 kpts
 Kpt  Band  Eigenvalues  Occupancy
  0    24     -4.01905    1.98247
  0    25     -3.86417    1.67249
  0    26     -3.68562    0.25122
  0    27     -3.54743    0.01795

  1    24     -3.84007    1.51850
  1    25     -3.79605    1.13334
  1    26     -3.74228    0.61695
  1    27     -3.64759    0.12582


Fermi level: -3.78264

Gap: 0.017 eV
Transition (v -> c):
  (s=0, k=2, n=25, [0.12, 0.12, 0.00]) -> (s=0, k=7, n=26, [0.38, 0.38, 0.00])
Writing to output.gpw (mode='')


Forces in eV/Ang:
  0 Li    0.01314    0.00048   -0.27268
  1 Li    0.00463    0.00021   -0.26357
  2 Li   -0.01790    0.00016   -0.27556
  3 Li    0.00371    0.01916   -0.27529
  4 Li   -0.00047    0.00697   -0.28839
  5 Li   -0.00498    0.01627   -0.27776
  6 Li    0.00280   -0.02026   -0.27587
  7 Li    0.00031   -0.00733   -0.28518
  8 Li   -0.00562   -0.01684   -0.28056
  9 Li   -0.00183    0.01356    0.33101
 10 Li    0.01336   -0.00032    0.26153
 11 Li   -0.01084   -0.00144    0.25200
 12 Li   -0.00107   -0.01392    0.32614
 13 Li    0.01427   -0.00011    0.26157
 14 Li   -0.01492    0.00138    0.25052
 15 Li    0.00797    0.00077    0.22789
 16 Li   -0.02260    0.00054    0.24724
 17 Li    0.01928   -0.00007    0.25504
 18 Li    0.05804   -0.00036   -0.09902
 19 Li    0.01427    0.00061    0.03082
 20 Li   -0.05684    0.00477   -0.09098
 21 Li   -0.01859   -0.01743    0.04264
 22 Li   -0.00367    0.00028    0.03854
 23 Li    0.02542   -0.01809    0.04615
 24 Li   -0.01894    0.02181    0.04822
 25 Li   -0.00137    0.00111    0.04382
 26 Li    0.02219    0.01439    0.04102
 27 Li   -0.03177    0.12267    0.12692
 28 Li   -0.05181    0.03698    0.04749
 29 Li   -0.03514   -0.02489   -0.00605
 30 Li    0.06015   -0.15049    0.13335
 31 Li   -0.06778   -0.04316    0.04841
 32 Li   -0.01028    0.02338    0.00606
 33 Li   -0.00111    0.00293   -0.02821
 34 Li   -0.00817    0.00065   -0.01891
 35 Li    0.00727   -0.00049   -0.01589
 36 B    -0.93804   -0.62510    1.00207
 37 H     0.48569    0.65373    3.01999
 38 H    -0.35917    0.74271    1.37864
 39 H    -0.31398   -0.49611    1.84212
 40 N    -2.40411   -0.85074   -4.37416
 41 N     3.66917    0.59487   -3.16526

System changes: positions 

Initializing position-dependent things.

Density initialized from wave functions
       .-----------------------.  
      /|                       |  
     / |                       |  
    /  |                       |  
   /   |                       |  
  /    |                       |  
 *     |                       |  
 |     |                       |  
 |     |                       |  
 |     |                       |  
 |     |                       |  
 |     |                       |  
 |     |                       |  
 |     |               Li      |  
 |   H |                H      |  
 |     |     Li      Li  HB  Li|  
 |   N |                  N    |  
 | Li  |  LLi     LLi     Li   |  
 |     |                       |  
 |     |LLi     Li      LLi    |  
 |   Li|     Li      Li        |  
 |    Li  Li  Li  Li  Li  Li   |  
 | Li  |   Li      Li          |  
 |     |Li      Li      Li     |  
 Li    | Li      Li            |  
 |    Li      Li      Li       |  
 |     |                       |  
 |     |                       |  
 |     |                       |  
 |     |                       |  
 |     |                       |  
 |     |                       |  
 |     .-----------------------.  
 |    /                       /   
 |   /                       /    
 |  /                       /     
 | /                       /      
 |/                       /       
 *-----------------------*        

Positions:
   0 Li     1.617037    1.617037   10.000000    ( 0.0000,  0.0000,  0.0000)
   1 Li     4.851111    1.617037   10.000000    ( 0.0000,  0.0000,  0.0000)
   2 Li     8.085185    1.617037   10.000000    ( 0.0000,  0.0000,  0.0000)
   3 Li     1.617037    4.851111   10.000000    ( 0.0000,  0.0000,  0.0000)
   4 Li     4.851111    4.851111   10.000000    ( 0.0000,  0.0000,  0.0000)
   5 Li     8.085185    4.851111   10.000000    ( 0.0000,  0.0000,  0.0000)
   6 Li     1.617037    8.085185   10.000000    ( 0.0000,  0.0000,  0.0000)
   7 Li     4.851111    8.085185   10.000000    ( 0.0000,  0.0000,  0.0000)
   8 Li     8.085185    8.085185   10.000000    ( 0.0000,  0.0000,  0.0000)
   9 Li     0.000000    0.000000   11.617037    ( 0.0000,  0.0000,  0.0000)
  10 Li     3.234074    0.000000   11.617037    ( 0.0000,  0.0000,  0.0000)
  11 Li     6.468148    0.000000   11.617037    ( 0.0000,  0.0000,  0.0000)
  12 Li     0.000000    3.234074   11.617037    ( 0.0000,  0.0000,  0.0000)
  13 Li     3.234074    3.234074   11.617037    ( 0.0000,  0.0000,  0.0000)
  14 Li     6.468148    3.234074   11.617037    ( 0.0000,  0.0000,  0.0000)
  15 Li     0.000000    6.468148   11.617037    ( 0.0000,  0.0000,  0.0000)
  16 Li     3.234074    6.468148   11.617037    ( 0.0000,  0.0000,  0.0000)
  17 Li     6.468148    6.468148   11.617037    ( 0.0000,  0.0000,  0.0000)
  18 Li     1.617777    1.617034   13.468462    ( 0.0000,  0.0000,  0.0000)
  19 Li     4.851289    1.617046   13.470124    ( 0.0000,  0.0000,  0.0000)
  20 Li     8.084463    1.617098   13.468583    ( 0.0000,  0.0000,  0.0000)
  21 Li     1.616801    4.850885   13.470280    ( 0.0000,  0.0000,  0.0000)
  22 Li     4.851064    4.851116   13.470219    ( 0.0000,  0.0000,  0.0000)
  23 Li     8.085507    4.850879   13.470320    ( 0.0000,  0.0000,  0.0000)
  24 Li     1.616797    8.085464   13.470347    ( 0.0000,  0.0000,  0.0000)
  25 Li     4.851093    8.085197   13.470286    ( 0.0000,  0.0000,  0.0000)
  26 Li     8.085467    8.085369   13.470253    ( 0.0000,  0.0000,  0.0000)
  27 Li    -0.000433    0.001487   15.447446    ( 0.0000,  0.0000,  0.0000)
  28 Li     3.233441    0.000452   15.446509    ( 0.0000,  0.0000,  0.0000)
  29 Li     6.467701   -0.000310   15.445857    ( 0.0000,  0.0000,  0.0000)
  30 Li     0.000723    3.232248   15.447515    ( 0.0000,  0.0000,  0.0000)
  31 Li     3.233247    3.233550   15.446518    ( 0.0000,  0.0000,  0.0000)
  32 Li     6.468013    3.234368   15.446011    ( 0.0000,  0.0000,  0.0000)
  33 Li    -0.000010    6.468185   15.445582    ( 0.0000,  0.0000,  0.0000)
  34 Li     3.233968    6.468154   15.445700    ( 0.0000,  0.0000,  0.0000)
  35 Li     6.468239    6.468139   15.445737    ( 0.0000,  0.0000,  0.0000)
  36 B     -0.012177    1.609149   18.459520    ( 0.0000,  0.0000,  0.0000)
  37 H      1.038811    2.217717   18.484623    ( 0.0000,  0.0000,  0.0000)
  38 H     -1.034449    2.223394   18.463444    ( 0.0000,  0.0000,  0.0000)
  39 H     -0.003924    0.422146   18.469351    ( 0.0000,  0.0000,  0.0000)
  40 N     -0.036605    1.606091   16.889843    ( 0.0000,  0.0000,  0.0000)
  41 N      1.149445    1.624528   16.905372    ( 0.0000,  0.0000,  0.0000)

Unit cell:
           periodic     x           y           z      points  spacing
  1. axis:    yes    9.702222    0.000000    0.000000    60     0.1617
  2. axis:    yes    0.000000    9.702222    0.000000    60     0.1617
  3. axis:    no     0.000000    0.000000   26.351111   164     0.1607

  Lengths:   9.702222   9.702222  26.351111
  Angles:   90.000000  90.000000  90.000000

Effective grid spacing dv^(1/3) = 0.1614

     iter     time        total  log10-change:
                         energy  eigst   dens
iter:   1 18:21:13  -253.783050  -0.45
iter:   2 18:23:27  -253.853302  -0.19  -1.22
iter:   3 18:25:52  -253.336801  -0.79  -1.16
iter:   4 18:28:29  -253.332224  -1.33  -1.85
Writing to output.gpw (mode='')

iter:   5 18:30:59  -253.324829c -1.16  -1.98
iter:   6 18:33:27  -253.325939c -1.11  -2.14
iter:   7 18:35:52  -253.327363c -1.93  -2.18
iter:   8 18:38:11  -253.325240c -2.05  -2.27
iter:   9 18:40:47  -253.324603c -2.39  -2.55
Writing to output.gpw (mode='')

iter:  10 18:43:16  -253.324734c -2.70  -2.65
iter:  11 18:45:43  -253.325224c -2.84  -2.69
iter:  12 18:48:13  -253.325102c -2.85  -2.78
iter:  13 18:50:40  -253.325145c -2.97  -2.87
iter:  14 18:53:05  -253.325180c -3.16  -2.91
Writing to output.gpw (mode='')

iter:  15 18:55:40  -253.325089c -3.29  -3.00
iter:  16 18:58:02  -253.325150c -3.57  -3.15
iter:  17 19:00:35  -253.325330c -3.80  -3.21
iter:  18 19:03:03  -253.325146c -3.90  -3.14
iter:  19 19:05:29  -253.325244c -4.06  -3.35
Writing to output.gpw (mode='')

iter:  20 19:07:59  -253.325303c -4.22  -3.53
iter:  21 19:10:21  -253.325307c -4.22  -3.66
iter:  22 19:12:48  -253.325290c -4.37  -3.80
iter:  23 19:15:10  -253.325278c -4.81  -3.92
iter:  24 19:17:51  -253.325295c -4.90  -3.97
Writing to output.gpw (mode='')

iter:  25 19:20:33  -253.325291c -4.76  -4.12c
iter:  26 19:23:02  -253.325287c -4.95  -4.20c
iter:  27 19:25:27  -253.325293c -5.35  -4.20c
iter:  28 19:27:52  -253.325292c -5.23  -4.25c
iter:  29 19:30:22  -253.325301c -5.38  -4.28c
Writing to output.gpw (mode='')

iter:  30 19:33:04  -253.325304c -5.54  -4.35c
iter:  31 19:35:24  -253.325300c -5.58  -4.41c
iter:  32 19:37:42  -253.325300c -5.53  -4.49c
iter:  33 19:40:02  -253.325299c -5.86  -4.78c
iter:  34 19:42:33  -253.325302c -5.84  -4.77c
Writing to output.gpw (mode='')

iter:  35 19:45:03  -253.325302c -6.00  -4.84c
iter:  36 19:47:39  -253.325302c -5.99  -4.88c
iter:  37 19:50:05  -253.325303c -6.18  -5.06c
iter:  38 19:52:30  -253.325304c -6.23  -5.18c
iter:  39 19:54:53  -253.325303c -6.34  -5.21c
Writing to output.gpw (mode='')

iter:  40 19:57:33  -253.325303c -6.49  -5.05c
iter:  41 20:00:04  -253.325303c -6.48  -5.04c
iter:  42 20:02:22  -253.325304c -6.50  -5.11c
iter:  43 20:04:40  -253.325304c -6.50  -5.10c
iter:  44 20:07:07  -253.325305c -6.62  -5.15c
Writing to output.gpw (mode='')

iter:  45 20:09:46  -253.325305c -6.83  -5.22c
iter:  46 20:12:13  -253.325304c -6.93  -5.21c
iter:  47 20:14:43  -253.325304c -6.90  -5.15c
iter:  48 20:17:10  -253.325305c -7.09  -5.15c
iter:  49 20:19:35  -253.325305c -7.19  -5.20c
Writing to output.gpw (mode='')

iter:  50 20:22:14  -253.325304c -7.15  -5.14c
iter:  51 20:24:37  -253.325304c -7.25  -5.17c
iter:  52 20:27:04  -253.325304c -7.28  -5.21c
iter:  53 20:29:25  -253.325305c -7.31  -5.30c
iter:  54 20:31:47  -253.325305c -7.33  -5.40c
Writing to output.gpw (mode='')

iter:  55 20:34:13  -253.325305c -7.45c -5.49c

Converged after 55 iterations.

Dipole moment: (-7.168457, -3.833310, -0.384426) |e|*Ang

Energy contributions relative to reference atoms: (reference = -10970.764591)

Kinetic:       +120.871275
Potential:     -107.859851
External:        +0.000000
XC:            -266.568936
Entropy (-ST):   -0.167266
Local:           +0.315839
--------------------------
Free energy:   -253.408938
Extrapolated:  -253.325305

Dipole-layer corrected work functions: 3.425547, 4.164545 eV

Showing only first 2 kpts
 Kpt  Band  Eigenvalues  Occupancy
  0    24     -4.02990    1.98192
  0    25     -3.86967    1.63288
  0    26     -3.70256    0.27181
  0    27     -3.56619    0.02036

  1    24     -3.85540    1.53959
  1    25     -3.80869    1.13558
  1    26     -3.75325    0.60481
  1    27     -3.65615    0.11706


Fermi level: -3.79505

Gap: 0.019 eV
Transition (v -> c):
  (s=0, k=2, n=25, [0.12, 0.12, 0.00]) -> (s=0, k=4, n=26, [0.38, -0.38, 0.00])

Forces in eV/Ang:
  0 Li    0.01220    0.00046   -0.27342
  1 Li    0.00525    0.00020   -0.26322
  2 Li   -0.01732    0.00014   -0.27635
  3 Li    0.00316    0.01960   -0.27602
  4 Li   -0.00067    0.00761   -0.28826
  5 Li   -0.00520    0.01665   -0.27824
  6 Li    0.00223   -0.02090   -0.27661
  7 Li    0.00020   -0.00792   -0.28524
  8 Li   -0.00580   -0.01686   -0.28128
  9 Li   -0.00179    0.01359    0.33187
 10 Li    0.01260   -0.00006    0.26298
 11 Li   -0.01110   -0.00133    0.25305
 12 Li   -0.00089   -0.01393    0.32707
 13 Li    0.01343   -0.00018    0.26308
 14 Li   -0.01524    0.00132    0.25110
 15 Li    0.00843    0.00079    0.22805
 16 Li   -0.02146    0.00082    0.24758
 17 Li    0.01934   -0.00047    0.25377
 18 Li    0.05790    0.00004   -0.09664
 19 Li    0.01449    0.00078    0.02965
 20 Li   -0.05714    0.00513   -0.09090
 21 Li   -0.01827   -0.01605    0.04011
 22 Li   -0.00285   -0.00055    0.03915
 23 Li    0.02576   -0.01796    0.04403
 24 Li   -0.01844    0.02096    0.04477
 25 Li   -0.00138    0.00168    0.04372
 26 Li    0.02266    0.01345    0.03956
 27 Li   -0.01883    0.11807    0.13272
 28 Li   -0.05780    0.04257    0.05878
 29 Li   -0.03285   -0.02630   -0.00408
 30 Li    0.07540   -0.15388    0.15017
 31 Li   -0.08074   -0.05210    0.06320
 32 Li   -0.00929    0.02485    0.00627
 33 Li   -0.00226    0.00254   -0.02924
 34 Li   -0.00678    0.00014   -0.01915
 35 Li    0.00618   -0.00006   -0.01630
 36 B    -0.56243   -0.36606    0.25981
 37 H     0.07854    0.37107    2.60187
 38 H    -0.29176    0.61290    1.20496
 39 H    -0.25950   -0.44379    1.67193
 40 N    -0.90945   -0.65388   -3.18665
 41 N     2.10302    0.50687   -2.91506

System changes: positions 

Initializing position-dependent things.

Density initialized from wave functions
       .-----------------------.  
      /|                       |  
     / |                       |  
    /  |                       |  
   /   |                       |  
  /    |                       |  
 *     |                       |  
 |     |                       |  
 |     |                       |  
 |     |                       |  
 |     |                       |  
 |     |                       |  
 |     |                       |  
 |     |               Li      |  
 |   H |                H      |  
 |     |     Li      Li  HB  Li|  
 |     |                       |  
 | LiN |  LLi     LLi     Ni   |  
 |     |                       |  
 |     |LLi     Li      LLi    |  
 |   Li|     Li      Li        |  
 |    Li  Li  Li  Li  Li  Li   |  
 | Li  |   Li      Li          |  
 |     |Li      Li      Li     |  
 Li    | Li      Li            |  
 |    Li      Li      Li       |  
 |     |                       |  
 |     |                       |  
 |     |                       |  
 |     |                       |  
 |     |                       |  
 |     |                       |  
 |     .-----------------------.  
 |    /                       /   
 |   /                       /    
 |  /                       /     
 | /                       /      
 |/                       /       
 *-----------------------*        

Positions:
   0 Li     1.617037    1.617037   10.000000    ( 0.0000,  0.0000,  0.0000)
   1 Li     4.851111    1.617037   10.000000    ( 0.0000,  0.0000,  0.0000)
   2 Li     8.085185    1.617037   10.000000    ( 0.0000,  0.0000,  0.0000)
   3 Li     1.617037    4.851111   10.000000    ( 0.0000,  0.0000,  0.0000)
   4 Li     4.851111    4.851111   10.000000    ( 0.0000,  0.0000,  0.0000)
   5 Li     8.085185    4.851111   10.000000    ( 0.0000,  0.0000,  0.0000)
   6 Li     1.617037    8.085185   10.000000    ( 0.0000,  0.0000,  0.0000)
   7 Li     4.851111    8.085185   10.000000    ( 0.0000,  0.0000,  0.0000)
   8 Li     8.085185    8.085185   10.000000    ( 0.0000,  0.0000,  0.0000)
   9 Li     0.000000    0.000000   11.617037    ( 0.0000,  0.0000,  0.0000)
  10 Li     3.234074    0.000000   11.617037    ( 0.0000,  0.0000,  0.0000)
  11 Li     6.468148    0.000000   11.617037    ( 0.0000,  0.0000,  0.0000)
  12 Li     0.000000    3.234074   11.617037    ( 0.0000,  0.0000,  0.0000)
  13 Li     3.234074    3.234074   11.617037    ( 0.0000,  0.0000,  0.0000)
  14 Li     6.468148    3.234074   11.617037    ( 0.0000,  0.0000,  0.0000)
  15 Li     0.000000    6.468148   11.617037    ( 0.0000,  0.0000,  0.0000)
  16 Li     3.234074    6.468148   11.617037    ( 0.0000,  0.0000,  0.0000)
  17 Li     6.468148    6.468148   11.617037    ( 0.0000,  0.0000,  0.0000)
  18 Li     1.618538    1.617035   13.467206    ( 0.0000,  0.0000,  0.0000)
  19 Li     4.851486    1.617057   13.470507    ( 0.0000,  0.0000,  0.0000)
  20 Li     8.083706    1.617168   13.467367    ( 0.0000,  0.0000,  0.0000)
  21 Li     1.616563    4.850684   13.470788    ( 0.0000,  0.0000,  0.0000)
  22 Li     4.851029    4.851104   13.470739    ( 0.0000,  0.0000,  0.0000)
  23 Li     8.085847    4.850646   13.470888    ( 0.0000,  0.0000,  0.0000)
  24 Li     1.616556    8.085733   13.470917    ( 0.0000,  0.0000,  0.0000)
  25 Li     4.851076    8.085222   13.470863    ( 0.0000,  0.0000,  0.0000)
  26 Li     8.085766    8.085540   13.470764    ( 0.0000,  0.0000,  0.0000)
  27 Li    -0.000597    0.003144   15.449382    ( 0.0000,  0.0000,  0.0000)
  28 Li     3.232620    0.001059   15.447370    ( 0.0000,  0.0000,  0.0000)
  29 Li     6.467275   -0.000671   15.445817    ( 0.0000,  0.0000,  0.0000)
  30 Li     0.001828    3.230072   15.449732    ( 0.0000,  0.0000,  0.0000)
  31 Li     3.232093    3.232802   15.447451    ( 0.0000,  0.0000,  0.0000)
  32 Li     6.467896    3.234709   15.446101    ( 0.0000,  0.0000,  0.0000)
  33 Li    -0.000050    6.468218   15.445190    ( 0.0000,  0.0000,  0.0000)
  34 Li     3.233890    6.468154   15.445443    ( 0.0000,  0.0000,  0.0000)
  35 Li     6.468316    6.468140   15.445519    ( 0.0000,  0.0000,  0.0000)
  36 B     -0.018078    1.604999   18.459413    ( 0.0000,  0.0000,  0.0000)
  37 H      1.038533    2.221638   18.517217    ( 0.0000,  0.0000,  0.0000)
  38 H     -1.038136    2.231156   18.478845    ( 0.0000,  0.0000,  0.0000)
  39 H     -0.007154    0.416427   18.490894    ( 0.0000,  0.0000,  0.0000)
  40 N     -0.034609    1.598204   16.852135    ( 0.0000,  0.0000,  0.0000)
  41 N      1.162754    1.631002   16.868211    ( 0.0000,  0.0000,  0.0000)

Unit cell:
           periodic     x           y           z      points  spacing
  1. axis:    yes    9.702222    0.000000    0.000000    60     0.1617
  2. axis:    yes    0.000000    9.702222    0.000000    60     0.1617
  3. axis:    no     0.000000    0.000000   26.351111   164     0.1607

  Lengths:   9.702222   9.702222  26.351111
  Angles:   90.000000  90.000000  90.000000

Effective grid spacing dv^(1/3) = 0.1614

     iter     time        total  log10-change:
                         energy  eigst   dens
iter:   1 20:37:14  -253.833051  -0.73
iter:   2 20:39:43  -253.882212  -0.94  -1.47
iter:   3 20:42:15  -253.718897  -1.02  -1.37
iter:   4 20:44:39  -253.712393  -1.48  -1.88
Writing to output.gpw (mode='')

iter:   5 20:47:22  -253.715470c -1.51  -2.00
iter:   6 20:49:56  -253.701963c -1.35  -1.91
iter:   7 20:52:26  -253.702563c -1.87  -2.31
iter:   8 20:54:56  -253.702283c -2.07  -2.49
iter:   9 20:57:24  -253.702080c -2.54  -2.63
Writing to output.gpw (mode='')

iter:  10 21:00:09  -253.702164c -2.68  -2.72
iter:  11 21:02:40  -253.702655c -2.74  -2.81
iter:  12 21:05:02  -253.702496c -3.10  -2.89
iter:  13 21:07:30  -253.702678c -3.02  -2.98
iter:  14 21:10:02  -253.702725c -3.19  -3.00
Writing to output.gpw (mode='')

iter:  15 21:12:40  -253.702776c -3.50  -3.02
iter:  16 21:15:10  -253.702686c -3.82  -3.08
iter:  17 21:17:42  -253.702782c -3.81  -3.25
iter:  18 21:20:06  -253.702842c -4.08  -3.26
iter:  19 21:22:35  -253.702876c -3.92  -3.34
Writing to output.gpw (mode='')

iter:  20 21:25:13  -253.702876c -4.13  -3.53
iter:  21 21:27:36  -253.702872c -4.57  -3.76
iter:  22 21:30:02  -253.702866c -4.26  -3.83
iter:  23 21:32:42  -253.702867c -4.47  -3.88
iter:  24 21:35:16  -253.702867c -4.72  -4.02c
Writing to output.gpw (mode='')

iter:  25 21:38:03  -253.702874c -4.58  -4.12c
iter:  26 21:40:30  -253.702876c -5.07  -4.06c
iter:  27 21:42:59  -253.702877c -4.94  -4.19c
iter:  28 21:45:28  -253.702876c -5.18  -4.20c
iter:  29 21:48:02  -253.702877c -5.26  -4.13c
Writing to output.gpw (mode='')

iter:  30 21:50:38  -253.702878c -5.54  -4.14c
iter:  31 21:53:06  -253.702880c -5.60  -4.15c
iter:  32 21:55:32  -253.702875c -5.43  -4.21c
iter:  33 21:58:02  -253.702875c -5.57  -4.15c
iter:  34 22:00:22  -253.702875c -5.81  -4.07c
Writing to output.gpw (mode='')

iter:  35 22:03:18  -253.702883c -5.93  -4.12c
iter:  36 22:05:57  -253.702881c -5.95  -4.39c
iter:  37 22:08:36  -253.702881c -5.99  -4.31c
iter:  38 22:10:58  -253.702884c -6.22  -4.31c
iter:  39 22:13:23  -253.702888c -6.10  -4.44c
Writing to output.gpw (mode='')

iter:  40 22:15:59  -253.702890c -6.26  -4.45c
iter:  41 22:18:25  -253.702890c -6.36  -4.54c
iter:  42 22:20:57  -253.702890c -6.66  -4.57c
iter:  43 22:23:34  -253.702887c -6.42  -4.56c
iter:  44 22:26:03  -253.702889c -6.51  -4.61c
Writing to output.gpw (mode='')

iter:  45 22:28:39  -253.702886c -6.81  -4.55c
iter:  46 22:31:05  -253.702886c -6.84  -4.69c
iter:  47 22:33:34  -253.702887c -6.73  -4.73c
iter:  48 22:35:57  -253.702887c -6.67  -4.88c
iter:  49 22:38:26  -253.702888c -7.04  -4.91c
Writing to output.gpw (mode='')

iter:  50 22:41:00  -253.702889c -6.90  -5.14c
iter:  51 22:43:42  -253.702889c -7.14  -5.15c
iter:  52 22:46:10  -253.702889c -7.22  -5.34c
iter:  53 22:48:49  -253.702888c -7.33  -5.42c
iter:  54 22:51:19  -253.702888c -7.47c -5.52c

Converged after 54 iterations.

Dipole moment: (-6.895625, -3.829997, -0.401706) |e|*Ang

Energy contributions relative to reference atoms: (reference = -10970.764591)

Kinetic:       +117.727991
Potential:     -105.666791
External:        +0.000000
XC:            -265.995100
Entropy (-ST):   -0.168409
Local:           +0.315216
--------------------------
Free energy:   -253.787093
Extrapolated:  -253.702888

Dipole-layer corrected work functions: 3.426296, 4.198512 eV

Showing only first 2 kpts
 Kpt  Band  Eigenvalues  Occupancy
  0    24     -4.04575    1.98137
  0    25     -3.88134    1.59759
  0    26     -3.72155    0.27957
  0    27     -3.58899    0.02267

  1    24     -3.87712    1.56978
  1    25     -3.82673    1.14227
  1    26     -3.76941    0.59470
  1    27     -3.67002    0.10959


Fermi level: -3.81240

Gap: 0.020 eV
Transition (v -> c):
  (s=0, k=2, n=25, [0.12, 0.12, 0.00]) -> (s=0, k=4, n=26, [0.38, -0.38, 0.00])
Writing to output.gpw (mode='')


Forces in eV/Ang:
  0 Li    0.01118    0.00037   -0.27349
  1 Li    0.00593    0.00019   -0.26267
  2 Li   -0.01684    0.00018   -0.27695
  3 Li    0.00288    0.02012   -0.27678
  4 Li   -0.00084    0.00854   -0.28824
  5 Li   -0.00559    0.01700   -0.27894
  6 Li    0.00202   -0.02153   -0.27733
  7 Li    0.00003   -0.00876   -0.28570
  8 Li   -0.00616   -0.01682   -0.28198
  9 Li   -0.00176    0.01349    0.33215
 10 Li    0.01186    0.00003    0.26400
 11 Li   -0.01123   -0.00136    0.25382
 12 Li   -0.00061   -0.01385    0.32782
 13 Li    0.01244   -0.00027    0.26436
 14 Li   -0.01522    0.00159    0.25137
 15 Li    0.00912    0.00084    0.22824
 16 Li   -0.02052    0.00132    0.24799
 17 Li    0.01922   -0.00101    0.25306
 18 Li    0.05705    0.00021   -0.08886
 19 Li    0.01495    0.00092    0.02723
 20 Li   -0.05734    0.00532   -0.08881
 21 Li   -0.01803   -0.01475    0.03810
 22 Li   -0.00253   -0.00224    0.04006
 23 Li    0.02625   -0.01773    0.04193
 24 Li   -0.01800    0.02008    0.04152
 25 Li   -0.00150    0.00287    0.04366
 26 Li    0.02319    0.01229    0.03774
 27 Li   -0.00573    0.10274    0.11975
 28 Li   -0.06551    0.04946    0.06708
 29 Li   -0.03018   -0.02595   -0.00174
 30 Li    0.08416   -0.14681    0.14646
 31 Li   -0.09437   -0.06241    0.07502
 32 Li   -0.00883    0.02475    0.00719
 33 Li   -0.00277    0.00169   -0.02964
 34 Li   -0.00551   -0.00050   -0.01897
 35 Li    0.00479    0.00039   -0.01634
 36 B    -0.36561   -0.15341   -0.13035
 37 H    -0.23811    0.15669    2.21546
 38 H    -0.21697    0.46083    1.03358
 39 H    -0.21983   -0.33542    1.46073
 40 N    -0.01706   -0.48091   -2.18470
 41 N     1.16946    0.42356   -2.73792

System changes: positions 

Initializing position-dependent things.

Density initialized from wave functions
       .-----------------------.  
      /|                       |  
     / |                       |  
    /  |                       |  
   /   |                       |  
  /    |                       |  
 *     |                       |  
 |     |                       |  
 |     |                       |  
 |     |                       |  
 |     |                       |  
 |     |                       |  
 |     |                       |  
 |     |               Li      |  
 |   H |                H      |  
 |     |     Li      Li  HB  Li|  
 |     |                       |  
 | LiN |  LLi     LLi     Ni   |  
 |     |                       |  
 |     |LLi     Li      LLi    |  
 |   Li|     Li      Li        |  
 |    Li  Li  Li  Li  Li  Li   |  
 | Li  |   Li      Li          |  
 |     |Li      Li      Li     |  
 Li    | Li      Li            |  
 |    Li      Li      Li       |  
 |     |                       |  
 |     |                       |  
 |     |                       |  
 |     |                       |  
 |     |                       |  
 |     |                       |  
 |     .-----------------------.  
 |    /                       /   
 |   /                       /    
 |  /                       /     
 | /                       /      
 |/                       /       
 *-----------------------*        

Positions:
   0 Li     1.617037    1.617037   10.000000    ( 0.0000,  0.0000,  0.0000)
   1 Li     4.851111    1.617037   10.000000    ( 0.0000,  0.0000,  0.0000)
   2 Li     8.085185    1.617037   10.000000    ( 0.0000,  0.0000,  0.0000)
   3 Li     1.617037    4.851111   10.000000    ( 0.0000,  0.0000,  0.0000)
   4 Li     4.851111    4.851111   10.000000    ( 0.0000,  0.0000,  0.0000)
   5 Li     8.085185    4.851111   10.000000    ( 0.0000,  0.0000,  0.0000)
   6 Li     1.617037    8.085185   10.000000    ( 0.0000,  0.0000,  0.0000)
   7 Li     4.851111    8.085185   10.000000    ( 0.0000,  0.0000,  0.0000)
   8 Li     8.085185    8.085185   10.000000    ( 0.0000,  0.0000,  0.0000)
   9 Li     0.000000    0.000000   11.617037    ( 0.0000,  0.0000,  0.0000)
  10 Li     3.234074    0.000000   11.617037    ( 0.0000,  0.0000,  0.0000)
  11 Li     6.468148    0.000000   11.617037    ( 0.0000,  0.0000,  0.0000)
  12 Li     0.000000    3.234074   11.617037    ( 0.0000,  0.0000,  0.0000)
  13 Li     3.234074    3.234074   11.617037    ( 0.0000,  0.0000,  0.0000)
  14 Li     6.468148    3.234074   11.617037    ( 0.0000,  0.0000,  0.0000)
  15 Li     0.000000    6.468148   11.617037    ( 0.0000,  0.0000,  0.0000)
  16 Li     3.234074    6.468148   11.617037    ( 0.0000,  0.0000,  0.0000)
  17 Li     6.468148    6.468148   11.617037    ( 0.0000,  0.0000,  0.0000)
  18 Li     1.619339    1.617038   13.465964    ( 0.0000,  0.0000,  0.0000)
  19 Li     4.851698    1.617071   13.470887    ( 0.0000,  0.0000,  0.0000)
  20 Li     8.082900    1.617243   13.466113    ( 0.0000,  0.0000,  0.0000)
  21 Li     1.616310    4.850481   13.471315    ( 0.0000,  0.0000,  0.0000)
  22 Li     4.850994    4.851072   13.471303    ( 0.0000,  0.0000,  0.0000)
  23 Li     8.086216    4.850398   13.471472    ( 0.0000,  0.0000,  0.0000)
  24 Li     1.616304    8.086012   13.471492    ( 0.0000,  0.0000,  0.0000)
  25 Li     4.851055    8.085263   13.471476    ( 0.0000,  0.0000,  0.0000)
  26 Li     8.086091    8.085710   13.471290    ( 0.0000,  0.0000,  0.0000)
  27 Li    -0.000648    0.004628   15.451137    ( 0.0000,  0.0000,  0.0000)
  28 Li     3.231681    0.001769   15.448343    ( 0.0000,  0.0000,  0.0000)
  29 Li     6.466854   -0.001041   15.445797    ( 0.0000,  0.0000,  0.0000)
  30 Li     0.003050    3.227953   15.451880    ( 0.0000,  0.0000,  0.0000)
  31 Li     3.230738    3.231904   15.448539    ( 0.0000,  0.0000,  0.0000)
  32 Li     6.467774    3.235062   15.446204    ( 0.0000,  0.0000,  0.0000)
  33 Li    -0.000092    6.468242   15.444772    ( 0.0000,  0.0000,  0.0000)
  34 Li     3.233817    6.468147   15.445176    ( 0.0000,  0.0000,  0.0000)
  35 Li     6.468382    6.468146   15.445289    ( 0.0000,  0.0000,  0.0000)
  36 B     -0.022650    1.603071   18.456276    ( 0.0000,  0.0000,  0.0000)
  37 H      1.034737    2.223499   18.547736    ( 0.0000,  0.0000,  0.0000)
  38 H     -1.041135    2.237534   18.493201    ( 0.0000,  0.0000,  0.0000)
  39 H     -0.010173    0.411743   18.511252    ( 0.0000,  0.0000,  0.0000)
  40 N     -0.029687    1.591703   16.822941    ( 0.0000,  0.0000,  0.0000)
  41 N      1.173850    1.636883   16.830233    ( 0.0000,  0.0000,  0.0000)

Unit cell:
           periodic     x           y           z      points  spacing
  1. axis:    yes    9.702222    0.000000    0.000000    60     0.1617
  2. axis:    yes    0.000000    9.702222    0.000000    60     0.1617
  3. axis:    no     0.000000    0.000000   26.351111   164     0.1607

  Lengths:   9.702222   9.702222  26.351111
  Angles:   90.000000  90.000000  90.000000

Effective grid spacing dv^(1/3) = 0.1614

     iter     time        total  log10-change:
                         energy  eigst   dens
iter:   1 22:54:28  -254.022183  -0.89
iter:   2 22:56:53  -254.022396  -1.20  -1.83
iter:   3 22:59:19  -254.003705c -1.98  -1.77
iter:   4 23:01:51  -253.998586c -2.28  -2.08
Writing to output.gpw (mode='')

iter:   5 23:04:26  -253.993524c -1.93  -2.21
iter:   6 23:06:57  -253.991528c -1.81  -2.25
iter:   7 23:09:30  -253.990488c -2.66  -2.40
iter:   8 23:12:02  -253.990376c -2.87  -2.76
iter:   9 23:14:27  -253.990172c -3.27  -2.81
Writing to output.gpw (mode='')

iter:  10 23:17:01  -253.990286c -3.11  -2.97
iter:  11 23:19:46  -253.990329c -3.77  -3.10
iter:  12 23:22:14  -253.990368c -4.01  -3.14
iter:  13 23:24:35  -253.990269c -3.98  -3.26
iter:  14 23:26:58  -253.990339c -4.22  -3.26
Writing to output.gpw (mode='')

iter:  15 23:29:31  -253.990307c -4.47  -3.51
iter:  16 23:32:04  -253.990365c -4.44  -3.51
iter:  17 23:34:28  -253.990343c -4.84  -3.69
iter:  18 23:36:51  -253.990361c -4.93  -3.79
iter:  19 23:39:13  -253.990362c -4.92  -3.79
Writing to output.gpw (mode='')

iter:  20 23:41:38  -253.990360c -5.26  -4.07c
iter:  21 23:44:02  -253.990361c -5.30  -4.14c
iter:  22 23:46:29  -253.990358c -5.53  -4.19c
iter:  23 23:48:55  -253.990356c -5.69  -4.28c
iter:  24 23:51:20  -253.990357c -5.62  -4.48c
Writing to output.gpw (mode='')

iter:  25 23:53:54  -253.990358c -5.68  -4.51c
iter:  26 23:56:20  -253.990358c -6.29  -4.54c
iter:  27 23:58:51  -253.990357c -6.17  -4.59c
iter:  28 00:01:23  -253.990357c -6.16  -4.64c
iter:  29 00:03:52  -253.990357c -6.36  -4.75c
Writing to output.gpw (mode='')

iter:  30 00:06:26  -253.990358c -6.52  -4.81c
iter:  31 00:08:52  -253.990357c -6.57  -4.87c
iter:  32 00:11:18  -253.990356c -6.60  -4.96c
iter:  33 00:13:45  -253.990358c -6.60  -5.05c
iter:  34 00:16:07  -253.990358c -6.79  -5.22c
Writing to output.gpw (mode='')

iter:  35 00:18:45  -253.990358c -6.90  -5.23c
iter:  36 00:21:11  -253.990358c -6.96  -5.24c
iter:  37 00:23:40  -253.990357c -7.08  -5.17c
iter:  38 00:26:03  -253.990357c -7.30  -5.21c
iter:  39 00:28:34  -253.990357c -7.20  -5.18c
Writing to output.gpw (mode='')

iter:  40 00:31:03  -253.990357c -7.50c -5.20c

Converged after 40 iterations.

Dipole moment: (-7.031767, -3.828343, -0.422122) |e|*Ang

Energy contributions relative to reference atoms: (reference = -10970.764591)

Kinetic:       +115.749754
Potential:     -104.303412
External:        +0.000000
XC:            -265.667757
Entropy (-ST):   -0.168103
Local:           +0.315110
--------------------------
Free energy:   -254.074409
Extrapolated:  -253.990357

Dipole-layer corrected work functions: 3.427077, 4.238539 eV

Showing only first 2 kpts
 Kpt  Band  Eigenvalues  Occupancy
  0    24     -4.06490    1.98090
  0    25     -3.89774    1.57119
  0    26     -3.74206    0.28007
  0    27     -3.61364    0.02466

  1    24     -3.90178    1.59778
  1    25     -3.84847    1.15537
  1    26     -3.78873    0.58573
  1    27     -3.68763    0.10396


Fermi level: -3.83281

Gap: 0.021 eV
Transition (v -> c):
  (s=0, k=2, n=25, [0.12, 0.12, 0.00]) -> (s=0, k=4, n=26, [0.38, -0.38, 0.00])

Forces in eV/Ang:
  0 Li    0.01032    0.00027   -0.27314
  1 Li    0.00640    0.00018   -0.26213
  2 Li   -0.01650    0.00026   -0.27737
  3 Li    0.00284    0.02059   -0.27753
  4 Li   -0.00094    0.00951   -0.28827
  5 Li   -0.00597    0.01735   -0.27972
  6 Li    0.00210   -0.02204   -0.27797
  7 Li   -0.00014   -0.00963   -0.28640
  8 Li   -0.00651   -0.01684   -0.28261
  9 Li   -0.00173    0.01325    0.33199
 10 Li    0.01127    0.00003    0.26461
 11 Li   -0.01114   -0.00153    0.25426
 12 Li   -0.00032   -0.01363    0.32835
 13 Li    0.01148   -0.00041    0.26535
 14 Li   -0.01480    0.00210    0.25142
 15 Li    0.00981    0.00090    0.22836
 16 Li   -0.01977    0.00188    0.24823
 17 Li    0.01878   -0.00155    0.25290
 18 Li    0.05570    0.00017   -0.07792
 19 Li    0.01579    0.00102    0.02423
 20 Li   -0.05742    0.00527   -0.08607
 21 Li   -0.01779   -0.01356    0.03638
 22 Li   -0.00278   -0.00439    0.04110
 23 Li    0.02665   -0.01740    0.04007
 24 Li   -0.01764    0.01923    0.03870
 25 Li   -0.00173    0.00440    0.04366
 26 Li    0.02357    0.01112    0.03576
 27 Li    0.00561    0.08564    0.09947
 28 Li   -0.07422    0.05685    0.07270
 29 Li   -0.02769   -0.02455    0.00067
 30 Li    0.08651   -0.13642    0.13216
 31 Li   -0.10735   -0.07288    0.08380
 32 Li   -0.00897    0.02373    0.00867
 33 Li   -0.00290    0.00060   -0.02942
 34 Li   -0.00443   -0.00116   -0.01857
 35 Li    0.00356    0.00075   -0.01605
 36 B    -0.27835   -0.01883   -0.28723
 37 H    -0.40603    0.00769    1.90058
 38 H    -0.17536    0.33385    0.89357
 39 H    -0.19747   -0.22045    1.26865
 40 N     0.44019   -0.33831   -1.46031
 41 N     0.71377    0.29563   -2.66140

System changes: positions 

Initializing position-dependent things.

Density initialized from wave functions
       .-----------------------.  
      /|                       |  
     / |                       |  
    /  |                       |  
   /   |                       |  
  /    |                       |  
 *     |                       |  
 |     |                       |  
 |     |                       |  
 |     |                       |  
 |     |                       |  
 |     |                       |  
 |     |                       |  
 |     |               Li      |  
 |   H |                H      |  
 |     |     Li      Li  HB  Li|  
 |     |                       |  
 | LiN |  LLi     LLi     Ni   |  
 |     |                       |  
 |     |LLi     Li      LLi    |  
 |   Li|     Li      Li        |  
 |    Li  Li  Li  Li  Li  Li   |  
 | Li  |   Li      Li          |  
 |     |Li      Li      Li     |  
 Li    | Li      Li            |  
 |    Li      Li      Li       |  
 |     |                       |  
 |     |                       |  
 |     |                       |  
 |     |                       |  
 |     |                       |  
 |     |                       |  
 |     .-----------------------.  
 |    /                       /   
 |   /                       /    
 |  /                       /     
 | /                       /      
 |/                       /       
 *-----------------------*        

Positions:
   0 Li     1.617037    1.617037   10.000000    ( 0.0000,  0.0000,  0.0000)
   1 Li     4.851111    1.617037   10.000000    ( 0.0000,  0.0000,  0.0000)
   2 Li     8.085185    1.617037   10.000000    ( 0.0000,  0.0000,  0.0000)
   3 Li     1.617037    4.851111   10.000000    ( 0.0000,  0.0000,  0.0000)
   4 Li     4.851111    4.851111   10.000000    ( 0.0000,  0.0000,  0.0000)
   5 Li     8.085185    4.851111   10.000000    ( 0.0000,  0.0000,  0.0000)
   6 Li     1.617037    8.085185   10.000000    ( 0.0000,  0.0000,  0.0000)
   7 Li     4.851111    8.085185   10.000000    ( 0.0000,  0.0000,  0.0000)
   8 Li     8.085185    8.085185   10.000000    ( 0.0000,  0.0000,  0.0000)
   9 Li     0.000000    0.000000   11.617037    ( 0.0000,  0.0000,  0.0000)
  10 Li     3.234074    0.000000   11.617037    ( 0.0000,  0.0000,  0.0000)
  11 Li     6.468148    0.000000   11.617037    ( 0.0000,  0.0000,  0.0000)
  12 Li     0.000000    3.234074   11.617037    ( 0.0000,  0.0000,  0.0000)
  13 Li     3.234074    3.234074   11.617037    ( 0.0000,  0.0000,  0.0000)
  14 Li     6.468148    3.234074   11.617037    ( 0.0000,  0.0000,  0.0000)
  15 Li     0.000000    6.468148   11.617037    ( 0.0000,  0.0000,  0.0000)
  16 Li     3.234074    6.468148   11.617037    ( 0.0000,  0.0000,  0.0000)
  17 Li     6.468148    6.468148   11.617037    ( 0.0000,  0.0000,  0.0000)
  18 Li     1.620142    1.617041   13.464826    ( 0.0000,  0.0000,  0.0000)
  19 Li     4.851925    1.617085   13.471240    ( 0.0000,  0.0000,  0.0000)
  20 Li     8.082074    1.617319   13.464868    ( 0.0000,  0.0000,  0.0000)
  21 Li     1.616054    4.850285   13.471840    ( 0.0000,  0.0000,  0.0000)
  22 Li     4.850955    4.851012   13.471892    ( 0.0000,  0.0000,  0.0000)
  23 Li     8.086598    4.850148   13.472051    ( 0.0000,  0.0000,  0.0000)
  24 Li     1.616050    8.086290   13.472053    ( 0.0000,  0.0000,  0.0000)
  25 Li     4.851030    8.085324   13.472104    ( 0.0000,  0.0000,  0.0000)
  26 Li     8.086429    8.085872   13.471808    ( 0.0000,  0.0000,  0.0000)
  27 Li    -0.000584    0.005905   15.452622    ( 0.0000,  0.0000,  0.0000)
  28 Li     3.230623    0.002577   15.449383    ( 0.0000,  0.0000,  0.0000)
  29 Li     6.466451   -0.001397   15.445803    ( 0.0000,  0.0000,  0.0000)
  30 Li     0.004295    3.225957   15.453825    ( 0.0000,  0.0000,  0.0000)
  31 Li     3.229211    3.230871   15.449734    ( 0.0000,  0.0000,  0.0000)
  32 Li     6.467645    3.235406   15.446327    ( 0.0000,  0.0000,  0.0000)
  33 Li    -0.000134    6.468253   15.444348    ( 0.0000,  0.0000,  0.0000)
  34 Li     3.233752    6.468132   15.444907    ( 0.0000,  0.0000,  0.0000)
  35 Li     6.468435    6.468156   15.445058    ( 0.0000,  0.0000,  0.0000)
  36 B     -0.026802    1.602500   18.452364    ( 0.0000,  0.0000,  0.0000)
  37 H      1.029279    2.223893   18.575630    ( 0.0000,  0.0000,  0.0000)
  38 H     -1.043766    2.242596   18.506331    ( 0.0000,  0.0000,  0.0000)
  39 H     -0.013060    0.408355   18.529869    ( 0.0000,  0.0000,  0.0000)
  40 N     -0.023282    1.586584   16.800566    ( 0.0000,  0.0000,  0.0000)
  41 N      1.184045    1.641328   16.791810    ( 0.0000,  0.0000,  0.0000)

Unit cell:
           periodic     x           y           z      points  spacing
  1. axis:    yes    9.702222    0.000000    0.000000    60     0.1617
  2. axis:    yes    0.000000    9.702222    0.000000    60     0.1617
  3. axis:    no     0.000000    0.000000   26.351111   164     0.1607

  Lengths:   9.702222   9.702222  26.351111
  Angles:   90.000000  90.000000  90.000000

Effective grid spacing dv^(1/3) = 0.1614

     iter     time        total  log10-change:
                         energy  eigst   dens
iter:   1 00:34:06  -254.239002  -0.97
iter:   2 00:36:35  -254.235021  -1.70  -2.04
iter:   3 00:38:58  -254.231984c -2.07  -2.07
iter:   4 00:41:25  -254.229981c -2.11  -2.21
Writing to output.gpw (mode='')

iter:   5 00:43:59  -254.224972c -2.10  -2.26
iter:   6 00:46:23  -254.224720c -2.11  -2.48
iter:   7 00:48:57  -254.224189c -2.85  -2.56
iter:   8 00:51:29  -254.224086c -3.06  -2.84
iter:   9 00:53:52  -254.224212c -3.56  -2.88
Writing to output.gpw (mode='')

iter:  10 00:56:26  -254.224051c -3.42  -2.96
iter:  11 00:58:57  -254.224150c -3.46  -3.11
iter:  12 01:01:21  -254.224132c -4.06  -3.19
iter:  13 01:03:51  -254.224113c -4.10  -3.23
iter:  14 01:06:13  -254.224097c -4.37  -3.52
Writing to output.gpw (mode='')

iter:  15 01:08:57  -254.224123c -4.52  -3.68
iter:  16 01:11:23  -254.224126c -4.89  -3.62
iter:  17 01:13:52  -254.224131c -4.84  -3.62
iter:  18 01:16:25  -254.224126c -4.79  -3.76
iter:  19 01:18:51  -254.224137c -5.04  -3.71
Writing to output.gpw (mode='')

iter:  20 01:21:32  -254.224132c -5.13  -3.97
iter:  21 01:23:56  -254.224132c -5.28  -4.00
iter:  22 01:26:16  -254.224136c -5.54  -4.05c
iter:  23 01:28:46  -254.224136c -5.78  -4.16c
iter:  24 01:31:11  -254.224145c -5.63  -4.23c
Writing to output.gpw (mode='')

iter:  25 01:33:40  -254.224140c -5.97  -4.37c
iter:  26 01:36:08  -254.224138c -5.75  -4.46c
iter:  27 01:38:43  -254.224138c -6.15  -4.54c
iter:  28 01:41:14  -254.224139c -6.09  -4.60c
iter:  29 01:43:40  -254.224136c -6.19  -4.73c
Writing to output.gpw (mode='')

iter:  30 01:46:09  -254.224137c -6.68  -4.84c
iter:  31 01:48:34  -254.224138c -6.62  -4.86c
iter:  32 01:51:03  -254.224136c -6.55  -4.99c
iter:  33 01:53:25  -254.224138c -6.64  -5.09c
iter:  34 01:55:51  -254.224138c -6.84  -5.12c
Writing to output.gpw (mode='')

iter:  35 01:58:34  -254.224139c -6.83  -5.10c
iter:  36 02:01:09  -254.224138c -6.96  -5.03c
iter:  37 02:03:38  -254.224139c -7.17  -5.00c
iter:  38 02:06:14  -254.224138c -7.25  -4.98c
iter:  39 02:08:41  -254.224137c -7.15  -4.88c
Writing to output.gpw (mode='')

iter:  40 02:11:19  -254.224138c -7.10  -5.10c
iter:  41 02:13:41  -254.224137c -7.31  -5.20c
iter:  42 02:16:02  -254.224138c -7.26  -5.21c
iter:  43 02:18:27  -254.224137c -7.35  -5.12c
iter:  44 02:20:44  -254.224138c -7.73c -4.91c

Converged after 44 iterations.

Dipole moment: (-7.355876, -3.822071, -0.445434) |e|*Ang

Energy contributions relative to reference atoms: (reference = -10970.764591)

Kinetic:       +114.355565
Potential:     -103.338803
External:        +0.000000
XC:            -265.472045
Entropy (-ST):   -0.167085
Local:           +0.314689
--------------------------
Free energy:   -254.307680
Extrapolated:  -254.224138

Dipole-layer corrected work functions: 3.427873, 4.284149 eV

Showing only first 2 kpts
 Kpt  Band  Eigenvalues  Occupancy
  0    24     -4.08702    1.98049
  0    25     -3.91796    1.55081
  0    26     -3.76556    0.28151
  0    27     -3.63952    0.02600

  1    24     -3.92984    1.62814
  1    25     -3.87259    1.16425
  1    26     -3.81084    0.57672
  1    27     -3.70833    0.09912


Fermi level: -3.85601

Gap: 0.021 eV
Transition (v -> c):
  (s=0, k=2, n=25, [0.12, 0.12, 0.00]) -> (s=0, k=4, n=26, [0.38, -0.38, 0.00])
Writing to output.gpw (mode='')


Forces in eV/Ang:
  0 Li    0.00962    0.00019   -0.27257
  1 Li    0.00666    0.00016   -0.26165
  2 Li   -0.01627    0.00037   -0.27768
  3 Li    0.00300    0.02105   -0.27829
  4 Li   -0.00097    0.01050   -0.28837
  5 Li   -0.00629    0.01777   -0.28054
  6 Li    0.00240   -0.02249   -0.27856
  7 Li   -0.00026   -0.01051   -0.28722
  8 Li   -0.00684   -0.01701   -0.28320
  9 Li   -0.00166    0.01288    0.33165
 10 Li    0.01078    0.00005    0.26514
 11 Li   -0.01082   -0.00179    0.25450
 12 Li   -0.00001   -0.01327    0.32882
 13 Li    0.01055   -0.00062    0.26633
 14 Li   -0.01402    0.00273    0.25143
 15 Li    0.01046    0.00097    0.22847
 16 Li   -0.01910    0.00242    0.24826
 17 Li    0.01798   -0.00201    0.25319
 18 Li    0.05386   -0.00002   -0.06518
 19 Li    0.01705    0.00110    0.02087
 20 Li   -0.05753    0.00501   -0.08340
 21 Li   -0.01748   -0.01227    0.03459
 22 Li   -0.00356   -0.00688    0.04224
 23 Li    0.02691   -0.01692    0.03835
 24 Li   -0.01728    0.01820    0.03605
 25 Li   -0.00218    0.00624    0.04378
 26 Li    0.02376    0.00997    0.03360
 27 Li    0.01537    0.07142    0.07898
 28 Li   -0.08427    0.06490    0.07740
 29 Li   -0.02534   -0.02259    0.00329
 30 Li    0.08421   -0.12647    0.11454
 31 Li   -0.11992   -0.08346    0.09122
 32 Li   -0.00951    0.02222    0.01069
 33 Li   -0.00280   -0.00062   -0.02878
 34 Li   -0.00349   -0.00178   -0.01807
 35 Li    0.00259    0.00101   -0.01551
 36 B    -0.22854    0.07421   -0.34556
 37 H    -0.52145   -0.09990    1.62774
 38 H    -0.16323    0.23490    0.79164
 39 H    -0.19176   -0.11973    1.10328
 40 N     0.75815   -0.23241   -0.92396
 41 N     0.46848    0.25729   -2.60063

System changes: positions 

Initializing position-dependent things.

Density initialized from wave functions
       .-----------------------.  
      /|                       |  
     / |                       |  
    /  |                       |  
   /   |                       |  
  /    |                       |  
 *     |                       |  
 |     |                       |  
 |     |                       |  
 |     |                       |  
 |     |                       |  
 |     |                       |  
 |     |                       |  
 |     |               Li      |  
 |   H |                H      |  
 |     |     Li      Li  HB  Li|  
 |     |                       |  
 | LiN |  LLi     LLi     Ni   |  
 |     |                       |  
 |     |LLi     Li      LLi    |  
 |   Li|     Li      Li        |  
 |    Li  Li  Li  Li  Li  Li   |  
 | Li  |   Li      Li          |  
 |     |Li      Li      Li     |  
 Li    | Li      Li            |  
 |    Li      Li      Li       |  
 |     |                       |  
 |     |                       |  
 |     |                       |  
 |     |                       |  
 |     |                       |  
 |     |                       |  
 |     .-----------------------.  
 |    /                       /   
 |   /                       /    
 |  /                       /     
 | /                       /      
 |/                       /       
 *-----------------------*        

Positions:
   0 Li     1.617037    1.617037   10.000000    ( 0.0000,  0.0000,  0.0000)
   1 Li     4.851111    1.617037   10.000000    ( 0.0000,  0.0000,  0.0000)
   2 Li     8.085185    1.617037   10.000000    ( 0.0000,  0.0000,  0.0000)
   3 Li     1.617037    4.851111   10.000000    ( 0.0000,  0.0000,  0.0000)
   4 Li     4.851111    4.851111   10.000000    ( 0.0000,  0.0000,  0.0000)
   5 Li     8.085185    4.851111   10.000000    ( 0.0000,  0.0000,  0.0000)
   6 Li     1.617037    8.085185   10.000000    ( 0.0000,  0.0000,  0.0000)
   7 Li     4.851111    8.085185   10.000000    ( 0.0000,  0.0000,  0.0000)
   8 Li     8.085185    8.085185   10.000000    ( 0.0000,  0.0000,  0.0000)
   9 Li     0.000000    0.000000   11.617037    ( 0.0000,  0.0000,  0.0000)
  10 Li     3.234074    0.000000   11.617037    ( 0.0000,  0.0000,  0.0000)
  11 Li     6.468148    0.000000   11.617037    ( 0.0000,  0.0000,  0.0000)
  12 Li     0.000000    3.234074   11.617037    ( 0.0000,  0.0000,  0.0000)
  13 Li     3.234074    3.234074   11.617037    ( 0.0000,  0.0000,  0.0000)
  14 Li     6.468148    3.234074   11.617037    ( 0.0000,  0.0000,  0.0000)
  15 Li     0.000000    6.468148   11.617037    ( 0.0000,  0.0000,  0.0000)
  16 Li     3.234074    6.468148   11.617037    ( 0.0000,  0.0000,  0.0000)
  17 Li     6.468148    6.468148   11.617037    ( 0.0000,  0.0000,  0.0000)
  18 Li     1.620933    1.617041   13.463828    ( 0.0000,  0.0000,  0.0000)
  19 Li     4.852169    1.617101   13.471558    ( 0.0000,  0.0000,  0.0000)
  20 Li     8.081237    1.617392   13.463642    ( 0.0000,  0.0000,  0.0000)
  21 Li     1.615798    4.850100   13.472353    ( 0.0000,  0.0000,  0.0000)
  22 Li     4.850903    4.850922   13.472503    ( 0.0000,  0.0000,  0.0000)
  23 Li     8.086988    4.849899   13.472620    ( 0.0000,  0.0000,  0.0000)
  24 Li     1.615796    8.086560   13.472593    ( 0.0000,  0.0000,  0.0000)
  25 Li     4.851000    8.085408   13.472742    ( 0.0000,  0.0000,  0.0000)
  26 Li     8.086774    8.086023   13.472307    ( 0.0000,  0.0000,  0.0000)
  27 Li    -0.000418    0.007016   15.453848    ( 0.0000,  0.0000,  0.0000)
  28 Li     3.229439    0.003485   15.450477    ( 0.0000,  0.0000,  0.0000)
  29 Li     6.466070   -0.001731   15.445839    ( 0.0000,  0.0000,  0.0000)
  30 Li     0.005499    3.224077   15.455536    ( 0.0000,  0.0000,  0.0000)
  31 Li     3.227530    3.229707   15.451013    ( 0.0000,  0.0000,  0.0000)
  32 Li     6.467507    3.235733   15.446476    ( 0.0000,  0.0000,  0.0000)
  33 Li    -0.000174    6.468249   15.443929    ( 0.0000,  0.0000,  0.0000)
  34 Li     3.233695    6.468109   15.444643    ( 0.0000,  0.0000,  0.0000)
  35 Li     6.468479    6.468169   15.444831    ( 0.0000,  0.0000,  0.0000)
  36 B     -0.030788    1.602809   18.448566    ( 0.0000,  0.0000,  0.0000)
  37 H      1.022762    2.223267   18.600991    ( 0.0000,  0.0000,  0.0000)
  38 H     -1.046373    2.246646   18.518562    ( 0.0000,  0.0000,  0.0000)
  39 H     -0.015981    0.406094   18.546874    ( 0.0000,  0.0000,  0.0000)
  40 N     -0.015556    1.582475   16.783174    ( 0.0000,  0.0000,  0.0000)
  41 N      1.194188    1.645504   16.753344    ( 0.0000,  0.0000,  0.0000)

Unit cell:
           periodic     x           y           z      points  spacing
  1. axis:    yes    9.702222    0.000000    0.000000    60     0.1617
  2. axis:    yes    0.000000    9.702222    0.000000    60     0.1617
  3. axis:    no     0.000000    0.000000   26.351111   164     0.1607

  Lengths:   9.702222   9.702222  26.351111
  Angles:   90.000000  90.000000  90.000000

Effective grid spacing dv^(1/3) = 0.1614

     iter     time        total  log10-change:
                         energy  eigst   dens
iter:   1 02:23:47  -254.431871  -1.01
iter:   2 02:26:16  -254.428530  -1.79  -2.05
iter:   3 02:28:49  -254.426251c -1.91  -2.25
iter:   4 02:31:20  -254.425455c -2.38  -2.31
Writing to output.gpw (mode='')

iter:   5 02:33:55  -254.421910c -2.08  -2.30
iter:   6 02:36:13  -254.421973c -2.29  -2.50
iter:   7 02:38:39  -254.421558c -2.80  -2.63
iter:   8 02:41:04  -254.421494c -3.14  -2.87
iter:   9 02:43:30  -254.421467c -3.55  -2.92
Writing to output.gpw (mode='')

iter:  10 02:46:03  -254.421537c -3.36  -3.00
iter:  11 02:48:25  -254.421536c -3.90  -3.17
iter:  12 02:50:46  -254.421501c -3.94  -3.24
iter:  13 02:53:17  -254.421556c -4.20  -3.50
iter:  14 02:55:46  -254.421538c -4.54  -3.55
Writing to output.gpw (mode='')

iter:  15 02:58:18  -254.421532c -4.64  -3.69
iter:  16 03:00:44  -254.421525c -4.66  -3.74
iter:  17 03:03:12  -254.421549c -4.95  -3.82
iter:  18 03:05:43  -254.421550c -5.31  -3.90
iter:  19 03:08:09  -254.421545c -5.24  -3.96
Writing to output.gpw (mode='')

iter:  20 03:10:43  -254.421546c -5.45  -4.19c
[...]
iter:   3 19:49:07  -257.590288c -2.14  -2.23
iter:   4 19:51:29  -257.589707c -2.47  -2.40
Writing to output.gpw (mode='')

iter:   5 19:54:03  -257.587539c -2.26  -2.46
iter:   6 19:56:33  -257.587574c -2.55  -2.69
iter:   7 19:58:58  -257.587671c -2.54  -2.72
iter:   8 20:01:30  -257.587971c -2.71  -2.71
iter:   9 20:03:53  -257.587678c -3.41  -2.70
Writing to output.gpw (mode='')

iter:  10 20:06:26  -257.587595c -3.56  -2.83
iter:  11 20:09:01  -257.587491c -3.75  -2.94
iter:  12 20:11:36  -257.587509c -3.60  -3.06
iter:  13 20:14:07  -257.587488c -3.88  -3.18
iter:  14 20:16:29  -257.587495c -4.13  -3.22
Writing to output.gpw (mode='')

iter:  15 20:18:49  -257.587461c -4.44  -3.28
iter:  16 20:21:18  -257.587464c -4.73  -3.54
iter:  17 20:23:39  -257.587470c -4.99  -3.59
iter:  18 20:26:05  -257.587467c -4.98  -3.81
iter:  19 20:28:28  -257.587467c -5.54  -3.85
Writing to output.gpw (mode='')

iter:  20 20:31:03  -257.587470c -5.23  -3.98
iter:  21 20:33:32  -257.587470c -5.68  -4.16c
iter:  22 20:35:52  -257.587470c -5.92  -4.12c
iter:  23 20:38:21  -257.587469c -5.88  -4.20c
iter:  24 20:40:48  -257.587469c -6.61  -4.34c
Writing to output.gpw (mode='')

iter:  25 20:43:08  -257.587468c -6.19  -4.41c
iter:  26 20:45:28  -257.587468c -6.50  -4.46c
iter:  27 20:48:04  -257.587468c -7.09  -4.62c
iter:  28 20:50:32  -257.587469c -6.66  -4.72c
iter:  29 20:52:56  -257.587468c -7.03  -4.78c
Writing to output.gpw (mode='')

iter:  30 20:55:34  -257.587469c -7.11  -4.93c
iter:  31 20:58:13  -257.587469c -7.49c -5.03c

Converged after 31 iterations.

Dipole moment: (-0.400292, -0.105050, -0.309741) |e|*Ang

Energy contributions relative to reference atoms: (reference = -10970.764591)

Kinetic:       +108.574567
Potential:      -97.827126
External:        +0.000000
XC:            -268.604480
Entropy (-ST):   -0.162082
Local:           +0.350612
--------------------------
Free energy:   -257.668510
Extrapolated:  -257.587469

Dipole-layer corrected work functions: 3.436106, 4.031535 eV

Showing only first 2 kpts
 Kpt  Band  Eigenvalues  Occupancy
  0    24     -3.90813    1.94059
  0    25     -3.76992    1.34607
  0    26     -3.66193    0.38377
  0    27     -3.58102    0.08992

  1    24     -3.95864    1.97795
  1    25     -3.80179    1.59130
  1    26     -3.63198    0.23078
  1    27     -3.54597    0.04564


Fermi level: -3.73382

Gap: 0.014 eV
Transition (v -> c):
  (s=0, k=7, n=25, [0.38, 0.38, 0.00]) -> (s=0, k=4, n=26, [0.38, -0.38, 0.00])
Writing to output.gpw (mode='')


Forces in eV/Ang:
  0 Li    0.01474    0.01339   -0.26238
  1 Li    0.00491    0.00658   -0.26524
  2 Li   -0.00729    0.01051   -0.28707
  3 Li    0.01435    0.00883   -0.27354
  4 Li    0.02057    0.01951   -0.30402
  5 Li    0.00565    0.02419   -0.27023
  6 Li    0.01196   -0.00807   -0.27718
  7 Li    0.02271   -0.00398   -0.27922
  8 Li    0.00785   -0.00179   -0.28981
  9 Li   -0.00696    0.00015    0.36935
 10 Li   -0.01732    0.01195    0.26137
 11 Li   -0.07675   -0.04593    0.26806
 12 Li   -0.02083   -0.02747    0.28261
 13 Li    0.00385   -0.01852    0.23109
 14 Li   -0.10372   -0.01080    0.24894
 15 Li   -0.04860   -0.08208    0.28895
 16 Li   -0.01792   -0.04774    0.25035
 17 Li   -0.08595   -0.06327    0.29586
 18 Li   -0.04457    0.01210   -0.03179
 19 Li   -0.00392    0.01293   -0.00908
 20 Li    0.02732    0.02957    0.02066
 21 Li    0.00178    0.02542   -0.03348
 22 Li   -0.00297   -0.00777    0.02028
 23 Li    0.02047   -0.00503    0.00933
 24 Li    0.00487    0.01461   -0.00898
 25 Li   -0.00140    0.01658    0.00229
 26 Li    0.01755    0.01880    0.01692
 27 Li    0.04319    0.07646    0.05714
 28 Li   -0.00852    0.11886    0.03214
 29 Li   -0.03101   -0.00876    0.00489
 30 Li    0.08203    0.09291    0.08139
 31 Li    0.08616   -0.01223    0.01735
 32 Li    0.01859    0.00206   -0.02904
 33 Li    0.00548   -0.02054   -0.00671
 34 Li   -0.00146    0.00697   -0.01689
 35 Li    0.00975   -0.00015    0.00864
 36 B    -0.10089   -0.02031   -0.11850
 37 H     0.12431    0.08864    0.04604
 38 H     0.06436   -0.08352   -0.04673
 39 H     0.07157   -0.02842    0.03832
 40 N    -0.12368    0.04833    0.06456
 41 N     0.04634   -0.23073   -0.05896

System changes: positions 

Initializing position-dependent things.

Density initialized from wave functions
       .-----------------------.  
      /|                       |  
     / |                       |  
    /  |                       |  
   /   |                       |  
  /    |                       |  
 *     |                       |  
 |     |                       |  
 |     |                       |  
 |     |                       |  
 |     |                       |  
 |     |                       |  
 |     |                       |  
 |     |               Li      Li 
 | H   |                       |  
 |   B |H    Li      Li      Li|  
 |     |          Li           |  
 |  N  | Lii      Li      Li   |  
 |     |                       |  
 |   N Lii      Li      Li     |  
 |   Li|     LLi     Li        |  
 |    Li  Li      Li Li   Li   |  
 | Li  |   Li      Li          |  
 |     |Li      Li      Li     |  
 Li    | Li      Li            |  
 |    Li      Li      Li       |  
 |     |                       |  
 |     |                       |  
 |     |                       |  
 |     |                       |  
 |     |                       |  
 |     |                       |  
 |     .-----------------------.  
 |    /                       /   
 |   /                       /    
 |  /                       /     
 | /                       /      
 |/                       /       
 *-----------------------*        

Positions:
   0 Li     1.617037    1.617037   10.000000    ( 0.0000,  0.0000,  0.0000)
   1 Li     4.851111    1.617037   10.000000    ( 0.0000,  0.0000,  0.0000)
   2 Li     8.085185    1.617037   10.000000    ( 0.0000,  0.0000,  0.0000)
   3 Li     1.617037    4.851111   10.000000    ( 0.0000,  0.0000,  0.0000)
   4 Li     4.851111    4.851111   10.000000    ( 0.0000,  0.0000,  0.0000)
   5 Li     8.085185    4.851111   10.000000    ( 0.0000,  0.0000,  0.0000)
   6 Li     1.617037    8.085185   10.000000    ( 0.0000,  0.0000,  0.0000)
   7 Li     4.851111    8.085185   10.000000    ( 0.0000,  0.0000,  0.0000)
   8 Li     8.085185    8.085185   10.000000    ( 0.0000,  0.0000,  0.0000)
   9 Li     0.000000    0.000000   11.617037    ( 0.0000,  0.0000,  0.0000)
  10 Li     3.234074    0.000000   11.617037    ( 0.0000,  0.0000,  0.0000)
  11 Li     6.468148    0.000000   11.617037    ( 0.0000,  0.0000,  0.0000)
  12 Li     0.000000    3.234074   11.617037    ( 0.0000,  0.0000,  0.0000)
  13 Li     3.234074    3.234074   11.617037    ( 0.0000,  0.0000,  0.0000)
  14 Li     6.468148    3.234074   11.617037    ( 0.0000,  0.0000,  0.0000)
  15 Li     0.000000    6.468148   11.617037    ( 0.0000,  0.0000,  0.0000)
  16 Li     3.234074    6.468148   11.617037    ( 0.0000,  0.0000,  0.0000)
  17 Li     6.468148    6.468148   11.617037    ( 0.0000,  0.0000,  0.0000)
  18 Li     1.663806    1.641943   13.551053    ( 0.0000,  0.0000,  0.0000)
  19 Li     4.745185    1.598143   13.626077    ( 0.0000,  0.0000,  0.0000)
  20 Li     7.881897    1.582548   13.458905    ( 0.0000,  0.0000,  0.0000)
  21 Li     1.566945    4.781789   13.580391    ( 0.0000,  0.0000,  0.0000)
  22 Li     4.769071    4.857804   13.523634    ( 0.0000,  0.0000,  0.0000)
  23 Li     7.994998    4.727145   13.602455    ( 0.0000,  0.0000,  0.0000)
  24 Li     1.610109    7.930941   13.483902    ( 0.0000,  0.0000,  0.0000)
  25 Li     4.756699    8.121774   13.579100    ( 0.0000,  0.0000,  0.0000)
  26 Li     8.011259    7.977275   13.474609    ( 0.0000,  0.0000,  0.0000)
  27 Li    -0.064879   -0.132803   15.347349    ( 0.0000,  0.0000,  0.0000)
  28 Li     2.568614    0.013505   15.812277    ( 0.0000,  0.0000,  0.0000)
  29 Li     6.449919   -0.028049   15.544212    ( 0.0000,  0.0000,  0.0000)
  30 Li    -0.383085    2.597519   15.840751    ( 0.0000,  0.0000,  0.0000)
  31 Li     2.286160    3.123062   16.051546    ( 0.0000,  0.0000,  0.0000)
  32 Li     6.104221    3.318587   15.627630    ( 0.0000,  0.0000,  0.0000)
  33 Li    -0.034463    6.385168   15.549956    ( 0.0000,  0.0000,  0.0000)
  34 Li     3.286438    6.459247   15.549019    ( 0.0000,  0.0000,  0.0000)
  35 Li     6.455826    6.499085   15.468761    ( 0.0000,  0.0000,  0.0000)
  36 B      1.074669    2.073603   17.662818    ( 0.0000,  0.0000,  0.0000)
  37 H      2.303470    2.240725   17.790411    ( 0.0000,  0.0000,  0.0000)
  38 H      0.663075    3.228044   17.249621    ( 0.0000,  0.0000,  0.0000)
  39 H      0.516139    1.799189   18.689577    ( 0.0000,  0.0000,  0.0000)
  40 N      0.845098    1.076357   16.510262    ( 0.0000,  0.0000,  0.0000)
  41 N      1.277476    1.477341   15.304230    ( 0.0000,  0.0000,  0.0000)

Unit cell:
           periodic     x           y           z      points  spacing
  1. axis:    yes    9.702222    0.000000    0.000000    60     0.1617
  2. axis:    yes    0.000000    9.702222    0.000000    60     0.1617
  3. axis:    no     0.000000    0.000000   26.351111   164     0.1607

  Lengths:   9.702222   9.702222  26.351111
  Angles:   90.000000  90.000000  90.000000

Effective grid spacing dv^(1/3) = 0.1614

     iter     time        total  log10-change:
                         energy  eigst   dens
iter:   1 21:01:23  -257.610358  -1.09
iter:   2 21:03:43  -257.598570  -1.68  -1.91
iter:   3 21:06:05  -257.594984c -2.29  -2.10
iter:   4 21:08:31  -257.594135c -2.44  -2.46
Writing to output.gpw (mode='')

iter:   5 21:11:03  -257.593446c -2.51  -2.60
iter:   6 21:13:23  -257.593168c -2.52  -2.62
iter:   7 21:15:48  -257.593114c -3.16  -2.81
iter:   8 21:18:11  -257.593143c -3.30  -2.99
iter:   9 21:20:31  -257.593158c -3.73  -3.13
Writing to output.gpw (mode='')

iter:  10 21:22:55  -257.593163c -3.84  -3.18
iter:  11 21:25:18  -257.593179c -4.11  -3.31
iter:  12 21:27:44  -257.593168c -4.42  -3.32
iter:  13 21:30:07  -257.593158c -4.64  -3.48
iter:  14 21:32:32  -257.593150c -4.55  -3.59
Writing to output.gpw (mode='')

iter:  15 21:35:02  -257.593151c -5.10  -3.83
iter:  16 21:37:39  -257.593153c -5.28  -3.84
iter:  17 21:40:14  -257.593152c -5.24  -3.90
iter:  18 21:42:48  -257.593155c -5.38  -4.03c
iter:  19 21:45:11  -257.593157c -5.54  -4.09c
Writing to output.gpw (mode='')

iter:  20 21:47:43  -257.593156c -5.90  -4.13c
iter:  21 21:50:17  -257.593155c -5.96  -4.19c
iter:  22 21:52:34  -257.593155c -6.14  -4.40c
iter:  23 21:55:05  -257.593154c -6.11  -4.60c
iter:  24 21:57:36  -257.593154c -6.50  -4.73c
Writing to output.gpw (mode='')

iter:  25 22:00:02  -257.593154c -6.56  -4.76c
iter:  26 22:02:33  -257.593154c -6.82  -4.93c
iter:  27 22:04:58  -257.593154c -6.87  -5.01c
iter:  28 22:07:21  -257.593154c -6.89  -5.05c
iter:  29 22:09:47  -257.593154c -7.06  -5.14c
Writing to output.gpw (mode='')

iter:  30 22:12:15  -257.593154c -7.19  -5.25c
iter:  31 22:14:43  -257.593154c -7.45c -5.26c

Converged after 31 iterations.

Dipole moment: (-0.274305, -0.249786, -0.302874) |e|*Ang

Energy contributions relative to reference atoms: (reference = -10970.764591)

Kinetic:       +108.960842
Potential:      -98.120125
External:        +0.000000
XC:            -268.704067
Entropy (-ST):   -0.162425
Local:           +0.351408
--------------------------
Free energy:   -257.674367
Extrapolated:  -257.593154

Dipole-layer corrected work functions: 3.435918, 4.018145 eV

Showing only first 2 kpts
 Kpt  Band  Eigenvalues  Occupancy
  0    24     -3.90124    1.94047
  0    25     -3.76287    1.34381
  0    26     -3.65557    0.38646
  0    27     -3.57447    0.09033

  1    24     -3.95219    1.97809
  1    25     -3.79113    1.56554
  1    26     -3.62751    0.24041
  1    27     -3.53928    0.04573


Fermi level: -3.72703

Gap: 0.014 eV
Transition (v -> c):
  (s=0, k=7, n=25, [0.38, 0.38, 0.00]) -> (s=0, k=4, n=26, [0.38, -0.38, 0.00])
Writing to output.gpw (mode='')


Forces in eV/Ang:
  0 Li    0.01448    0.01297   -0.26161
  1 Li    0.00537    0.00618   -0.26624
  2 Li   -0.00705    0.01055   -0.28729
  3 Li    0.01386    0.00891   -0.27408
  4 Li    0.02044    0.01943   -0.30377
  5 Li    0.00544    0.02374   -0.27019
  6 Li    0.01178   -0.00793   -0.27682
  7 Li    0.02238   -0.00415   -0.27929
  8 Li    0.00770   -0.00174   -0.28976
  9 Li   -0.00961   -0.00055    0.36498
 10 Li   -0.01761    0.01141    0.25943
 11 Li   -0.07563   -0.04439    0.27038
 12 Li   -0.02162   -0.02832    0.28127
 13 Li    0.00267   -0.01959    0.23486
 14 Li   -0.10289   -0.01276    0.25070
 15 Li   -0.04824   -0.08134    0.28880
 16 Li   -0.01893   -0.04633    0.25101
 17 Li   -0.08316   -0.06160    0.29553
 18 Li   -0.05162    0.01342   -0.02366
 19 Li   -0.00520    0.01325   -0.00901
 20 Li    0.03139    0.03161    0.02297
 21 Li    0.00219    0.02794   -0.03367
 22 Li   -0.00643   -0.00955    0.02058
 23 Li    0.02217   -0.00440    0.00972
 24 Li    0.00458    0.01567   -0.00515
 25 Li   -0.00096    0.01894    0.00490
 26 Li    0.01872    0.02136    0.01817
 27 Li   -0.00138    0.01919    0.02773
 28 Li    0.00135    0.11217    0.02706
 29 Li   -0.03338   -0.00923    0.00546
 30 Li    0.05483    0.09280    0.06192
 31 Li    0.08730   -0.04431   -0.00074
 32 Li    0.01713    0.00171   -0.02762
 33 Li    0.00676   -0.01904   -0.00863
 34 Li   -0.00200    0.00593   -0.01752
 35 Li    0.00945   -0.00165    0.00853
 36 B    -0.08948    0.04642   -0.11509
 37 H     0.09631    0.07168    0.03663
 38 H     0.06411   -0.04265   -0.02948
 39 H     0.09560   -0.04209    0.04740
 40 N    -0.20191   -0.09854    0.17079
 41 N     0.19671   -0.05475   -0.18015

System changes: positions 

Initializing position-dependent things.

Density initialized from wave functions
       .-----------------------.  
      /|                       |  
     / |                       |  
    /  |                       |  
   /   |                       |  
  /    |                       |  
 *     |                       |  
 |     |                       |  
 |     |                       |  
 |     |                       |  
 |     |                       |  
 |     |                       |  
 |     |                       |  
 |     |               Li      Li 
 | H   |                       |  
 |   B |H    Li      Li      Li|  
 |     |          Li           |  
 |  N  | Lii      Li      Li   |  
 |     |                       |  
 |   N Lii      Li      Li     |  
 |   Li|     LLi     Li        |  
 |    Li  Li      Li Li   Li   |  
 | Li  |   Li      Li          |  
 |     |Li      Li      Li     |  
 Li    | Li      Li            |  
 |    Li      Li      Li       |  
 |     |                       |  
 |     |                       |  
 |     |                       |  
 |     |                       |  
 |     |                       |  
 |     |                       |  
 |     .-----------------------.  
 |    /                       /   
 |   /                       /    
 |  /                       /     
 | /                       /      
 |/                       /       
 *-----------------------*        

Positions:
   0 Li     1.617037    1.617037   10.000000    ( 0.0000,  0.0000,  0.0000)
   1 Li     4.851111    1.617037   10.000000    ( 0.0000,  0.0000,  0.0000)
   2 Li     8.085185    1.617037   10.000000    ( 0.0000,  0.0000,  0.0000)
   3 Li     1.617037    4.851111   10.000000    ( 0.0000,  0.0000,  0.0000)
   4 Li     4.851111    4.851111   10.000000    ( 0.0000,  0.0000,  0.0000)
   5 Li     8.085185    4.851111   10.000000    ( 0.0000,  0.0000,  0.0000)
   6 Li     1.617037    8.085185   10.000000    ( 0.0000,  0.0000,  0.0000)
   7 Li     4.851111    8.085185   10.000000    ( 0.0000,  0.0000,  0.0000)
   8 Li     8.085185    8.085185   10.000000    ( 0.0000,  0.0000,  0.0000)
   9 Li     0.000000    0.000000   11.617037    ( 0.0000,  0.0000,  0.0000)
  10 Li     3.234074    0.000000   11.617037    ( 0.0000,  0.0000,  0.0000)
  11 Li     6.468148    0.000000   11.617037    ( 0.0000,  0.0000,  0.0000)
  12 Li     0.000000    3.234074   11.617037    ( 0.0000,  0.0000,  0.0000)
  13 Li     3.234074    3.234074   11.617037    ( 0.0000,  0.0000,  0.0000)
  14 Li     6.468148    3.234074   11.617037    ( 0.0000,  0.0000,  0.0000)
  15 Li     0.000000    6.468148   11.617037    ( 0.0000,  0.0000,  0.0000)
  16 Li     3.234074    6.468148   11.617037    ( 0.0000,  0.0000,  0.0000)
  17 Li     6.468148    6.468148   11.617037    ( 0.0000,  0.0000,  0.0000)
  18 Li     1.657760    1.634235   13.546073    ( 0.0000,  0.0000,  0.0000)
  19 Li     4.740942    1.598421   13.627758    ( 0.0000,  0.0000,  0.0000)
  20 Li     7.881867    1.581479   13.462992    ( 0.0000,  0.0000,  0.0000)
  21 Li     1.566946    4.782839   13.577149    ( 0.0000,  0.0000,  0.0000)
  22 Li     4.772140    4.859385   13.524630    ( 0.0000,  0.0000,  0.0000)
  23 Li     7.995738    4.726402   13.603309    ( 0.0000,  0.0000,  0.0000)
  24 Li     1.607817    7.937576   13.487006    ( 0.0000,  0.0000,  0.0000)
  25 Li     4.755647    8.122533   13.578465    ( 0.0000,  0.0000,  0.0000)
  26 Li     8.013326    7.977808   13.477711    ( 0.0000,  0.0000,  0.0000)
  27 Li    -0.069167   -0.127201   15.360846    ( 0.0000,  0.0000,  0.0000)
  28 Li     2.567302    0.022364   15.829319    ( 0.0000,  0.0000,  0.0000)
  29 Li     6.446875   -0.028340   15.544084    ( 0.0000,  0.0000,  0.0000)
  30 Li    -0.378935    2.606533   15.860844    ( 0.0000,  0.0000,  0.0000)
  31 Li     2.285533    3.130581   16.039637    ( 0.0000,  0.0000,  0.0000)
  32 Li     6.109213    3.318392   15.623628    ( 0.0000,  0.0000,  0.0000)
  33 Li    -0.034780    6.382215   15.551762    ( 0.0000,  0.0000,  0.0000)
  34 Li     3.286329    6.462445   15.547016    ( 0.0000,  0.0000,  0.0000)
  35 Li     6.458161    6.500704   15.470966    ( 0.0000,  0.0000,  0.0000)
  36 B      1.092735    2.078279   17.652644    ( 0.0000,  0.0000,  0.0000)
  37 H      2.328132    2.230897   17.782363    ( 0.0000,  0.0000,  0.0000)
  38 H      0.696888    3.234050   17.229778    ( 0.0000,  0.0000,  0.0000)
  39 H      0.529639    1.824018   18.679939    ( 0.0000,  0.0000,  0.0000)
  40 N      0.848649    1.077919   16.509204    ( 0.0000,  0.0000,  0.0000)
  41 N      1.271586    1.471985   15.297588    ( 0.0000,  0.0000,  0.0000)

Unit cell:
           periodic     x           y           z      points  spacing
  1. axis:    yes    9.702222    0.000000    0.000000    60     0.1617
  2. axis:    yes    0.000000    9.702222    0.000000    60     0.1617
  3. axis:    no     0.000000    0.000000   26.351111   164     0.1607

  Lengths:   9.702222   9.702222  26.351111
  Angles:   90.000000  90.000000  90.000000

Effective grid spacing dv^(1/3) = 0.1614

     iter     time        total  log10-change:
                         energy  eigst   dens
iter:   1 22:17:46  -257.612395  -1.04
iter:   2 22:20:09  -257.603723  -1.72  -1.91
iter:   3 22:22:37  -257.601054c -2.36  -2.14
iter:   4 22:25:03  -257.600527c -2.78  -2.43
Writing to output.gpw (mode='')

iter:   5 22:27:38  -257.599038c -2.38  -2.50
iter:   6 22:30:05  -257.599013c -2.71  -2.70
iter:   7 22:32:28  -257.598961c -2.83  -2.74
iter:   8 22:34:50  -257.599292c -2.76  -2.75
iter:   9 22:37:26  -257.599034c -3.67  -2.73
Writing to output.gpw (mode='')

iter:  10 22:40:04  -257.598988c -3.70  -2.96
iter:  11 22:42:32  -257.598904c -4.29  -3.08
iter:  12 22:44:55  -257.598868c -4.01  -3.06
iter:  13 22:47:19  -257.598880c -3.87  -3.26
iter:  14 22:49:43  -257.598872c -4.29  -3.52
Writing to output.gpw (mode='')

iter:  15 22:52:05  -257.598876c -4.54  -3.56
iter:  16 22:54:36  -257.598885c -4.92  -3.68
iter:  17 22:57:00  -257.598886c -5.28  -3.79
iter:  18 22:59:27  -257.598886c -5.47  -3.82
iter:  19 23:01:56  -257.598889c -5.48  -3.97
Writing to output.gpw (mode='')

iter:  20 23:04:28  -257.598890c -5.84  -4.12c
