
  ___ ___ ___ _ _ _  
 |   |   |_  | | | | 
 | | | | | . | | | | 
 |__ |  _|___|_____|  22.8.0
 |___|_|             

User:   vazumah@c02.hercules
Date:   Sat Mar  4 07:35:43 2023
Arch:   x86_64
Pid:    6280
CWD:    /home/vazumah/Python_projects/LiNRR/Li_adsorb_studies/proton_donors/N2_with_proton_donor/Li_BCC_100/adsorbates/HF/ontop/9.702_9.702/N2_x
Python: 3.10.8
gpaw:   /home/vazumah/.conda/envs/GPAW/lib/python3.10/site-packages/gpaw
_gpaw:  /home/vazumah/.conda/envs/GPAW/lib/python3.10/site-packages/
        _gpaw.cpython-310-x86_64-linux-gnu.so
ase:    /home/vazumah/.conda/envs/GPAW/lib/python3.10/site-packages/ase (version 3.22.1)
numpy:  /home/vazumah/.conda/envs/GPAW/lib/python3.10/site-packages/numpy (version 1.24.1)
scipy:  /home/vazumah/.conda/envs/GPAW/lib/python3.10/site-packages/scipy (version 1.10.0)
libxc:  5.2.3
units:  Angstrom and eV
cores: 24
OpenMP: True
OMP_NUM_THREADS: 1

Input parameters:
  h: 0.16
  kpts: {size: [4, 4, 1]}
  occupations: {name: fermi-dirac,
                width: 0.05}
  poissonsolver: {dipolelayer: xy}
  xc: BEEF-vdW

System changes: positions, numbers, cell, pbc, initial_charges, initial_magmoms 

Initialize ...

species:
  Li:
    name: Lithium
    id: 830b4218f175192f93f959cfc0aad614
    Z: 3.0
    valence: 1
    core: 2
    charge: 0.0
    file: /home/vazumah/.conda/envs/GPAW/share/gpaw/Li.PBE.gz
    compensation charges: {type: gauss,
                           rc: 0.33,
                           lmax: 2}
    cutoffs: {filter: 1.91,
              core: 2.55}
    valence states:
      #              energy  rcut
      - 2s(1.00)    -2.874   1.058
      - 2p(0.00)    -1.090   1.058
      -  s          24.337   1.058
  
    # Using partial waves for Li as LCAO basis

  F:
    name: Fluorine
    id: 9cd46ba2a61e170ad72278be75b55cc0
    Z: 9.0
    valence: 7
    core: 2
    charge: 0.0
    file: /home/vazumah/.conda/envs/GPAW/share/gpaw/F.PBE.gz
    compensation charges: {type: gauss,
                           rc: 0.20,
                           lmax: 2}
    cutoffs: {filter: 1.14,
              core: 0.74}
    valence states:
      #              energy  rcut
      - 2s(2.00)   -29.898   0.635
      - 2p(5.00)   -11.110   0.635
      -  s          -2.687   0.635
      -  p          16.102   0.635
      -  d           0.000   0.635
  
    # Using partial waves for F as LCAO basis

  H:
    name: Hydrogen
    id: d65de229564ff8ea4db303e23b6d1ecf
    Z: 1.0
    valence: 1
    core: 0
    charge: 0.0
    file: /home/vazumah/.conda/envs/GPAW/share/gpaw/H.PBE.gz
    compensation charges: {type: gauss,
                           rc: 0.15,
                           lmax: 2}
    cutoffs: {filter: 0.85,
              core: 0.53}
    valence states:
      #              energy  rcut
      - 1s(1.00)    -6.494   0.476
      -  s          20.717   0.476
      -  p           0.000   0.476
  
    # Using partial waves for H as LCAO basis

  N:
    name: Nitrogen
    id: f7500608b86eaa90eef8b1d9a670dc53
    Z: 7.0
    valence: 5
    core: 2
    charge: 0.0
    file: /home/vazumah/.conda/envs/GPAW/share/gpaw/N.PBE.gz
    compensation charges: {type: gauss,
                           rc: 0.18,
                           lmax: 2}
    cutoffs: {filter: 1.11,
              core: 0.96}
    valence states:
      #              energy  rcut
      - 2s(2.00)   -18.583   0.603
      - 2p(3.00)    -7.089   0.529
      -  s           8.629   0.603
      -  p          20.123   0.529
      -  d           0.000   0.577
  
    # Using partial waves for N as LCAO basis

Reference energy: -12990.375485  # eV

Spin-paired calculation

Convergence criteria:
 Maximum [total energy] change in last 3 cyles: 0.0005 eV / electron
 Maximum integral of absolute [dens]ity change: 0.0001 electrons / valence electron
 Maximum integral of absolute [eigenst]ate change: 4e-08 eV^2 / valence electron
 Maximum number of scf [iter]ations: 333
 (Square brackets indicate name in SCF output, whereas a 'c' in
 the SCF output indicates the quantity has converged.)

Symmetries present (total): 1

  ( 1  0  0)
  ( 0  1  0)
  ( 0  0  1)

16 k-points: 4 x 4 x 1 Monkhorst-Pack grid
8 k-points in the irreducible part of the Brillouin zone
       k-points in crystal coordinates                weights
   0:     0.12500000   -0.37500000    0.00000000          2/16
   1:     0.12500000   -0.12500000    0.00000000          2/16
   2:     0.12500000    0.12500000    0.00000000          2/16
   3:     0.12500000    0.37500000    0.00000000          2/16
   4:     0.37500000   -0.37500000    0.00000000          2/16
   5:     0.37500000   -0.12500000    0.00000000          2/16
   6:     0.37500000    0.12500000    0.00000000          2/16
   7:     0.37500000    0.37500000    0.00000000          2/16

Wave functions: Uniform real-space grid
  Kinetic energy operator: 6*3+1=19 point O(h^6) finite-difference Laplacian
  ScaLapack parameters: grid=1x1, blocksize=None
  Wavefunction extrapolation:
    Improved wavefunction reuse through dual PAW basis 

Occupation numbers: Fermi-Dirac:
  width: 0.0500  # eV
 

Eigensolver
   Davidson(niter=2) 

Densities:
  Coarse grid: 60*60*168 grid
  Fine grid: 120*120*336 grid
  Total Charge: 0.000000 

Density mixing:
  Method: separate
  Backend: pulay
  Linear mixing parameter: 0.05
  old densities: 5
  Damping of long wavelength oscillations: 50 

Hamiltonian:
  XC and Coulomb potentials evaluated on a 120*120*336 grid
  Using the BEEF-vdW Exchange-Correlation functional
  Interpolation: tri-quintic (5. degree polynomial)
  Poisson solver: FastPoissonSolver using
    Stencil: 6*3+1=19 point O(h^6) finite-difference Laplacian
    FFT axes: [0, 1]
    FST axes: [2]

Dipole correction along z-axis 

XC parameters: BEEF-vdW with 2 nearest neighbor stencil

Memory estimate:
  Process memory now: 226.88 MiB
  Calculator: 394.09 MiB
    Density: 120.69 MiB
      Arrays: 39.61 MiB
      Localized functions: 65.98 MiB
      Mixer: 15.11 MiB
    Hamiltonian: 31.12 MiB
      Arrays: 25.90 MiB
      XC: 0.00 MiB
      Poisson: 0.00 MiB
      vbar: 5.22 MiB
    Wavefunctions: 242.28 MiB
      Arrays psit_nG: 111.79 MiB
      Eigensolver: 127.10 MiB
      Projections: 0.04 MiB
      Projectors: 3.35 MiB

Total number of cores used: 24
Parallelization over k-points: 8
Domain decomposition: 1 x 1 x 3

Number of atoms: 40
Number of atomic orbitals: 157
Number of bands in calculation: 37
Number of valence electrons: 54
Bands to converge: occupied

... initialized

Initializing position-dependent things.

Density initialized from atomic densities
Creating initial wave functions:
  37 bands from LCAO basis set

       .-----------------------.  
      /|                       |  
     / |                       |  
    /  |                       |  
   /   |                       |  
  /    |                       |  
 *     |                       |  
 |     |                       |  
 |     |                       |  
 |     |                       |  
 |     |                       |  
 |     |                       |  
 |     |                    N  N  
 |     |                       |  
 |     |                       |  
 |     |                       |  
 F H Li|     Li      Li        |  
 |     |  Li      Li      Li   |  
 | Li  |   Li      Li          |  
 |     |Li      Li      Li     |  
 Li    | Li      Li            |  
 |   LLi     LLi     LLi       |  
 |     |  Li      Li      Li   |  
 | Li  |   Li      Li          |  
 |     |Li      Li      Li     |  
 Li    | Li      Li            |  
 |    Li      Li      Li       |  
 |     |                       |  
 |     |                       |  
 |     |                       |  
 |     |                       |  
 |     |                       |  
 |     |                       |  
 |     .-----------------------.  
 |    /                       /   
 |   /                       /    
 |  /                       /     
 | /                       /      
 |/                       /       
 *-----------------------*        

Positions:
   0 Li     1.617037    1.617037   10.000000    ( 0.0000,  0.0000,  0.0000)
   1 Li     4.851111    1.617037   10.000000    ( 0.0000,  0.0000,  0.0000)
   2 Li     8.085185    1.617037   10.000000    ( 0.0000,  0.0000,  0.0000)
   3 Li     1.617037    4.851111   10.000000    ( 0.0000,  0.0000,  0.0000)
   4 Li     4.851111    4.851111   10.000000    ( 0.0000,  0.0000,  0.0000)
   5 Li     8.085185    4.851111   10.000000    ( 0.0000,  0.0000,  0.0000)
   6 Li     1.617037    8.085185   10.000000    ( 0.0000,  0.0000,  0.0000)
   7 Li     4.851111    8.085185   10.000000    ( 0.0000,  0.0000,  0.0000)
   8 Li     8.085185    8.085185   10.000000    ( 0.0000,  0.0000,  0.0000)
   9 Li     0.000000    0.000000   11.617037    ( 0.0000,  0.0000,  0.0000)
  10 Li     3.234074    0.000000   11.617037    ( 0.0000,  0.0000,  0.0000)
  11 Li     6.468148    0.000000   11.617037    ( 0.0000,  0.0000,  0.0000)
  12 Li     0.000000    3.234074   11.617037    ( 0.0000,  0.0000,  0.0000)
  13 Li     3.234074    3.234074   11.617037    ( 0.0000,  0.0000,  0.0000)
  14 Li     6.468148    3.234074   11.617037    ( 0.0000,  0.0000,  0.0000)
  15 Li     0.000000    6.468148   11.617037    ( 0.0000,  0.0000,  0.0000)
  16 Li     3.234074    6.468148   11.617037    ( 0.0000,  0.0000,  0.0000)
  17 Li     6.468148    6.468148   11.617037    ( 0.0000,  0.0000,  0.0000)
  18 Li     1.617038    1.617038   13.469728    ( 0.0000,  0.0000,  0.0000)
  19 Li     4.851111    1.617038   13.469729    ( 0.0000,  0.0000,  0.0000)
  20 Li     8.085184    1.617038   13.469728    ( 0.0000,  0.0000,  0.0000)
  21 Li     1.617038    4.851111   13.469729    ( 0.0000,  0.0000,  0.0000)
  22 Li     4.851111    4.851111   13.469730    ( 0.0000,  0.0000,  0.0000)
  23 Li     8.085184    4.851111   13.469729    ( 0.0000,  0.0000,  0.0000)
  24 Li     1.617038    8.085184   13.469728    ( 0.0000,  0.0000,  0.0000)
  25 Li     4.851111    8.085184   13.469729    ( 0.0000,  0.0000,  0.0000)
  26 Li     8.085184    8.085184   13.469728    ( 0.0000,  0.0000,  0.0000)
  27 Li    -0.000000   -0.000000   15.445939    ( 0.0000,  0.0000,  0.0000)
  28 Li     3.234074    0.000000   15.445939    ( 0.0000,  0.0000,  0.0000)
  29 Li     6.468148    0.000000   15.445939    ( 0.0000,  0.0000,  0.0000)
  30 Li     0.000000    3.234074   15.445939    ( 0.0000,  0.0000,  0.0000)
  31 Li     3.234076    3.234076   15.445938    ( 0.0000,  0.0000,  0.0000)
  32 Li     6.468146    3.234076   15.445938    ( 0.0000,  0.0000,  0.0000)
  33 Li     0.000000    6.468148   15.445939    ( 0.0000,  0.0000,  0.0000)
  34 Li     3.234076    6.468146   15.445938    ( 0.0000,  0.0000,  0.0000)
  35 Li     6.468146    6.468146   15.445938    ( 0.0000,  0.0000,  0.0000)
  36 F      9.702222    9.702222   18.445939    ( 0.0000,  0.0000,  0.0000)
  37 H     10.630139    9.702222   18.445939    ( 0.0000,  0.0000,  0.0000)
  38 N      9.702000    9.702000   17.195939    ( 0.0000,  0.0000,  0.0000)
  39 N      8.605378    9.702000   17.195939    ( 0.0000,  0.0000,  0.0000)

Unit cell:
           periodic     x           y           z      points  spacing
  1. axis:    yes    9.702222    0.000000    0.000000    60     0.1617
  2. axis:    yes    0.000000    9.702222    0.000000    60     0.1617
  3. axis:    no     0.000000    0.000000   26.601111   168     0.1583

  Lengths:   9.702222   9.702222  26.601111
  Angles:   90.000000  90.000000  90.000000

Effective grid spacing dv^(1/3) = 0.1606

     iter     time        total  log10-change:
                         energy  eigst   dens
iter:   1 07:38:55  -364.411350
iter:   2 07:41:22  -178.881420  +2.28  -0.12
iter:   3 07:43:50  -163.766650  +3.16  -0.31
iter:   4 07:46:26  -200.770259  +2.73  -0.32
Writing to output.gpw (mode='')

iter:   5 07:48:58  -203.546435  +2.37  -0.41
iter:   6 07:51:33  -218.935208  +2.10  -0.66
iter:   7 07:54:05  -225.557974  +1.86  -0.68
iter:   8 07:56:46  -229.147588  +1.64  -0.78
iter:   9 07:59:10  -235.662829  +1.53  -0.95
Writing to output.gpw (mode='')

iter:  10 08:01:41  -242.385259  +1.58  -0.96
iter:  11 08:04:18  -249.321967  +1.44  -0.95
iter:  12 08:06:43  -245.391658  +0.76  -0.88
iter:  13 08:09:18  -245.661526  +0.51  -0.94
iter:  14 08:11:51  -246.338453  +0.49  -0.96
Writing to output.gpw (mode='')

iter:  15 08:14:29  -248.083971  +0.55  -0.96
iter:  16 08:17:00  -245.885359  +0.37  -0.96
iter:  17 08:19:26  -245.226326  +0.97  -0.98
iter:  18 08:21:57  -244.288641  +0.20  -0.76
iter:  19 08:24:27  -243.282537  +0.16  -0.81
Writing to output.gpw (mode='')

iter:  20 08:26:56  -243.280321  +0.73  -0.90
iter:  21 08:29:24  -242.907307  +0.20  -1.18
iter:  22 08:31:59  -242.735112  +0.15  -1.22
iter:  23 08:34:28  -242.448548  -0.28  -1.21
iter:  24 08:37:01  -242.493726  +0.34  -1.49
Writing to output.gpw (mode='')

iter:  25 08:39:39  -242.426896  -0.32  -1.46
iter:  26 08:42:07  -242.409982  -0.62  -1.53
iter:  27 08:44:36  -242.375530  -1.03  -1.58
iter:  28 08:47:07  -242.370230  -1.04  -1.72
iter:  29 08:49:34  -242.378418c -1.01  -1.88
Writing to output.gpw (mode='')

iter:  30 08:52:07  -242.380364c -1.33  -1.92
iter:  31 08:54:37  -242.384005c -1.36  -1.95
iter:  32 08:57:08  -242.384456c -1.56  -2.01
iter:  33 08:59:35  -242.385064c -1.31  -2.06
iter:  34 09:02:00  -242.386198c -1.64  -2.15
Writing to output.gpw (mode='')

iter:  35 09:04:28  -242.385950c -1.97  -2.25
iter:  36 09:06:52  -242.386691c -1.84  -2.41
iter:  37 09:09:16  -242.387854c -2.23  -2.54
iter:  38 09:11:47  -242.388827c -2.22  -2.58
iter:  39 09:14:28  -242.389228c -2.15  -2.62
Writing to output.gpw (mode='')

iter:  40 09:17:11  -242.389892c -2.18  -2.74
iter:  41 09:19:35  -242.390632c -2.39  -2.86
iter:  42 09:21:58  -242.391122c -2.54  -2.87
iter:  43 09:24:31  -242.391773c -2.44  -2.93
iter:  44 09:26:58  -242.392060c -2.65  -3.06
Writing to output.gpw (mode='')

iter:  45 09:29:29  -242.392513c -2.56  -3.16
iter:  46 09:31:58  -242.392783c -2.69  -3.25
iter:  47 09:34:18  -242.393028c -2.79  -3.29
iter:  48 09:36:45  -242.393291c -2.70  -3.37
iter:  49 09:39:21  -242.393463c -2.75  -3.48
Writing to output.gpw (mode='')

iter:  50 09:41:54  -242.393630c -3.05  -3.53
iter:  51 09:44:20  -242.393721c -3.11  -3.65
iter:  52 09:46:47  -242.393804c -3.14  -3.70
iter:  53 09:49:15  -242.393867c -3.39  -3.65
iter:  54 09:51:49  -242.393918c -3.25  -3.64
Writing to output.gpw (mode='')

iter:  55 09:54:24  -242.393967c -3.53  -3.56
iter:  56 09:56:54  -242.394024c -3.35  -3.56
iter:  57 09:59:24  -242.394073c -3.41  -3.56
iter:  58 10:02:01  -242.394116c -3.64  -3.48
iter:  59 10:04:35  -242.394170c -3.49  -3.53
Writing to output.gpw (mode='')

iter:  60 10:07:08  -242.394186c -3.81  -3.58
iter:  61 10:09:35  -242.394196c -4.00  -3.55
iter:  62 10:11:59  -242.394215c -4.03  -3.51
iter:  63 10:14:31  -242.394279c -3.98  -3.55
iter:  64 10:17:09  -242.394295c -4.12  -3.81
Writing to output.gpw (mode='')

iter:  65 10:19:46  -242.394313c -4.25  -3.87
iter:  66 10:22:14  -242.394328c -4.33  -4.19c
iter:  67 10:24:38  -242.394328c -4.55  -4.34c
iter:  68 10:27:07  -242.394332c -4.55  -4.36c
iter:  69 10:29:40  -242.394333c -4.61  -4.35c
Writing to output.gpw (mode='')

iter:  70 10:32:13  -242.394334c -4.57  -4.24c
iter:  71 10:34:38  -242.394338c -4.72  -4.46c
iter:  72 10:37:06  -242.394341c -4.70  -4.63c
iter:  73 10:39:35  -242.394343c -4.71  -4.72c
iter:  74 10:42:19  -242.394342c -4.80  -4.68c
Writing to output.gpw (mode='')

iter:  75 10:44:51  -242.394345c -4.74  -4.54c
iter:  76 10:47:20  -242.394344c -4.87  -4.55c
iter:  77 10:49:52  -242.394344c -4.95  -4.45c
iter:  78 10:52:34  -242.394348c -5.07  -4.41c
iter:  79 10:55:04  -242.394348c -5.02  -4.50c
Writing to output.gpw (mode='')

iter:  80 10:57:37  -242.394350c -5.16  -4.45c
iter:  81 11:00:11  -242.394353c -5.18  -4.43c
iter:  82 11:02:36  -242.394356c -5.22  -4.51c
iter:  83 11:05:09  -242.394357c -5.09  -4.59c
iter:  84 11:07:39  -242.394360c -5.11  -4.64c
Writing to output.gpw (mode='')

iter:  85 11:10:13  -242.394359c -5.52  -4.81c
iter:  86 11:12:48  -242.394360c -5.51  -4.75c
iter:  87 11:15:21  -242.394361c -5.42  -4.85c
iter:  88 11:17:49  -242.394361c -5.58  -4.88c
iter:  89 11:20:20  -242.394361c -5.65  -5.04c
Writing to output.gpw (mode='')

iter:  90 11:22:51  -242.394361c -5.77  -5.06c
iter:  91 11:25:22  -242.394361c -5.70  -5.26c
iter:  92 11:27:50  -242.394361c -5.83  -5.41c
iter:  93 11:30:19  -242.394361c -5.75  -5.47c
iter:  94 11:32:48  -242.394361c -5.84  -5.50c
Writing to output.gpw (mode='')

iter:  95 11:35:28  -242.394361c -6.04  -5.58c
iter:  96 11:37:54  -242.394361c -6.07  -5.67c
iter:  97 11:40:28  -242.394361c -5.94  -5.78c
iter:  98 11:43:04  -242.394361c -5.97  -5.82c
iter:  99 11:45:40  -242.394361c -6.14  -5.87c
Writing to output.gpw (mode='')

iter: 100 11:48:12  -242.394361c -6.08  -5.77c
iter: 101 11:50:43  -242.394361c -6.27  -5.66c
iter: 102 11:53:13  -242.394361c -6.31  -5.58c
iter: 103 11:55:43  -242.394361c -6.29  -5.54c
iter: 104 11:58:16  -242.394361c -6.37  -5.50c
Writing to output.gpw (mode='')

iter: 105 12:00:56  -242.394361c -6.38  -5.48c
iter: 106 12:03:32  -242.394361c -6.53  -5.38c
iter: 107 12:05:59  -242.394361c -6.53  -5.41c
iter: 108 12:08:38  -242.394361c -6.51  -5.42c
iter: 109 12:11:24  -242.394362c -6.54  -5.44c
Writing to output.gpw (mode='')

iter: 110 12:13:54  -242.394362c -6.56  -5.57c
iter: 111 12:16:23  -242.394362c -6.65  -5.46c
iter: 112 12:18:41  -242.394362c -6.88  -5.67c
iter: 113 12:21:05  -242.394362c -6.78  -5.55c
iter: 114 12:23:47  -242.394362c -6.84  -5.60c
Writing to output.gpw (mode='')

iter: 115 12:26:18  -242.394362c -6.93  -5.71c
iter: 116 12:28:43  -242.394362c -7.04  -5.99c
iter: 117 12:31:14  -242.394362c -6.98  -5.99c
iter: 118 12:33:45  -242.394362c -7.15  -5.95c
iter: 119 12:36:17  -242.394362c -7.13  -5.81c
Writing to output.gpw (mode='')

iter: 120 12:38:41  -242.394362c -7.17  -5.83c
iter: 121 12:41:10  -242.394362c -7.18  -5.98c
iter: 122 12:43:33  -242.394362c -7.22  -6.24c
iter: 123 12:46:05  -242.394362c -7.21  -6.28c
iter: 124 12:48:44  -242.394362c -7.28  -6.30c
Writing to output.gpw (mode='')

iter: 125 12:51:16  -242.394362c -7.37  -6.33c
iter: 126 12:53:46  -242.394362c -7.45c -6.57c

Converged after 126 iterations.

Dipole moment: (-11.353474, -16.300129, 0.320956) |e|*Ang

Energy contributions relative to reference atoms: (reference = -12990.375485)

Kinetic:       +157.915685
Potential:     -131.402473
External:        +0.000000
XC:            -269.215183
Entropy (-ST):   -0.153050
Local:           +0.384133
--------------------------
Free energy:   -242.470887
Extrapolated:  -242.394362

Dipole-layer corrected work functions: 3.366857, 2.749871 eV

Showing only first 2 kpts
 Kpt  Band  Eigenvalues  Occupancy
  0    25     -3.31189    1.98752
  0    26     -3.21584    1.91778
  0    27     -2.92167    0.12200
  0    28     -2.82362    0.01812

  1    25     -3.10006    1.39434
  1    26     -3.08639    1.27318
  1    27     -3.01238    0.57009
  1    28     -2.95508    0.22496


Fermi level: -3.05836

Gap: 0.035 eV
Transition (v -> c):
  (s=0, k=2, n=26, [0.12, 0.12, 0.00]) -> (s=0, k=7, n=27, [0.38, 0.38, 0.00])
Writing to output.gpw (mode='')


Forces in eV/Ang:
  0 Li    0.01095    0.00126   -0.27591
  1 Li   -0.00738   -0.00252   -0.26648
  2 Li   -0.00199    0.01486   -0.27474
  3 Li   -0.00700   -0.00000   -0.26402
  4 Li    0.00403    0.00000   -0.27608
  5 Li    0.00014   -0.00001   -0.26376
  6 Li    0.01096   -0.00126   -0.27590
  7 Li   -0.00738    0.00251   -0.26649
  8 Li   -0.00199   -0.01486   -0.27474
  9 Li   -0.00346   -0.00000    0.33270
 10 Li   -0.00147   -0.00000    0.25033
 11 Li    0.00165   -0.00000    0.28524
 12 Li   -0.00182    0.01704    0.25533
 13 Li    0.00438   -0.00756    0.26328
 14 Li    0.00015    0.00820    0.26041
 15 Li   -0.00182   -0.01704    0.25534
 16 Li    0.00437    0.00756    0.26328
 17 Li    0.00015   -0.00820    0.26042
 18 Li   -0.00514    0.00764    0.00370
 19 Li    0.01279   -0.01907    0.06010
 20 Li   -0.00300    0.03492   -0.07322
 21 Li    0.00253    0.00001    0.05063
 22 Li   -0.00867   -0.00000    0.00796
 23 Li    0.00507    0.00001    0.07587
 24 Li   -0.00513   -0.00765    0.00366
 25 Li    0.01278    0.01907    0.06010
 26 Li   -0.00300   -0.03491   -0.07327
 27 Li    0.23465    0.00031   -2.04172
 28 Li    0.05409    0.00001   -0.05074
 29 Li    0.23672   -0.00003    0.21983
 30 Li    0.02504    0.11621   -0.07796
 31 Li   -0.00035   -0.01187   -0.01484
 32 Li   -0.03418    0.05661   -0.03343
 33 Li    0.02506   -0.11626   -0.07798
 34 Li   -0.00033    0.01186   -0.01486
 35 Li   -0.03423   -0.05666   -0.03344
 36 F     6.70903    0.00399   22.46712
 37 H     5.08729    0.00053    2.73942
 38 N     4.20397   -0.00178  -12.45118
 39 N   -16.49910   -0.00131  -10.72777

System changes: positions 

Initializing position-dependent things.

Density initialized from wave functions
       .-----------------------.  
      /|                       |  
     / |                       |  
    /  |                       |  
   /   |                       |  
  /    |                       |  
 *     |                       |  
 |     |                       |  
 |     |                       |  
 |     |                       |  
 |     |                       |  
 |     |                       |  
 |     N                    N  |  
 |     |                       |  
 |     |               Li      |  
 |     |                       |  
 F H Li|     Li      Li        |  
 |     |  Li      Li      Li   |  
 | Li  |   Li      Li          |  
 |     |Li      Li      Li     |  
 Li    | Li                    |  
 |   LLi     LLi     LLi       |  
 |     |  Li      Li      Li   |  
 | Li  |   Li      Li          |  
 |     |Li      Li      Li     |  
 Li    | Li      Li            |  
 |    Li      Li      Li       |  
 |     |                       |  
 |     |                       |  
 |     |                       |  
 |     |                       |  
 |     |                       |  
 |     |                       |  
 |     .-----------------------.  
 |    /                       /   
 |   /                       /    
 |  /                       /     
 | /                       /      
 |/                       /       
 *-----------------------*        

Positions:
   0 Li     1.617037    1.617037   10.000000    ( 0.0000,  0.0000,  0.0000)
   1 Li     4.851111    1.617037   10.000000    ( 0.0000,  0.0000,  0.0000)
   2 Li     8.085185    1.617037   10.000000    ( 0.0000,  0.0000,  0.0000)
   3 Li     1.617037    4.851111   10.000000    ( 0.0000,  0.0000,  0.0000)
   4 Li     4.851111    4.851111   10.000000    ( 0.0000,  0.0000,  0.0000)
   5 Li     8.085185    4.851111   10.000000    ( 0.0000,  0.0000,  0.0000)
   6 Li     1.617037    8.085185   10.000000    ( 0.0000,  0.0000,  0.0000)
   7 Li     4.851111    8.085185   10.000000    ( 0.0000,  0.0000,  0.0000)
   8 Li     8.085185    8.085185   10.000000    ( 0.0000,  0.0000,  0.0000)
   9 Li     0.000000    0.000000   11.617037    ( 0.0000,  0.0000,  0.0000)
  10 Li     3.234074    0.000000   11.617037    ( 0.0000,  0.0000,  0.0000)
  11 Li     6.468148    0.000000   11.617037    ( 0.0000,  0.0000,  0.0000)
  12 Li     0.000000    3.234074   11.617037    ( 0.0000,  0.0000,  0.0000)
  13 Li     3.234074    3.234074   11.617037    ( 0.0000,  0.0000,  0.0000)
  14 Li     6.468148    3.234074   11.617037    ( 0.0000,  0.0000,  0.0000)
  15 Li     0.000000    6.468148   11.617037    ( 0.0000,  0.0000,  0.0000)
  16 Li     3.234074    6.468148   11.617037    ( 0.0000,  0.0000,  0.0000)
  17 Li     6.468148    6.468148   11.617037    ( 0.0000,  0.0000,  0.0000)
  18 Li     1.617029    1.617051   13.469734    ( 0.0000,  0.0000,  0.0000)
  19 Li     4.851133    1.617006   13.469832    ( 0.0000,  0.0000,  0.0000)
  20 Li     8.085179    1.617098   13.469603    ( 0.0000,  0.0000,  0.0000)
  21 Li     1.617043    4.851111   13.469816    ( 0.0000,  0.0000,  0.0000)
  22 Li     4.851096    4.851111   13.469744    ( 0.0000,  0.0000,  0.0000)
  23 Li     8.085192    4.851111   13.469859    ( 0.0000,  0.0000,  0.0000)
  24 Li     1.617029    8.085171   13.469734    ( 0.0000,  0.0000,  0.0000)
  25 Li     4.851133    8.085216   13.469832    ( 0.0000,  0.0000,  0.0000)
  26 Li     8.085179    8.085124   13.469603    ( 0.0000,  0.0000,  0.0000)
  27 Li     0.000400    0.000001   15.442456    ( 0.0000,  0.0000,  0.0000)
  28 Li     3.234166    0.000000   15.445852    ( 0.0000,  0.0000,  0.0000)
  29 Li     6.468552   -0.000000   15.446314    ( 0.0000,  0.0000,  0.0000)
  30 Li     0.000043    3.234272   15.445806    ( 0.0000,  0.0000,  0.0000)
  31 Li     3.234076    3.234056   15.445913    ( 0.0000,  0.0000,  0.0000)
  32 Li     6.468087    3.234173   15.445881    ( 0.0000,  0.0000,  0.0000)
  33 Li     0.000043    6.467950   15.445806    ( 0.0000,  0.0000,  0.0000)
  34 Li     3.234076    6.468166   15.445913    ( 0.0000,  0.0000,  0.0000)
  35 Li     6.468087    6.468049   15.445881    ( 0.0000,  0.0000,  0.0000)
  36 F      9.713667    9.702229   18.484267    ( 0.0000,  0.0000,  0.0000)
  37 H     10.638817    9.702223   18.450613    ( 0.0000,  0.0000,  0.0000)
  38 N      9.709172    9.701997   17.174698    ( 0.0000,  0.0000,  0.0000)
  39 N      8.577232    9.701998   17.177638    ( 0.0000,  0.0000,  0.0000)

Unit cell:
           periodic     x           y           z      points  spacing
  1. axis:    yes    9.702222    0.000000    0.000000    60     0.1617
  2. axis:    yes    0.000000    9.702222    0.000000    60     0.1617
  3. axis:    no     0.000000    0.000000   26.601111   168     0.1583

  Lengths:   9.702222   9.702222  26.601111
  Angles:   90.000000  90.000000  90.000000

Effective grid spacing dv^(1/3) = 0.1606

     iter     time        total  log10-change:
                         energy  eigst   dens
iter:   1 12:56:54  -245.309761  -0.08
iter:   2 12:59:22  -244.694972  +0.13  -1.12
iter:   3 13:02:05  -244.155167  -0.55  -1.15
iter:   4 13:04:33  -244.131628  -0.86  -1.76
Writing to output.gpw (mode='')

iter:   5 13:07:11  -244.129053c -1.38  -1.93
iter:   6 13:09:43  -244.112742c -1.01  -1.83
iter:   7 13:12:24  -244.120660c -1.59  -2.13
iter:   8 13:14:56  -244.128829c -1.40  -2.11
iter:   9 13:17:24  -244.111283c -1.98  -2.06
Writing to output.gpw (mode='')

iter:  10 13:19:55  -244.109953c -2.24  -2.49
iter:  11 13:22:24  -244.110148c -2.55  -2.58
iter:  12 13:24:59  -244.110182c -2.59  -2.66
iter:  13 13:27:24  -244.110806c -2.68  -2.75
iter:  14 13:29:55  -244.110657c -3.10  -2.82
Writing to output.gpw (mode='')

iter:  15 13:32:26  -244.110642c -3.17  -2.91
iter:  16 13:34:52  -244.110737c -3.45  -3.15
iter:  17 13:37:29  -244.110754c -3.60  -3.21
iter:  18 13:40:09  -244.110771c -3.57  -3.35
iter:  19 13:42:32  -244.110826c -3.57  -3.37
Writing to output.gpw (mode='')

iter:  20 13:44:57  -244.110818c -3.81  -3.46
iter:  21 13:47:23  -244.110816c -3.92  -3.47
iter:  22 13:49:50  -244.110848c -4.23  -3.61
iter:  23 13:52:24  -244.110844c -4.25  -3.63
iter:  24 13:54:48  -244.110856c -4.36  -3.69
Writing to output.gpw (mode='')

iter:  25 13:57:12  -244.110860c -4.44  -3.69
iter:  26 13:59:37  -244.110857c -4.75  -3.70
iter:  27 14:02:11  -244.110855c -4.88  -3.90
iter:  28 14:04:45  -244.110860c -4.49  -3.92
iter:  29 14:07:18  -244.110872c -5.02  -3.82
Writing to output.gpw (mode='')

iter:  30 14:09:44  -244.110866c -5.15  -3.91
iter:  31 14:12:17  -244.110865c -4.91  -4.09c
iter:  32 14:14:54  -244.110870c -5.38  -4.22c
iter:  33 14:17:24  -244.110870c -5.29  -4.39c
iter:  34 14:19:50  -244.110870c -5.54  -4.43c
Writing to output.gpw (mode='')

iter:  35 14:22:23  -244.110867c -5.40  -4.51c
iter:  36 14:24:54  -244.110869c -5.60  -4.51c
iter:  37 14:27:32  -244.110870c -5.77  -4.81c
iter:  38 14:30:10  -244.110870c -5.82  -4.94c
iter:  39 14:32:45  -244.110870c -5.85  -4.95c
Writing to output.gpw (mode='')

iter:  40 14:35:17  -244.110870c -5.95  -4.95c
iter:  41 14:37:41  -244.110871c -6.11  -4.94c
iter:  42 14:40:14  -244.110870c -5.95  -4.89c
iter:  43 14:42:45  -244.110870c -6.31  -4.88c
iter:  44 14:45:15  -244.110870c -6.22  -4.84c
Writing to output.gpw (mode='')

iter:  45 14:47:42  -244.110870c -6.45  -4.84c
iter:  46 14:50:18  -244.110871c -6.42  -4.82c
iter:  47 14:52:47  -244.110871c -6.58  -4.80c
iter:  48 14:55:23  -244.110871c -6.62  -4.75c
iter:  49 14:57:56  -244.110871c -6.75  -4.81c
Writing to output.gpw (mode='')

iter:  50 15:00:28  -244.110869c -6.71  -4.84c
iter:  51 15:02:59  -244.110869c -6.75  -4.92c
iter:  52 15:05:31  -244.110870c -6.79  -5.06c
iter:  53 15:07:56  -244.110869c -7.01  -5.05c
iter:  54 15:10:28  -244.110870c -7.04  -5.16c
Writing to output.gpw (mode='')

iter:  55 15:13:01  -244.110869c -7.35  -5.30c
iter:  56 15:15:37  -244.110870c -7.24  -5.38c
iter:  57 15:18:09  -244.110869c -7.34  -5.71c
iter:  58 15:20:36  -244.110869c -7.55c -5.73c

Converged after 58 iterations.

Dipole moment: (-13.207433, -16.344582, 0.297461) |e|*Ang

Energy contributions relative to reference atoms: (reference = -12990.375485)

Kinetic:       +147.799324
Potential:     -124.565974
External:        +0.000000
XC:            -267.653932
Entropy (-ST):   -0.154243
Local:           +0.386835
--------------------------
Free energy:   -244.187991
Extrapolated:  -244.110869

Dipole-layer corrected work functions: 3.370424, 2.798602 eV

Showing only first 2 kpts
 Kpt  Band  Eigenvalues  Occupancy
  0    25     -3.33729    1.98733
  0    26     -3.23695    1.90945
  0    27     -2.96547    0.16928
  0    28     -2.84907    0.01787

  1    25     -3.13421    1.45976
  1    26     -3.10981    1.24770
  1    27     -3.02958    0.49996
  1    28     -2.97931    0.21738


Fermi level: -3.08451

Gap: 0.036 eV
Transition (v -> c):
  (s=0, k=2, n=26, [0.12, 0.12, 0.00]) -> (s=0, k=7, n=27, [0.38, 0.38, 0.00])
Writing to output.gpw (mode='')


Forces in eV/Ang:
  0 Li    0.01268    0.00143   -0.27683
  1 Li   -0.00850   -0.00293   -0.26622
  2 Li   -0.00243    0.01590   -0.27558
  3 Li   -0.00704   -0.00000   -0.26387
  4 Li    0.00368    0.00000   -0.27776
  5 Li    0.00040   -0.00001   -0.26300
  6 Li    0.01269   -0.00142   -0.27683
  7 Li   -0.00850    0.00293   -0.26623
  8 Li   -0.00244   -0.01589   -0.27558
  9 Li   -0.00341   -0.00000    0.33866
 10 Li    0.00000   -0.00000    0.24736
 11 Li   -0.00037   -0.00000    0.28636
 12 Li   -0.00160    0.01636    0.25597
 13 Li    0.00432   -0.00718    0.26227
 14 Li    0.00028    0.00938    0.26066
 15 Li   -0.00159   -0.01636    0.25598
 16 Li    0.00431    0.00718    0.26227
 17 Li    0.00028   -0.00937    0.26067
 18 Li   -0.00272    0.00787   -0.00075
 19 Li    0.01287   -0.01916    0.06062
 20 Li   -0.00583    0.03553   -0.08228
 21 Li   -0.00002    0.00001    0.05251
 22 Li   -0.00878   -0.00000    0.00717
 23 Li    0.00703    0.00001    0.07758
 24 Li   -0.00270   -0.00788   -0.00079
 25 Li    0.01286    0.01916    0.06062
 26 Li   -0.00582   -0.03553   -0.08233
 27 Li    0.24715    0.00036   -2.22217
 28 Li    0.05571    0.00001   -0.05847
 29 Li    0.24980   -0.00003    0.24450
 30 Li    0.02479    0.10623   -0.06691
 31 Li    0.00116   -0.01036   -0.01669
 32 Li   -0.03628    0.05609   -0.03146
 33 Li    0.02481   -0.10627   -0.06692
 34 Li    0.00118    0.01034   -0.01670
 35 Li   -0.03633   -0.05613   -0.03147
 36 F     5.55085    0.00337   18.90647
 37 H     4.19942    0.00045    2.33443
 38 N    -0.41691   -0.00342  -10.31088
 39 N    -9.80364   -0.00256   -8.73496

System changes: positions 

Initializing position-dependent things.

Density initialized from wave functions
       .-----------------------.  
      /|                       |  
     / |                       |  
    /  |                       |  
   /   |                       |  
  /    |                       |  
 *     |                       |  
 |     |                       |  
 |     |                       |  
 |     |                       |  
 |     |                       |  
 |     |                       |  
 |     |                    N  N  
 |     |                       |  
 |     |               Li      |  
 |     |                       |  
 F H Li|     Li      Li        |  
 |     |  Li      Li      Li   |  
 | Li  |   Li      Li          |  
 |     |Li      Li      Li     |  
 Li    | Li                    |  
 |   LLi     LLi     LLi       |  
 |     |  Li      Li      Li   |  
 | Li  |   Li      Li          |  
 |     |Li      Li      Li     |  
 Li    | Li      Li            |  
 |    Li      Li      Li       |  
 |     |                       |  
 |     |                       |  
 |     |                       |  
 |     |                       |  
 |     |                       |  
 |     |                       |  
 |     .-----------------------.  
 |    /                       /   
 |   /                       /    
 |  /                       /     
 | /                       /      
 |/                       /       
 *-----------------------*        

Positions:
   0 Li     1.617037    1.617037   10.000000    ( 0.0000,  0.0000,  0.0000)
   1 Li     4.851111    1.617037   10.000000    ( 0.0000,  0.0000,  0.0000)
   2 Li     8.085185    1.617037   10.000000    ( 0.0000,  0.0000,  0.0000)
   3 Li     1.617037    4.851111   10.000000    ( 0.0000,  0.0000,  0.0000)
   4 Li     4.851111    4.851111   10.000000    ( 0.0000,  0.0000,  0.0000)
   5 Li     8.085185    4.851111   10.000000    ( 0.0000,  0.0000,  0.0000)
   6 Li     1.617037    8.085185   10.000000    ( 0.0000,  0.0000,  0.0000)
   7 Li     4.851111    8.085185   10.000000    ( 0.0000,  0.0000,  0.0000)
   8 Li     8.085185    8.085185   10.000000    ( 0.0000,  0.0000,  0.0000)
   9 Li     0.000000    0.000000   11.617037    ( 0.0000,  0.0000,  0.0000)
  10 Li     3.234074    0.000000   11.617037    ( 0.0000,  0.0000,  0.0000)
  11 Li     6.468148    0.000000   11.617037    ( 0.0000,  0.0000,  0.0000)
  12 Li     0.000000    3.234074   11.617037    ( 0.0000,  0.0000,  0.0000)
  13 Li     3.234074    3.234074   11.617037    ( 0.0000,  0.0000,  0.0000)
  14 Li     6.468148    3.234074   11.617037    ( 0.0000,  0.0000,  0.0000)
  15 Li     0.000000    6.468148   11.617037    ( 0.0000,  0.0000,  0.0000)
  16 Li     3.234074    6.468148   11.617037    ( 0.0000,  0.0000,  0.0000)
  17 Li     6.468148    6.468148   11.617037    ( 0.0000,  0.0000,  0.0000)
  18 Li     1.617031    1.617074   13.469715    ( 0.0000,  0.0000,  0.0000)
  19 Li     4.851168    1.616953   13.470000    ( 0.0000,  0.0000,  0.0000)
  20 Li     8.085152    1.617197   13.469343    ( 0.0000,  0.0000,  0.0000)
  21 Li     1.617033    4.851111   13.469967    ( 0.0000,  0.0000,  0.0000)
  22 Li     4.851072    4.851111   13.469761    ( 0.0000,  0.0000,  0.0000)
  23 Li     8.085219    4.851111   13.470078    ( 0.0000,  0.0000,  0.0000)
  24 Li     1.617031    8.085148   13.469715    ( 0.0000,  0.0000,  0.0000)
  25 Li     4.851168    8.085269   13.470000    ( 0.0000,  0.0000,  0.0000)
  26 Li     8.085152    8.085025   13.469343    ( 0.0000,  0.0000,  0.0000)
  27 Li     0.001125    0.000002   15.435687    ( 0.0000,  0.0000,  0.0000)
  28 Li     3.234325    0.000000   15.445663    ( 0.0000,  0.0000,  0.0000)
  29 Li     6.469286   -0.000000   15.447077    ( 0.0000,  0.0000,  0.0000)
  30 Li     0.000110    3.234526   15.445664    ( 0.0000,  0.0000,  0.0000)
  31 Li     3.234085    3.234033   15.445860    ( 0.0000,  0.0000,  0.0000)
  32 Li     6.467980    3.234325   15.445802    ( 0.0000,  0.0000,  0.0000)
  33 Li     0.000110    6.467696   15.445664    ( 0.0000,  0.0000,  0.0000)
  34 Li     3.234085    6.468188   15.445860    ( 0.0000,  0.0000,  0.0000)
  35 Li     6.467980    6.467897   15.445802    ( 0.0000,  0.0000,  0.0000)
  36 F      9.724546    9.702236   18.522759    ( 0.0000,  0.0000,  0.0000)
  37 H     10.647003    9.702224   18.455495    ( 0.0000,  0.0000,  0.0000)
  38 N      9.690706    9.701981   17.154450    ( 0.0000,  0.0000,  0.0000)
  39 N      8.575450    9.701986   17.161158    ( 0.0000,  0.0000,  0.0000)

Unit cell:
           periodic     x           y           z      points  spacing
  1. axis:    yes    9.702222    0.000000    0.000000    60     0.1617
  2. axis:    yes    0.000000    9.702222    0.000000    60     0.1617
  3. axis:    no     0.000000    0.000000   26.601111   168     0.1583

  Lengths:   9.702222   9.702222  26.601111
  Angles:   90.000000  90.000000  90.000000

Effective grid spacing dv^(1/3) = 0.1606

     iter     time        total  log10-change:
                         energy  eigst   dens
iter:   1 15:23:37  -245.387975  -0.38
iter:   2 15:26:08  -245.341797  -0.64  -1.59
iter:   3 15:28:38  -245.323839  -1.07  -1.69
iter:   4 15:31:11  -245.291454  -1.09  -2.01
Writing to output.gpw (mode='')

iter:   5 15:33:45  -245.341775  -1.13  -2.12
iter:   6 15:36:11  -245.359005  -1.23  -1.97
iter:   7 15:38:38  -245.279702  -1.43  -1.84
iter:   8 15:41:06  -245.279489  -1.57  -2.35
iter:   9 15:43:39  -245.282327c -2.01  -2.35
Writing to output.gpw (mode='')

iter:  10 15:46:12  -245.283466c -2.29  -2.41
iter:  11 15:48:37  -245.279450c -1.97  -2.38
iter:  12 15:51:09  -245.278952c -2.45  -2.54
iter:  13 15:53:34  -245.279047c -2.68  -2.69
iter:  14 15:56:08  -245.278876c -2.79  -2.80
Writing to output.gpw (mode='')

iter:  15 15:58:47  -245.279253c -2.82  -2.91
iter:  16 16:01:16  -245.279182c -3.01  -2.94
iter:  17 16:03:41  -245.279057c -3.14  -3.11
iter:  18 16:06:10  -245.279198c -3.41  -3.15
iter:  19 16:08:41  -245.279233c -3.83  -3.38
Writing to output.gpw (mode='')

iter:  20 16:11:21  -245.279232c -3.81  -3.48
iter:  21 16:13:50  -245.279288c -3.84  -3.54
iter:  22 16:16:21  -245.279287c -3.97  -3.68
iter:  23 16:18:59  -245.279292c -4.32  -3.70
iter:  24 16:21:38  -245.279304c -4.17  -3.71
Writing to output.gpw (mode='')

iter:  25 16:24:10  -245.279322c -4.12  -3.73
iter:  26 16:26:35  -245.279325c -4.44  -3.87
iter:  27 16:29:12  -245.279323c -4.59  -3.89
iter:  28 16:31:41  -245.279327c -4.66  -3.92
iter:  29 16:34:13  -245.279333c -4.73  -3.98
Writing to output.gpw (mode='')

iter:  30 16:36:47  -245.279328c -4.69  -4.20c
iter:  31 16:39:10  -245.279338c -4.99  -4.19c
iter:  32 16:41:44  -245.279341c -5.00  -4.27c
iter:  33 16:44:13  -245.279347c -5.06  -4.31c
iter:  34 16:46:41  -245.279344c -5.16  -4.49c
Writing to output.gpw (mode='')

iter:  35 16:49:25  -245.279349c -5.29  -4.55c
iter:  36 16:51:54  -245.279351c -5.33  -4.59c
iter:  37 16:54:24  -245.279352c -5.28  -4.64c
iter:  38 16:56:57  -245.279353c -5.64  -4.92c
iter:  39 16:59:21  -245.279353c -5.78  -4.93c
Writing to output.gpw (mode='')

iter:  40 17:01:51  -245.279352c -5.58  -4.92c
iter:  41 17:04:28  -245.279353c -5.82  -4.74c
iter:  42 17:07:00  -245.279355c -5.91  -4.80c
iter:  43 17:09:38  -245.279355c -6.15  -4.90c
iter:  44 17:12:13  -245.279355c -6.00  -4.87c
Writing to output.gpw (mode='')

iter:  45 17:14:44  -245.279357c -6.26  -4.90c
iter:  46 17:17:12  -245.279357c -6.39  -4.98c
iter:  47 17:19:46  -245.279357c -6.29  -5.14c
iter:  48 17:22:12  -245.279357c -6.49  -5.25c
iter:  49 17:24:44  -245.279358c -6.54  -5.32c
Writing to output.gpw (mode='')

iter:  50 17:27:15  -245.279358c -6.82  -5.53c
iter:  51 17:29:47  -245.279358c -6.70  -5.62c
iter:  52 17:32:21  -245.279358c -6.81  -5.66c
iter:  53 17:34:49  -245.279358c -6.80  -5.69c
iter:  54 17:37:28  -245.279358c -6.83  -5.81c
Writing to output.gpw (mode='')

iter:  55 17:39:57  -245.279358c -7.03  -5.83c
iter:  56 17:42:25  -245.279358c -7.04  -5.93c
iter:  57 17:45:01  -245.279358c -7.17  -5.98c
iter:  58 17:47:41  -245.279359c -7.28  -5.98c
iter:  59 17:50:13  -245.279359c -7.19  -6.10c
Writing to output.gpw (mode='')

iter:  60 17:52:48  -245.279359c -7.36  -6.14c
iter:  61 17:55:13  -245.279359c -7.56c -6.15c

Converged after 61 iterations.

Dipole moment: (-12.213992, -16.322285, 0.289472) |e|*Ang

Energy contributions relative to reference atoms: (reference = -12990.375485)

Kinetic:       +146.984739
Potential:     -124.984155
External:        +0.000000
XC:            -267.592175
Entropy (-ST):   -0.153079
Local:           +0.388771
--------------------------
Free energy:   -245.355898
Extrapolated:  -245.279359

Dipole-layer corrected work functions: 3.370732, 2.814267 eV

Showing only first 2 kpts
 Kpt  Band  Eigenvalues  Occupancy
  0    25     -3.34684    1.98772
  0    26     -3.24699    1.91295
  0    27     -2.96311    0.13986
  0    28     -2.85546    0.01731

  1    25     -3.13679    1.41601
  1    26     -3.12060    1.27384
  1    27     -3.03767    0.50077
  1    28     -2.99759    0.26063


Fermi level: -3.09250

Gap: 0.036 eV
Transition (v -> c):
  (s=0, k=2, n=26, [0.12, 0.12, 0.00]) -> (s=0, k=7, n=27, [0.38, 0.38, 0.00])
Writing to output.gpw (mode='')


Forces in eV/Ang:
  0 Li    0.01296    0.00121   -0.27632
  1 Li   -0.00875   -0.00311   -0.26585
  2 Li   -0.00251    0.01684   -0.27488
  3 Li   -0.00761   -0.00000   -0.26380
  4 Li    0.00413    0.00000   -0.27860
  5 Li    0.00031   -0.00001   -0.26316
  6 Li    0.01298   -0.00121   -0.27632
  7 Li   -0.00875    0.00311   -0.26586
  8 Li   -0.00252   -0.01683   -0.27488
  9 Li   -0.00354   -0.00000    0.33969
 10 Li    0.00136   -0.00000    0.24656
 11 Li   -0.00198   -0.00000    0.28493
 12 Li   -0.00130    0.01701    0.25495
 13 Li    0.00449   -0.00697    0.26216
 14 Li   -0.00005    0.01029    0.25927
 15 Li   -0.00129   -0.01701    0.25496
 16 Li    0.00449    0.00697    0.26216
 17 Li   -0.00006   -0.01028    0.25928
 18 Li   -0.00311    0.00830    0.00242
 19 Li    0.01461   -0.01753    0.06149
 20 Li   -0.00769    0.03543   -0.08099
 21 Li    0.00112    0.00001    0.05146
 22 Li   -0.00953   -0.00000    0.00640
 23 Li    0.00714    0.00001    0.07693
 24 Li   -0.00309   -0.00832    0.00238
 25 Li    0.01459    0.01754    0.06149
 26 Li   -0.00769   -0.03543   -0.08105
 27 Li    0.31935    0.00042   -2.47492
 28 Li    0.05952    0.00001   -0.06247
 29 Li    0.19419   -0.00002    0.20268
 30 Li    0.02632    0.10849   -0.07089
 31 Li   -0.00034   -0.01267   -0.01555
 32 Li   -0.03618    0.05609   -0.03499
 33 Li    0.02633   -0.10854   -0.07091
 34 Li   -0.00031    0.01265   -0.01556
 35 Li   -0.03623   -0.05614   -0.03500
 36 F     5.07704    0.00326   17.42372
 37 H     3.35281    0.00041    1.93796
 38 N     0.21457   -0.00242   -9.35923
 39 N    -9.28224   -0.00052   -7.51670

System changes: positions 

Initializing position-dependent things.

Density initialized from wave functions
       .-----------------------.  
      /|                       |  
     / |                       |  
    /  |                       |  
   /   |                       |  
  /    |                       |  
 *     |                       |  
 |     |                       |  
 |     |                       |  
 |     |                       |  
 |     |                       |  
 |     |                       |  
 |     |                    N  N  
 |     |                       |  
 |     |               Li      |  
 |     |                       |  
 F H Li|     Li      Li        |  
 |     |  Li      Li      Li   |  
 | Li  |   Li      Li          |  
 |     |Li      Li      Li     |  
 Li    | Li                    |  
 |   LLi     LLi     LLi       |  
 |     |  Li      Li      Li   |  
 | Li  |   Li      Li          |  
 |     |Li      Li      Li     |  
 Li    | Li      Li            |  
 |    Li      Li      Li       |  
 |     |                       |  
 |     |                       |  
 |     |                       |  
 |     |                       |  
 |     |                       |  
 |     |                       |  
 |     .-----------------------.  
 |    /                       /   
 |   /                       /    
 |  /                       /     
 | /                       /      
 |/                       /       
 *-----------------------*        

Positions:
   0 Li     1.617037    1.617037   10.000000    ( 0.0000,  0.0000,  0.0000)
   1 Li     4.851111    1.617037   10.000000    ( 0.0000,  0.0000,  0.0000)
   2 Li     8.085185    1.617037   10.000000    ( 0.0000,  0.0000,  0.0000)
   3 Li     1.617037    4.851111   10.000000    ( 0.0000,  0.0000,  0.0000)
   4 Li     4.851111    4.851111   10.000000    ( 0.0000,  0.0000,  0.0000)
   5 Li     8.085185    4.851111   10.000000    ( 0.0000,  0.0000,  0.0000)
   6 Li     1.617037    8.085185   10.000000    ( 0.0000,  0.0000,  0.0000)
   7 Li     4.851111    8.085185   10.000000    ( 0.0000,  0.0000,  0.0000)
   8 Li     8.085185    8.085185   10.000000    ( 0.0000,  0.0000,  0.0000)
   9 Li     0.000000    0.000000   11.617037    ( 0.0000,  0.0000,  0.0000)
  10 Li     3.234074    0.000000   11.617037    ( 0.0000,  0.0000,  0.0000)
  11 Li     6.468148    0.000000   11.617037    ( 0.0000,  0.0000,  0.0000)
  12 Li     0.000000    3.234074   11.617037    ( 0.0000,  0.0000,  0.0000)
  13 Li     3.234074    3.234074   11.617037    ( 0.0000,  0.0000,  0.0000)
  14 Li     6.468148    3.234074   11.617037    ( 0.0000,  0.0000,  0.0000)
  15 Li     0.000000    6.468148   11.617037    ( 0.0000,  0.0000,  0.0000)
  16 Li     3.234074    6.468148   11.617037    ( 0.0000,  0.0000,  0.0000)
  17 Li     6.468148    6.468148   11.617037    ( 0.0000,  0.0000,  0.0000)
  18 Li     1.617025    1.617110   13.469735    ( 0.0000,  0.0000,  0.0000)
  19 Li     4.851241    1.616900   13.470247    ( 0.0000,  0.0000,  0.0000)
  20 Li     8.085094    1.617335   13.469006    ( 0.0000,  0.0000,  0.0000)
  21 Li     1.617037    4.851111   13.470163    ( 0.0000,  0.0000,  0.0000)
  22 Li     4.851028    4.851111   13.469775    ( 0.0000,  0.0000,  0.0000)
  23 Li     8.085255    4.851111   13.470375    ( 0.0000,  0.0000,  0.0000)
  24 Li     1.617026    8.085111   13.469735    ( 0.0000,  0.0000,  0.0000)
  25 Li     4.851241    8.085322   13.470247    ( 0.0000,  0.0000,  0.0000)
  26 Li     8.085094    8.084887   13.469006    ( 0.0000,  0.0000,  0.0000)
  27 Li     0.003066    0.000004   15.423110    ( 0.0000,  0.0000,  0.0000)
  28 Li     3.234595    0.000000   15.445354    ( 0.0000,  0.0000,  0.0000)
  29 Li     6.469577   -0.000000   15.447575    ( 0.0000,  0.0000,  0.0000)
  30 Li     0.000224    3.234922   15.445401    ( 0.0000,  0.0000,  0.0000)
  31 Li     3.234076    3.233970   15.445803    ( 0.0000,  0.0000,  0.0000)
  32 Li     6.467833    3.234538   15.445643    ( 0.0000,  0.0000,  0.0000)
  33 Li     0.000224    6.467299   15.445400    ( 0.0000,  0.0000,  0.0000)
  34 Li     3.234076    6.468252   15.445803    ( 0.0000,  0.0000,  0.0000)
  35 Li     6.467833    6.467683   15.445643    ( 0.0000,  0.0000,  0.0000)
  36 F      9.734920    9.702245   18.561391    ( 0.0000,  0.0000,  0.0000)
  37 H     10.648453    9.702225   18.457633    ( 0.0000,  0.0000,  0.0000)
  38 N      9.678175    9.701974   17.136065    ( 0.0000,  0.0000,  0.0000)
  39 N      8.572289    9.701998   17.151688    ( 0.0000,  0.0000,  0.0000)

Unit cell:
           periodic     x           y           z      points  spacing
  1. axis:    yes    9.702222    0.000000    0.000000    60     0.1617
  2. axis:    yes    0.000000    9.702222    0.000000    60     0.1617
  3. axis:    no     0.000000    0.000000   26.601111   168     0.1583

  Lengths:   9.702222   9.702222  26.601111
  Angles:   90.000000  90.000000  90.000000

Effective grid spacing dv^(1/3) = 0.1606

     iter     time        total  log10-change:
                         energy  eigst   dens
iter:   1 17:58:24  -246.323092  -0.53
iter:   2 18:00:47  -246.306763  -0.84  -1.71
iter:   3 18:03:17  -246.299951c -1.27  -1.83
iter:   4 18:05:43  -246.297601c -1.38  -2.15
Writing to output.gpw (mode='')

iter:   5 18:08:21  -246.320542c -1.32  -2.21
iter:   6 18:10:46  -246.328429  -1.43  -1.90
iter:   7 18:13:14  -246.277752  -1.75  -1.90
iter:   8 18:15:48  -246.273467  -1.53  -2.26
iter:   9 18:18:15  -246.274309c -1.86  -2.27
Writing to output.gpw (mode='')

iter:  10 18:20:38  -246.271921c -2.18  -2.56
iter:  11 18:23:09  -246.272060c -2.71  -2.71
iter:  12 18:25:38  -246.271834c -2.70  -2.74
iter:  13 18:28:11  -246.272001c -2.99  -2.82
iter:  14 18:30:41  -246.272189c -2.80  -2.95
Writing to output.gpw (mode='')

iter:  15 18:33:09  -246.272059c -3.30  -3.05
iter:  16 18:35:32  -246.272209c -3.59  -3.15
iter:  17 18:37:59  -246.272138c -3.47  -3.15
iter:  18 18:40:23  -246.272199c -3.82  -3.39
iter:  19 18:42:43  -246.272207c -3.77  -3.50
Writing to output.gpw (mode='')

iter:  20 18:45:11  -246.272199c -3.82  -3.58
iter:  21 18:47:47  -246.272220c -4.02  -3.61
iter:  22 18:50:15  -246.272237c -4.07  -3.76
iter:  23 18:52:55  -246.272239c -4.42  -3.81
iter:  24 18:55:24  -246.272259c -4.29  -3.92
Writing to output.gpw (mode='')

iter:  25 18:57:50  -246.272270c -4.61  -3.89
iter:  26 19:00:20  -246.272271c -4.66  -4.06c
iter:  27 19:02:52  -246.272271c -4.62  -4.16c
iter:  28 19:05:14  -246.272280c -4.63  -4.37c
iter:  29 19:07:39  -246.272281c -4.94  -4.43c
Writing to output.gpw (mode='')

iter:  30 19:10:07  -246.272284c -4.88  -4.54c
iter:  31 19:12:42  -246.272286c -5.05  -4.59c
iter:  32 19:15:20  -246.272289c -4.91  -4.60c
iter:  33 19:17:53  -246.272291c -5.24  -4.66c
iter:  34 19:20:24  -246.272292c -5.27  -4.70c
Writing to output.gpw (mode='')

iter:  35 19:22:54  -246.272293c -5.48  -4.80c
iter:  36 19:25:30  -246.272294c -5.39  -4.85c
iter:  37 19:28:02  -246.272295c -5.46  -4.91c
iter:  38 19:30:30  -246.272296c -5.60  -4.98c
iter:  39 19:32:55  -246.272297c -5.70  -5.05c
Writing to output.gpw (mode='')

iter:  40 19:35:25  -246.272297c -5.79  -5.10c
iter:  41 19:37:53  -246.272298c -5.73  -5.14c
iter:  42 19:40:30  -246.272299c -5.84  -5.24c
iter:  43 19:43:01  -246.272300c -6.13  -5.49c
iter:  44 19:45:28  -246.272300c -6.05  -5.50c
Writing to output.gpw (mode='')

iter:  45 19:47:54  -246.272300c -5.92  -5.54c
iter:  46 19:50:20  -246.272300c -6.08  -5.54c
iter:  47 19:52:47  -246.272300c -5.94  -5.49c
iter:  48 19:55:25  -246.272300c -6.29  -5.39c
iter:  49 19:57:49  -246.272300c -6.37  -5.36c
Writing to output.gpw (mode='')

iter:  50 20:00:16  -246.272300c -6.22  -5.33c
iter:  51 20:02:42  -246.272301c -6.12  -5.29c
iter:  52 20:05:15  -246.272301c -6.28  -5.24c
iter:  53 20:07:50  -246.272301c -6.34  -5.22c
iter:  54 20:10:19  -246.272301c -6.54  -5.18c
Writing to output.gpw (mode='')

iter:  55 20:12:47  -246.272301c -6.58  -5.12c
iter:  56 20:15:21  -246.272301c -6.76  -5.11c
iter:  57 20:18:02  -246.272302c -6.93  -5.17c
iter:  58 20:20:38  -246.272303c -6.83  -5.23c
iter:  59 20:23:06  -246.272304c -7.05  -5.30c
Writing to output.gpw (mode='')

iter:  60 20:25:45  -246.272304c -6.83  -5.25c
iter:  61 20:28:19  -246.272304c -7.01  -5.34c
iter:  62 20:30:50  -246.272304c -7.24  -5.33c
iter:  63 20:33:24  -246.272304c -7.14  -5.46c
iter:  64 20:35:56  -246.272304c -7.00  -5.47c
Writing to output.gpw (mode='')

iter:  65 20:38:29  -246.272304c -7.04  -5.53c
iter:  66 20:40:57  -246.272304c -7.16  -5.72c
iter:  67 20:43:33  -246.272304c -7.55c -5.81c

Converged after 67 iterations.

Dipole moment: (-11.682807, -16.309702, 0.272187) |e|*Ang

Energy contributions relative to reference atoms: (reference = -12990.375485)

Kinetic:       +145.862789
Potential:     -124.915960
External:        +0.000000
XC:            -267.533200
Entropy (-ST):   -0.152621
Local:           +0.390378
--------------------------
Free energy:   -246.348615
Extrapolated:  -246.272304

Dipole-layer corrected work functions: 3.373128, 2.849892 eV

Showing only first 2 kpts
 Kpt  Band  Eigenvalues  Occupancy
  0    25     -3.36711    1.98802
  0    26     -3.26708    1.91472
  0    27     -2.97746    0.12822
  0    28     -2.87280    0.01675

  1    25     -3.15303    1.39285
  1    26     -3.13930    1.27101
  1    27     -3.05450    0.48457
  1    28     -3.02549    0.30364


Fermi level: -3.11151

Gap: 0.034 eV
Transition (v -> c):
  (s=0, k=2, n=26, [0.12, 0.12, 0.00]) -> (s=0, k=7, n=27, [0.38, 0.38, 0.00])
Writing to output.gpw (mode='')


Forces in eV/Ang:
  0 Li    0.01348    0.00115   -0.27602
  1 Li   -0.00907   -0.00353   -0.26554
  2 Li   -0.00274    0.01751   -0.27452
  3 Li   -0.00804   -0.00000   -0.26380
  4 Li    0.00433    0.00000   -0.27992
  5 Li    0.00047   -0.00001   -0.26364
  6 Li    0.01349   -0.00115   -0.27602
  7 Li   -0.00907    0.00353   -0.26554
  8 Li   -0.00274   -0.01750   -0.27452
  9 Li   -0.00325   -0.00000    0.34099
 10 Li    0.00272   -0.00000    0.24562
 11 Li   -0.00403   -0.00000    0.28275
 12 Li   -0.00103    0.01727    0.25430
 13 Li    0.00473   -0.00612    0.26136
 14 Li   -0.00046    0.01055    0.25837
 15 Li   -0.00103   -0.01727    0.25431
 16 Li    0.00473    0.00612    0.26136
 17 Li   -0.00046   -0.01054    0.25838
 18 Li   -0.00176    0.01012    0.00292
 19 Li    0.01513   -0.01588    0.06215
 20 Li   -0.00989    0.03413   -0.07912
 21 Li    0.00171    0.00001    0.05075
 22 Li   -0.00994   -0.00001    0.00624
 23 Li    0.00718    0.00001    0.07562
 24 Li   -0.00174   -0.01013    0.00288
 25 Li    0.01512    0.01589    0.06215
 26 Li   -0.00989   -0.03413   -0.07918
 27 Li    0.36403    0.00044   -2.59934
 28 Li    0.06174    0.00001   -0.06753
 29 Li    0.14969   -0.00001    0.17033
 30 Li    0.02712    0.10725   -0.07229
 31 Li   -0.00122   -0.01373   -0.01611
 32 Li   -0.03597    0.05484   -0.03724
 33 Li    0.02714   -0.10730   -0.07231
 34 Li   -0.00119    0.01371   -0.01612
 35 Li   -0.03602   -0.05488   -0.03725
 36 F     4.46197    0.00292   15.99330
 37 H     2.99717    0.00035    1.61467
 38 N     0.51963   -0.00189   -8.53012
 39 N    -8.53873    0.00041   -6.44842

System changes: positions 

Initializing position-dependent things.

Density initialized from wave functions
       .-----------------------.  
      /|                       |  
     / |                       |  
    /  |                       |  
   /   |                       |  
  /    |                       |  
 *     |                       |  
 |     |                       |  
 |     |                       |  
 |     |                       |  
 |     |                       |  
 |     |                       |  
 |     |                    N  N  
 |     |                       |  
 |     |               Li      |  
 |     |                       |  
 F H Li|     Li      Li        |  
 |     |  Li      Li      Li   |  
 | Li  |   Li      Li          |  
 |     |Li      Li      Li     |  
 Li    | Li                    |  
 |   LLi     LLi     LLi       |  
 |     |  Li      Li      Li   |  
 | Li  |   Li      Li          |  
 |     |Li      Li      Li     |  
 Li    | Li      Li            |  
 |    Li      Li      Li       |  
 |     |                       |  
 |     |                       |  
 |     |                       |  
 |     |                       |  
 |     |                       |  
 |     |                       |  
 |     .-----------------------.  
 |    /                       /   
 |   /                       /    
 |  /                       /     
 | /                       /      
 |/                       /       
 *-----------------------*        

Positions:
   0 Li     1.617037    1.617037   10.000000    ( 0.0000,  0.0000,  0.0000)
   1 Li     4.851111    1.617037   10.000000    ( 0.0000,  0.0000,  0.0000)
   2 Li     8.085185    1.617037   10.000000    ( 0.0000,  0.0000,  0.0000)
   3 Li     1.617037    4.851111   10.000000    ( 0.0000,  0.0000,  0.0000)
   4 Li     4.851111    4.851111   10.000000    ( 0.0000,  0.0000,  0.0000)
   5 Li     8.085185    4.851111   10.000000    ( 0.0000,  0.0000,  0.0000)
   6 Li     1.617037    8.085185   10.000000    ( 0.0000,  0.0000,  0.0000)
   7 Li     4.851111    8.085185   10.000000    ( 0.0000,  0.0000,  0.0000)
   8 Li     8.085185    8.085185   10.000000    ( 0.0000,  0.0000,  0.0000)
   9 Li     0.000000    0.000000   11.617037    ( 0.0000,  0.0000,  0.0000)
  10 Li     3.234074    0.000000   11.617037    ( 0.0000,  0.0000,  0.0000)
  11 Li     6.468148    0.000000   11.617037    ( 0.0000,  0.0000,  0.0000)
  12 Li     0.000000    3.234074   11.617037    ( 0.0000,  0.0000,  0.0000)
  13 Li     3.234074    3.234074   11.617037    ( 0.0000,  0.0000,  0.0000)
  14 Li     6.468148    3.234074   11.617037    ( 0.0000,  0.0000,  0.0000)
  15 Li     0.000000    6.468148   11.617037    ( 0.0000,  0.0000,  0.0000)
  16 Li     3.234074    6.468148   11.617037    ( 0.0000,  0.0000,  0.0000)
  17 Li     6.468148    6.468148   11.617037    ( 0.0000,  0.0000,  0.0000)
  18 Li     1.617036    1.617182   13.469761    ( 0.0000,  0.0000,  0.0000)
  19 Li     4.851334    1.616849   13.470569    ( 0.0000,  0.0000,  0.0000)
  20 Li     8.084998    1.617494   13.468604    ( 0.0000,  0.0000,  0.0000)
  21 Li     1.617050    4.851111   13.470407    ( 0.0000,  0.0000,  0.0000)
  22 Li     4.850969    4.851111   13.469795    ( 0.0000,  0.0000,  0.0000)
  23 Li     8.085300    4.851111   13.470739    ( 0.0000,  0.0000,  0.0000)
  24 Li     1.617036    8.085040   13.469760    ( 0.0000,  0.0000,  0.0000)
  25 Li     4.851334    8.085373   13.470569    ( 0.0000,  0.0000,  0.0000)
  26 Li     8.084998    8.084728   13.468603    ( 0.0000,  0.0000,  0.0000)
  27 Li     0.005899    0.000007   15.406356    ( 0.0000,  0.0000,  0.0000)
  28 Li     3.234958    0.000000   15.444910    ( 0.0000,  0.0000,  0.0000)
  29 Li     6.469524   -0.000000   15.447894    ( 0.0000,  0.0000,  0.0000)
  30 Li     0.000376    3.235417   15.445045    ( 0.0000,  0.0000,  0.0000)
  31 Li     3.234056    3.233880   15.445720    ( 0.0000,  0.0000,  0.0000)
  32 Li     6.467649    3.234796   15.445419    ( 0.0000,  0.0000,  0.0000)
  33 Li     0.000377    6.466804   15.445045    ( 0.0000,  0.0000,  0.0000)
  34 Li     3.234057    6.468341   15.445719    ( 0.0000,  0.0000,  0.0000)
  35 Li     6.467648    6.467425   15.445419    ( 0.0000,  0.0000,  0.0000)
  36 F      9.742713    9.702253   18.600624    ( 0.0000,  0.0000,  0.0000)
  37 H     10.649577    9.702225   18.457810    ( 0.0000,  0.0000,  0.0000)
  38 N      9.669059    9.701971   17.118034    ( 0.0000,  0.0000,  0.0000)
  39 N      8.569229    9.702019   17.147632    ( 0.0000,  0.0000,  0.0000)

Unit cell:
           periodic     x           y           z      points  spacing
  1. axis:    yes    9.702222    0.000000    0.000000    60     0.1617
  2. axis:    yes    0.000000    9.702222    0.000000    60     0.1617
  3. axis:    no     0.000000    0.000000   26.601111   168     0.1583

  Lengths:   9.702222   9.702222  26.601111
  Angles:   90.000000  90.000000  90.000000

Effective grid spacing dv^(1/3) = 0.1606

     iter     time        total  log10-change:
                         energy  eigst   dens
iter:   1 20:46:44  -247.166284  -0.62
iter:   2 20:49:17  -247.166944  -1.04  -1.91
iter:   3 20:51:45  -247.165476c -1.38  -2.01
iter:   4 20:54:12  -247.174404c -1.48  -2.25
Writing to output.gpw (mode='')

iter:   5 20:56:42  -247.150043c -1.73  -2.20
iter:   6 20:59:13  -247.153708c -2.14  -2.35
iter:   7 21:01:44  -247.144500c -2.15  -2.37
iter:   8 21:04:11  -247.143174c -2.21  -2.50
iter:   9 21:06:47  -247.142638c -2.45  -2.47
Writing to output.gpw (mode='')

iter:  10 21:09:24  -247.142715c -2.44  -2.71
iter:  11 21:12:01  -247.142641c -2.86  -2.75
iter:  12 21:14:28  -247.142649c -3.01  -3.00
iter:  13 21:16:58  -247.142628c -3.39  -3.07
iter:  14 21:19:36  -247.142572c -3.34  -3.15
Writing to output.gpw (mode='')

iter:  15 21:22:07  -247.142627c -3.52  -3.36
iter:  16 21:24:44  -247.142662c -3.87  -3.45
iter:  17 21:27:15  -247.142712c -4.01  -3.50
iter:  18 21:29:38  -247.142708c -3.88  -3.54
iter:  19 21:32:10  -247.142722c -4.30  -3.62
Writing to output.gpw (mode='')

iter:  20 21:34:42  -247.142735c -4.09  -3.68
iter:  21 21:37:14  -247.142746c -4.32  -3.74
iter:  22 21:39:39  -247.142759c -4.45  -3.79
iter:  23 21:42:06  -247.142764c -4.33  -4.09c
iter:  24 21:44:39  -247.142767c -4.61  -4.14c
Writing to output.gpw (mode='')

iter:  25 21:47:15  -247.142770c -4.86  -4.23c
iter:  26 21:49:45  -247.142774c -4.90  -4.31c
iter:  27 21:52:16  -247.142775c -5.04  -4.29c
iter:  28 21:54:40  -247.142773c -4.83  -4.26c
iter:  29 21:57:12  -247.142775c -4.83  -4.19c
Writing to output.gpw (mode='')

iter:  30 21:59:38  -247.142780c -4.92  -4.24c
iter:  31 22:02:07  -247.142782c -5.23  -4.37c
iter:  32 22:04:40  -247.142788c -5.13  -4.42c
iter:  33 22:07:13  -247.142789c -5.46  -4.50c
iter:  34 22:09:52  -247.142791c -5.28  -4.53c
Writing to output.gpw (mode='')

iter:  35 22:12:24  -247.142792c -5.29  -4.61c
iter:  36 22:15:00  -247.142796c -5.56  -4.60c
iter:  37 22:17:24  -247.142795c -5.76  -4.77c
iter:  38 22:19:54  -247.142795c -5.95  -4.80c
iter:  39 22:22:24  -247.142794c -5.70  -4.96c
Writing to output.gpw (mode='')

iter:  40 22:24:58  -247.142795c -5.86  -5.01c
iter:  41 22:27:27  -247.142795c -5.93  -5.11c
iter:  42 22:30:05  -247.142795c -5.89  -5.20c
iter:  43 22:32:31  -247.142796c -6.09  -5.19c
iter:  44 22:35:05  -247.142796c -6.13  -5.29c
Writing to output.gpw (mode='')

iter:  45 22:37:33  -247.142796c -6.20  -5.34c
iter:  46 22:40:11  -247.142796c -6.29  -5.47c
iter:  47 22:42:43  -247.142797c -6.35  -5.56c
iter:  48 22:45:08  -247.142797c -6.50  -5.69c
iter:  49 22:47:39  -247.142797c -6.53  -5.74c
Writing to output.gpw (mode='')

iter:  50 22:50:16  -247.142797c -6.41  -5.78c
iter:  51 22:52:57  -247.142797c -6.55  -5.79c
iter:  52 22:55:32  -247.142797c -6.64  -5.67c
iter:  53 22:58:03  -247.142797c -6.56  -5.67c
iter:  54 23:00:39  -247.142797c -6.88  -5.63c
Writing to output.gpw (mode='')

iter:  55 23:03:17  -247.142797c -6.90  -5.57c
iter:  56 23:05:55  -247.142797c -6.85  -5.58c
iter:  57 23:08:25  -247.142797c -6.92  -5.53c
iter:  58 23:10:51  -247.142797c -6.96  -5.51c
iter:  59 23:13:28  -247.142797c -7.04  -5.47c
Writing to output.gpw (mode='')

iter:  60 23:16:06  -247.142797c -7.09  -5.39c
iter:  61 23:18:33  -247.142797c -7.26  -5.41c
iter:  62 23:20:59  -247.142797c -7.26  -5.39c
iter:  63 23:23:00  -247.142797c -7.23  -5.41c
iter:  64 23:23:51  -247.142798c -7.37  -5.33c
Writing to output.gpw (mode='')

iter:  65 23:24:47  -247.142797c -7.47c -5.32c

Converged after 65 iterations.

Dipole moment: (-11.253391, -16.302735, 0.242922) |e|*Ang

Energy contributions relative to reference atoms: (reference = -12990.375485)

Kinetic:       +144.270708
Potential:     -124.334539
External:        +0.000000
XC:            -267.394409
Entropy (-ST):   -0.152403
Local:           +0.391645
--------------------------
Free energy:   -247.218999
Extrapolated:  -247.142797

Dipole-layer corrected work functions: 3.376281, 2.909302 eV

Showing only first 2 kpts
 Kpt  Band  Eigenvalues  Occupancy
  0    25     -3.39952    1.98829
  0    26     -3.29901    1.91577
  0    27     -3.00556    0.12077
  0    28     -2.90332    0.01650

  1    25     -3.18288    1.38067
  1    26     -3.16852    1.25173
  1    27     -3.08287    0.46347
  1    28     -3.06455    0.34590


Fermi level: -3.14279

Gap: 0.030 eV
Transition (v -> c):
  (s=0, k=2, n=26, [0.12, 0.12, 0.00]) -> (s=0, k=7, n=27, [0.38, 0.38, 0.00])

Forces in eV/Ang:
  0 Li    0.01394    0.00113   -0.27586
  1 Li   -0.00927   -0.00400   -0.26524
  2 Li   -0.00304    0.01791   -0.27435
  3 Li   -0.00839   -0.00000   -0.26366
  4 Li    0.00459    0.00000   -0.28130
  5 Li    0.00064   -0.00001   -0.26432
  6 Li    0.01395   -0.00113   -0.27586
  7 Li   -0.00927    0.00400   -0.26524
  8 Li   -0.00305   -0.01791   -0.27435
  9 Li   -0.00269   -0.00000    0.34214
 10 Li    0.00397   -0.00000    0.24528
 11 Li   -0.00616   -0.00000    0.28007
 12 Li   -0.00090    0.01720    0.25400
 13 Li    0.00507   -0.00475    0.26023
 14 Li   -0.00085    0.01050    0.25764
 15 Li   -0.00090   -0.01720    0.25401
 16 Li    0.00506    0.00475    0.26023
 17 Li   -0.00085   -0.01049    0.25765
 18 Li    0.00087    0.01311    0.00125
 19 Li    0.01495   -0.01412    0.06226
 20 Li   -0.01234    0.03222   -0.07665
 21 Li    0.00204    0.00001    0.05020
 22 Li   -0.01011   -0.00001    0.00667
 23 Li    0.00704    0.00001    0.07391
 24 Li    0.00088   -0.01312    0.00120
 25 Li    0.01495    0.01412    0.06227
 26 Li   -0.01234   -0.03222   -0.07670
 27 Li    0.38514    0.00045   -2.63990
 28 Li    0.06224    0.00001   -0.07124
 29 Li    0.11344   -0.00001    0.14373
 30 Li    0.02749    0.10426   -0.07224
 31 Li   -0.00181   -0.01417   -0.01730
 32 Li   -0.03566    0.05312   -0.03879
 33 Li    0.02750   -0.10432   -0.07226
 34 Li   -0.00178    0.01415   -0.01732
 35 Li   -0.03571   -0.05317   -0.03880
 36 F     3.90693    0.00249   14.57923
 37 H     2.59436    0.00030    1.35163
 38 N     0.80020   -0.00201   -7.64859
 39 N    -7.81826    0.00085   -5.54613

System changes: positions 

Initializing position-dependent things.

Density initialized from wave functions
       .-----------------------.  
      /|                       |  
     / |                       |  
    /  |                       |  
   /   |                       |  
  /    |                       |  
 *     |                       |  
 |     |                       |  
 |     |                       |  
 |     |                       |  
 |     |                       |  
 |     |                       |  
 |     |                    N  N  
 |     |                       |  
 |     |                       |  
 |     |                       |  
 F H Li|     Li      Li        |  
 |     |  Li      Li      Li   |  
 | Li  |   Li      Li          |  
 |     |Li      Li      Li     |  
 Li    | Li      Li            |  
 |   LLi     LLi     LLi       |  
 |     |  Li      Li      Li   |  
 | Li  |   Li      Li          |  
 |     |Li      Li      Li     |  
 Li    | Li      Li            |  
 |    Li      Li      Li       |  
 |     |                       |  
 |     |                       |  
 |     |                       |  
 |     |                       |  
 |     |                       |  
 |     |                       |  
 |     .-----------------------.  
 |    /                       /   
 |   /                       /    
 |  /                       /     
 | /                       /      
 |/                       /       
 *-----------------------*        

Positions:
   0 Li     1.617037    1.617037   10.000000    ( 0.0000,  0.0000,  0.0000)
   1 Li     4.851111    1.617037   10.000000    ( 0.0000,  0.0000,  0.0000)
   2 Li     8.085185    1.617037   10.000000    ( 0.0000,  0.0000,  0.0000)
   3 Li     1.617037    4.851111   10.000000    ( 0.0000,  0.0000,  0.0000)
   4 Li     4.851111    4.851111   10.000000    ( 0.0000,  0.0000,  0.0000)
   5 Li     8.085185    4.851111   10.000000    ( 0.0000,  0.0000,  0.0000)
   6 Li     1.617037    8.085185   10.000000    ( 0.0000,  0.0000,  0.0000)
   7 Li     4.851111    8.085185   10.000000    ( 0.0000,  0.0000,  0.0000)
   8 Li     8.085185    8.085185   10.000000    ( 0.0000,  0.0000,  0.0000)
   9 Li     0.000000    0.000000   11.617037    ( 0.0000,  0.0000,  0.0000)
  10 Li     3.234074    0.000000   11.617037    ( 0.0000,  0.0000,  0.0000)
  11 Li     6.468148    0.000000   11.617037    ( 0.0000,  0.0000,  0.0000)
  12 Li     0.000000    3.234074   11.617037    ( 0.0000,  0.0000,  0.0000)
  13 Li     3.234074    3.234074   11.617037    ( 0.0000,  0.0000,  0.0000)
  14 Li     6.468148    3.234074   11.617037    ( 0.0000,  0.0000,  0.0000)
  15 Li     0.000000    6.468148   11.617037    ( 0.0000,  0.0000,  0.0000)
  16 Li     3.234074    6.468148   11.617037    ( 0.0000,  0.0000,  0.0000)
  17 Li     6.468148    6.468148   11.617037    ( 0.0000,  0.0000,  0.0000)
  18 Li     1.617082    1.617305   13.469761    ( 0.0000,  0.0000,  0.0000)
  19 Li     4.851440    1.616802   13.470961    ( 0.0000,  0.0000,  0.0000)
  20 Li     8.084860    1.617665   13.468145    ( 0.0000,  0.0000,  0.0000)
  21 Li     1.617066    4.851111   13.470702    ( 0.0000,  0.0000,  0.0000)
  22 Li     4.850897    4.851111   13.469829    ( 0.0000,  0.0000,  0.0000)
  23 Li     8.085351    4.851111   13.471165    ( 0.0000,  0.0000,  0.0000)
  24 Li     1.617083    8.084917   13.469760    ( 0.0000,  0.0000,  0.0000)
  25 Li     4.851440    8.085420   13.470961    ( 0.0000,  0.0000,  0.0000)
  26 Li     8.084860    8.084557   13.468144    ( 0.0000,  0.0000,  0.0000)
  27 Li     0.009317    0.000011   15.386510    ( 0.0000,  0.0000,  0.0000)
  28 Li     3.235390    0.000000   15.444345    ( 0.0000,  0.0000,  0.0000)
  29 Li     6.469226    0.000000   15.448102    ( 0.0000,  0.0000,  0.0000)
  30 Li     0.000562    3.235986   15.444617    ( 0.0000,  0.0000,  0.0000)
  31 Li     3.234030    3.233773   15.445600    ( 0.0000,  0.0000,  0.0000)
  32 Li     6.467429    3.235091   15.445137    ( 0.0000,  0.0000,  0.0000)
  33 Li     0.000562    6.466234   15.444617    ( 0.0000,  0.0000,  0.0000)
  34 Li     3.234030    6.468449   15.445600    ( 0.0000,  0.0000,  0.0000)
  35 Li     6.467428    6.467130   15.445137    ( 0.0000,  0.0000,  0.0000)
  36 F      9.748564    9.702258   18.640194    ( 0.0000,  0.0000,  0.0000)
  37 H     10.649487    9.702226   18.456746    ( 0.0000,  0.0000,  0.0000)
  38 N      9.663154    9.701962   17.101433    ( 0.0000,  0.0000,  0.0000)
  39 N      8.566221    9.702044   17.147068    ( 0.0000,  0.0000,  0.0000)

Unit cell:
           periodic     x           y           z      points  spacing
  1. axis:    yes    9.702222    0.000000    0.000000    60     0.1617
  2. axis:    yes    0.000000    9.702222    0.000000    60     0.1617
  3. axis:    no     0.000000    0.000000   26.601111   168     0.1583

  Lengths:   9.702222   9.702222  26.601111
  Angles:   90.000000  90.000000  90.000000

Effective grid spacing dv^(1/3) = 0.1606

     iter     time        total  log10-change:
                         energy  eigst   dens
iter:   1 23:25:59  -247.913495  -0.73
iter:   2 23:26:50  -247.919672  -1.22  -2.21
iter:   3 23:27:41  -247.923463c -1.45  -2.29
iter:   4 23:28:32  -247.936268c -1.34  -2.29
Writing to output.gpw (mode='')

iter:   5 23:29:24  -247.916964c -1.92  -2.16
iter:   6 23:30:15  -247.909174  -1.92  -2.28
iter:   7 23:31:06  -247.905005c -2.07  -2.45
iter:   8 23:31:56  -247.904845c -2.10  -2.51
iter:   9 23:32:47  -247.904937c -2.62  -2.70
Writing to output.gpw (mode='')

iter:  10 23:33:40  -247.904970c -2.50  -2.87
iter:  11 23:34:30  -247.904779c -2.88  -2.97
iter:  12 23:35:21  -247.904767c -3.09  -2.93
iter:  13 23:36:12  -247.904747c -3.52  -3.12
iter:  14 23:37:04  -247.904778c -3.45  -3.21
Writing to output.gpw (mode='')

iter:  15 23:37:56  -247.904857c -3.53  -3.29
iter:  16 23:38:47  -247.904851c -4.05  -3.24
iter:  17 23:39:38  -247.904849c -3.62  -3.30
iter:  18 23:40:29  -247.904889c -4.19  -3.72
iter:  19 23:41:20  -247.904906c -4.11  -3.64
Writing to output.gpw (mode='')

iter:  20 23:42:12  -247.904918c -4.32  -3.62
iter:  21 23:43:03  -247.904918c -4.20  -3.69
iter:  22 23:43:54  -247.904922c -4.58  -4.03c
iter:  23 23:44:45  -247.904925c -4.66  -4.05c
iter:  24 23:45:36  -247.904929c -4.37  -4.08c
Writing to output.gpw (mode='')

iter:  25 23:46:32  -247.904933c -4.48  -4.18c
iter:  26 23:47:23  -247.904940c -4.57  -4.30c
iter:  27 23:48:14  -247.904944c -4.70  -4.28c
iter:  28 23:49:05  -247.904942c -4.70  -4.19c
iter:  29 23:49:56  -247.904944c -4.83  -4.27c
Writing to output.gpw (mode='')

iter:  30 23:50:48  -247.904946c -4.99  -4.22c
iter:  31 23:51:39  -247.904951c -4.94  -4.24c
iter:  32 23:52:31  -247.904951c -5.35  -4.34c
iter:  33 23:53:22  -247.904950c -5.07  -4.30c
iter:  34 23:54:13  -247.904953c -5.39  -4.29c
Writing to output.gpw (mode='')

iter:  35 23:55:04  -247.904955c -5.49  -4.41c
iter:  36 23:55:56  -247.904960c -5.25  -4.43c
iter:  37 23:56:46  -247.904960c -5.29  -4.43c
iter:  38 23:57:38  -247.904963c -5.63  -4.35c
iter:  39 23:58:29  -247.904964c -5.63  -4.47c
Writing to output.gpw (mode='')

iter:  40 23:59:22  -247.904966c -5.61  -4.52c
iter:  41 00:00:13  -247.904969c -5.78  -4.56c
iter:  42 00:01:04  -247.904973c -5.87  -4.59c
iter:  43 00:01:55  -247.904969c -5.89  -4.63c
iter:  44 00:02:46  -247.904969c -5.98  -4.74c
Writing to output.gpw (mode='')

iter:  45 00:03:42  -247.904971c -6.09  -4.91c
iter:  46 00:04:33  -247.904972c -6.02  -4.96c
iter:  47 00:05:24  -247.904971c -6.06  -5.06c
iter:  48 00:06:15  -247.904971c -6.24  -5.16c
iter:  49 00:07:06  -247.904971c -6.04  -5.34c
Writing to output.gpw (mode='')

iter:  50 00:07:58  -247.904971c -6.34  -5.50c
iter:  51 00:08:49  -247.904971c -6.35  -5.50c
iter:  52 00:09:41  -247.904971c -6.41  -5.55c
iter:  53 00:10:31  -247.904971c -6.54  -5.50c
iter:  54 00:11:22  -247.904971c -6.53  -5.51c
Writing to output.gpw (mode='')

iter:  55 00:12:15  -247.904971c -6.61  -5.46c
iter:  56 00:13:06  -247.904971c -6.84  -5.50c
iter:  57 00:13:57  -247.904971c -6.49  -5.47c
iter:  58 00:14:48  -247.904971c -6.72  -5.36c
iter:  59 00:15:39  -247.904971c -6.92  -5.33c
Writing to output.gpw (mode='')

iter:  60 00:16:35  -247.904971c -6.82  -5.37c
iter:  61 00:17:26  -247.904972c -6.72  -5.32c
iter:  62 00:18:17  -247.904972c -6.79  -5.34c
iter:  63 00:19:08  -247.904972c -7.13  -5.31c
iter:  64 00:19:59  -247.904972c -7.18  -5.29c
Writing to output.gpw (mode='')

iter:  65 00:20:51  -247.904973c -7.03  -5.32c
iter:  66 00:21:42  -247.904973c -7.24  -5.20c
iter:  67 00:22:33  -247.904973c -7.10  -5.35c
iter:  68 00:23:25  -247.904973c -7.39  -5.49c
iter:  69 00:24:16  -247.904973c -7.32  -5.65c
Writing to output.gpw (mode='')

iter:  70 00:25:08  -247.904973c -7.34  -5.63c
iter:  71 00:25:59  -247.904973c -7.35  -5.72c
iter:  72 00:26:50  -247.904973c -7.61c -5.91c

Converged after 72 iterations.

Dipole moment: (-11.012602, -16.298900, 0.206306) |e|*Ang

Energy contributions relative to reference atoms: (reference = -12990.375485)

Kinetic:       +142.186858
Potential:     -123.238838
External:        +0.000000
XC:            -267.170943
Entropy (-ST):   -0.152257
Local:           +0.394078
--------------------------
Free energy:   -247.981102
Extrapolated:  -247.904973

Dipole-layer corrected work functions: 3.379600, 2.983010 eV

Showing only first 2 kpts
 Kpt  Band  Eigenvalues  Occupancy
  0    25     -3.43898    1.98851
  0    26     -3.33781    1.91623
  0    27     -3.04168    0.11546
  0    28     -2.94168    0.01645

  1    25     -3.22090    1.37645
  1    26     -3.20393    1.22246
  1    27     -3.11951    0.45033
  1    28     -3.10808    0.37557


Fermi level: -3.18130

Gap: 0.024 eV
Transition (v -> c):
  (s=0, k=2, n=26, [0.12, 0.12, 0.00]) -> (s=0, k=7, n=27, [0.38, 0.38, 0.00])
Writing to output.gpw (mode='')


Forces in eV/Ang:
  0 Li    0.01432    0.00115   -0.27585
  1 Li   -0.00935   -0.00447   -0.26491
  2 Li   -0.00340    0.01804   -0.27438
  3 Li   -0.00863   -0.00000   -0.26340
  4 Li    0.00488    0.00000   -0.28265
  5 Li    0.00082   -0.00001   -0.26504
  6 Li    0.01433   -0.00114   -0.27585
  7 Li   -0.00935    0.00447   -0.26492
  8 Li   -0.00341   -0.01804   -0.27438
  9 Li   -0.00195   -0.00000    0.34333
 10 Li    0.00513   -0.00000    0.24550
 11 Li   -0.00818   -0.00000    0.27730
 12 Li   -0.00092    0.01687    0.25411
 13 Li    0.00545   -0.00307    0.25894
 14 Li   -0.00122    0.01028    0.25706
 15 Li   -0.00091   -0.01686    0.25412
 16 Li    0.00545    0.00307    0.25894
 17 Li   -0.00122   -0.01028    0.25707
 18 Li    0.00459    0.01695   -0.00243
 19 Li    0.01434   -0.01239    0.06187
 20 Li   -0.01514    0.03035   -0.07449
 21 Li    0.00208    0.00001    0.04974
 22 Li   -0.01001   -0.00001    0.00743
 23 Li    0.00677    0.00001    0.07204
 24 Li    0.00460   -0.01696   -0.00247
 25 Li    0.01434    0.01240    0.06188
 26 Li   -0.01514   -0.03035   -0.07454
 27 Li    0.38272    0.00045   -2.59826
 28 Li    0.06137    0.00001   -0.07361
 29 Li    0.08631    0.00000    0.12369
 30 Li    0.02752    0.10025   -0.07091
 31 Li   -0.00212   -0.01414   -0.01869
 32 Li   -0.03532    0.05123   -0.03969
 33 Li    0.02753   -0.10030   -0.07094
 34 Li   -0.00209    0.01412   -0.01871
 35 Li   -0.03537   -0.05127   -0.03970
 36 F     3.48446    0.00225   13.18714
 37 H     2.15783    0.00027    1.15221
 38 N     0.87409    0.00058   -6.77138
 39 N    -7.01240    0.00092   -4.78537

System changes: positions 

Initializing position-dependent things.

Density initialized from wave functions
       .-----------------------.  
      /|                       |  
     / |                       |  
    /  |                       |  
   /   |                       |  
  /    |                       |  
 *     |                       |  
 |     |                       |  
 |     |                       |  
 |     |                       |  
 |     |                       |  
 |     |                       |  
 |     |                    N  N  
 |     |                       |  
 |     |                       |  
 |     |                       |  
 F H Li|     Li      Li        |  
 |     |  Li      Li      Li   |  
 | Li  |   Li      Li          |  
 |     |Li      Li      Li     |  
 Li    | Li      Li            |  
 |   LLi     LLi     LLi       |  
 |     |  Li      Li      Li   |  
 | Li  |   Li      Li          |  
 |     |Li      Li      Li     |  
 Li    | Li      Li            |  
 |    Li      Li      Li       |  
 |     |                       |  
 |     |                       |  
 |     |                       |  
 |     |                       |  
 |     |                       |  
 |     |                       |  
 |     .-----------------------.  
 |    /                       /   
 |   /                       /    
 |  /                       /     
 | /                       /      
 |/                       /       
 *-----------------------*        

Positions:
   0 Li     1.617037    1.617037   10.000000    ( 0.0000,  0.0000,  0.0000)
   1 Li     4.851111    1.617037   10.000000    ( 0.0000,  0.0000,  0.0000)
   2 Li     8.085185    1.617037   10.000000    ( 0.0000,  0.0000,  0.0000)
   3 Li     1.617037    4.851111   10.000000    ( 0.0000,  0.0000,  0.0000)
   4 Li     4.851111    4.851111   10.000000    ( 0.0000,  0.0000,  0.0000)
   5 Li     8.085185    4.851111   10.000000    ( 0.0000,  0.0000,  0.0000)
   6 Li     1.617037    8.085185   10.000000    ( 0.0000,  0.0000,  0.0000)
   7 Li     4.851111    8.085185   10.000000    ( 0.0000,  0.0000,  0.0000)
   8 Li     8.085185    8.085185   10.000000    ( 0.0000,  0.0000,  0.0000)
   9 Li     0.000000    0.000000   11.617037    ( 0.0000,  0.0000,  0.0000)
  10 Li     3.234074    0.000000   11.617037    ( 0.0000,  0.0000,  0.0000)
  11 Li     6.468148    0.000000   11.617037    ( 0.0000,  0.0000,  0.0000)
  12 Li     0.000000    3.234074   11.617037    ( 0.0000,  0.0000,  0.0000)
  13 Li     3.234074    3.234074   11.617037    ( 0.0000,  0.0000,  0.0000)
  14 Li     6.468148    3.234074   11.617037    ( 0.0000,  0.0000,  0.0000)
  15 Li     0.000000    6.468148   11.617037    ( 0.0000,  0.0000,  0.0000)
  16 Li     3.234074    6.468148   11.617037    ( 0.0000,  0.0000,  0.0000)
  17 Li     6.468148    6.468148   11.617037    ( 0.0000,  0.0000,  0.0000)
  18 Li     1.617181    1.617496   13.469706    ( 0.0000,  0.0000,  0.0000)
  19 Li     4.851552    1.616761   13.471417    ( 0.0000,  0.0000,  0.0000)
  20 Li     8.084672    1.617847   13.467627    ( 0.0000,  0.0000,  0.0000)
  21 Li     1.617085    4.851111   13.471050    ( 0.0000,  0.0000,  0.0000)
  22 Li     4.850816    4.851111   13.469882    ( 0.0000,  0.0000,  0.0000)
  23 Li     8.085406    4.851111   13.471651    ( 0.0000,  0.0000,  0.0000)
  24 Li     1.617182    8.084726   13.469705    ( 0.0000,  0.0000,  0.0000)
  25 Li     4.851552    8.085461   13.471418    ( 0.0000,  0.0000,  0.0000)
  26 Li     8.084672    8.084375   13.467625    ( 0.0000,  0.0000,  0.0000)
[...]
iter:   9 19:14:12  -251.898698c -3.40  -3.03
Writing to output.gpw (mode='')

iter:  10 19:16:40  -251.898552c -3.97  -3.13
iter:  11 19:19:10  -251.898595c -4.17  -3.37
iter:  12 19:21:41  -251.898625c -4.39  -3.44
iter:  13 19:24:07  -251.898598c -4.55  -3.52
iter:  14 19:26:30  -251.898599c -4.71  -3.56
Writing to output.gpw (mode='')

iter:  15 19:28:54  -251.898618c -4.70  -3.71
iter:  16 19:31:22  -251.898604c -4.98  -3.84
iter:  17 19:33:50  -251.898591c -5.28  -3.88
iter:  18 19:36:15  -251.898599c -5.65  -3.96
iter:  19 19:38:48  -251.898594c -5.44  -4.04c
Writing to output.gpw (mode='')

iter:  20 19:41:20  -251.898592c -5.84  -4.29c
iter:  21 19:43:47  -251.898594c -5.82  -4.38c
iter:  22 19:46:20  -251.898594c -5.87  -4.55c
iter:  23 19:48:42  -251.898594c -5.92  -4.64c
iter:  24 19:51:14  -251.898594c -5.99  -4.67c
Writing to output.gpw (mode='')

iter:  25 19:53:49  -251.898595c -6.32  -4.71c
iter:  26 19:56:20  -251.898595c -6.33  -4.77c
iter:  27 19:58:49  -251.898593c -6.50  -4.82c
iter:  28 20:01:20  -251.898593c -6.73  -4.97c
iter:  29 20:03:55  -251.898594c -6.65  -5.09c
Writing to output.gpw (mode='')

iter:  30 20:06:30  -251.898594c -6.67  -5.25c
iter:  31 20:08:50  -251.898593c -6.64  -5.28c
iter:  32 20:11:16  -251.898594c -6.68  -5.36c
iter:  33 20:13:43  -251.898594c -6.86  -5.40c
iter:  34 20:16:17  -251.898594c -7.05  -5.37c
Writing to output.gpw (mode='')

iter:  35 20:18:51  -251.898593c -6.93  -5.34c
iter:  36 20:21:19  -251.898593c -7.22  -5.37c
iter:  37 20:23:40  -251.898593c -6.78  -5.34c
iter:  38 20:26:01  -251.898594c -7.14  -5.30c
iter:  39 20:28:38  -251.898593c -7.26  -5.29c
Writing to output.gpw (mode='')

iter:  40 20:31:07  -251.898593c -7.40  -5.23c
iter:  41 20:33:38  -251.898593c -7.28  -5.24c
iter:  42 20:36:02  -251.898593c -7.19  -5.22c
iter:  43 20:38:33  -251.898594c -7.24  -5.20c
iter:  44 20:41:05  -251.898593c -7.58c -5.14c

Converged after 44 iterations.

Dipole moment: (-13.677811, -16.287709, -0.140081) |e|*Ang

Energy contributions relative to reference atoms: (reference = -12990.375485)

Kinetic:       +123.123937
Potential:     -110.511798
External:        +0.000000
XC:            -264.847129
Entropy (-ST):   -0.150300
Local:           +0.411547
--------------------------
Free energy:   -251.973743
Extrapolated:  -251.898593

Dipole-layer corrected work functions: 3.399840, 3.669123 eV

Showing only first 2 kpts
 Kpt  Band  Eigenvalues  Occupancy
  0    25     -3.79052    1.98813
  0    26     -3.69310    1.91957
  0    27     -3.37547    0.07984
  0    28     -3.30000    0.01821

  1    25     -3.56657    1.31034
  1    26     -3.53290    0.98422
  1    27     -3.50810    0.74213
  1    28     -3.42319    0.19492


Fermi level: -3.53448

No gap
Writing to output.gpw (mode='')


Forces in eV/Ang:
  0 Li    0.01491    0.00261   -0.28042
  1 Li   -0.00715   -0.00751   -0.26265
  2 Li   -0.00577    0.01391   -0.28159
  3 Li   -0.00721   -0.00000   -0.26097
  4 Li    0.00693    0.00000   -0.29261
  5 Li    0.00377   -0.00001   -0.26668
  6 Li    0.01492   -0.00261   -0.28042
  7 Li   -0.00715    0.00751   -0.26266
  8 Li   -0.00578   -0.01391   -0.28159
  9 Li    0.00517   -0.00000    0.35691
 10 Li    0.01286   -0.00000    0.25864
 11 Li   -0.01748    0.00000    0.26358
 12 Li   -0.00284    0.01408    0.26349
 13 Li    0.01225    0.01375    0.24875
 14 Li   -0.00919    0.01330    0.25432
 15 Li   -0.00284   -0.01408    0.26350
 16 Li    0.01226   -0.01375    0.24875
 17 Li   -0.00919   -0.01330    0.25432
 18 Li    0.05858    0.06835   -0.07127
 19 Li    0.00564   -0.00209    0.04513
 20 Li   -0.05442    0.04740   -0.08973
 21 Li    0.00215    0.00001    0.03805
 22 Li   -0.00697   -0.00001    0.01008
 23 Li   -0.00152    0.00001    0.04944
 24 Li    0.05857   -0.06833   -0.07128
 25 Li    0.00565    0.00209    0.04514
 26 Li   -0.05441   -0.04739   -0.08975
 27 Li    0.04950    0.00018   -0.90019
 28 Li    0.02857    0.00001   -0.06377
 29 Li    0.00908    0.00002    0.07517
 30 Li    0.02122    0.06022   -0.04826
 31 Li    0.00298   -0.00412   -0.02401
 32 Li   -0.02946    0.03524   -0.03238
 33 Li    0.02123   -0.06023   -0.04828
 34 Li    0.00300    0.00409   -0.02403
 35 Li   -0.02950   -0.03526   -0.03239
 36 F     1.19781    0.00042    3.66115
 37 H     0.07581    0.00008    0.47126
 38 N     0.38654   -0.00112   -1.56759
 39 N    -1.79531   -0.00005   -1.27825

System changes: positions 

Initializing position-dependent things.

Density initialized from wave functions
       .-----------------------.  
      /|                       |  
     / |                       |  
    /  |                       |  
   /   |                       |  
  /    |                       |  
 *     |                       |  
 |     |                       |  
 |     |                       |  
 |     |                       |  
 |     |                       |  
 |     |                       |  
 |     |                    N  N  
 |     |                       |  
 |     |                       |  
 F     |                       |  
 | H Li|     Li      Li        |  
 |     |  Li      Li      Li   |  
 | Li  |   Li      Li          |  
 |     |Li      Li      Li     |  
 Li    | Li      Li            |  
 |   LLi     LLi     LLi       |  
 |     |  Li      Li      Li   |  
 | Li  |   Li      Li          |  
 |     |Li      Li      Li     |  
 Li    | Li      Li            |  
 |    Li      Li      Li       |  
 |     |                       |  
 |     |                       |  
 |     |                       |  
 |     |                       |  
 |     |                       |  
 |     |                       |  
 |     .-----------------------.  
 |    /                       /   
 |   /                       /    
 |  /                       /     
 | /                       /      
 |/                       /       
 *-----------------------*        

Positions:
   0 Li     1.617037    1.617037   10.000000    ( 0.0000,  0.0000,  0.0000)
   1 Li     4.851111    1.617037   10.000000    ( 0.0000,  0.0000,  0.0000)
   2 Li     8.085185    1.617037   10.000000    ( 0.0000,  0.0000,  0.0000)
   3 Li     1.617037    4.851111   10.000000    ( 0.0000,  0.0000,  0.0000)
   4 Li     4.851111    4.851111   10.000000    ( 0.0000,  0.0000,  0.0000)
   5 Li     8.085185    4.851111   10.000000    ( 0.0000,  0.0000,  0.0000)
   6 Li     1.617037    8.085185   10.000000    ( 0.0000,  0.0000,  0.0000)
   7 Li     4.851111    8.085185   10.000000    ( 0.0000,  0.0000,  0.0000)
   8 Li     8.085185    8.085185   10.000000    ( 0.0000,  0.0000,  0.0000)
   9 Li     0.000000    0.000000   11.617037    ( 0.0000,  0.0000,  0.0000)
  10 Li     3.234074    0.000000   11.617037    ( 0.0000,  0.0000,  0.0000)
  11 Li     6.468148    0.000000   11.617037    ( 0.0000,  0.0000,  0.0000)
  12 Li     0.000000    3.234074   11.617037    ( 0.0000,  0.0000,  0.0000)
  13 Li     3.234074    3.234074   11.617037    ( 0.0000,  0.0000,  0.0000)
  14 Li     6.468148    3.234074   11.617037    ( 0.0000,  0.0000,  0.0000)
  15 Li     0.000000    6.468148   11.617037    ( 0.0000,  0.0000,  0.0000)
  16 Li     3.234074    6.468148   11.617037    ( 0.0000,  0.0000,  0.0000)
  17 Li     6.468148    6.468148   11.617037    ( 0.0000,  0.0000,  0.0000)
  18 Li     1.624492    1.626512   13.461451    ( 0.0000,  0.0000,  0.0000)
  19 Li     4.852829    1.616597   13.479735    ( 0.0000,  0.0000,  0.0000)
  20 Li     8.077386    1.623158   13.455164    ( 0.0000,  0.0000,  0.0000)
  21 Li     1.617336    4.851112   13.477893    ( 0.0000,  0.0000,  0.0000)
  22 Li     4.849545    4.851109   13.471744    ( 0.0000,  0.0000,  0.0000)
  23 Li     8.085696    4.851112   13.480413    ( 0.0000,  0.0000,  0.0000)
  24 Li     1.624491    8.075710   13.461447    ( 0.0000,  0.0000,  0.0000)
  25 Li     4.852830    8.085626   13.479738    ( 0.0000,  0.0000,  0.0000)
  26 Li     8.077387    8.079065   13.455158    ( 0.0000,  0.0000,  0.0000)
  27 Li     0.044153    0.000060   15.108118    ( 0.0000,  0.0000,  0.0000)
  28 Li     3.242746    0.000003   15.431046    ( 0.0000,  0.0000,  0.0000)
  29 Li     6.461168    0.000005   15.453457    ( 0.0000,  0.0000,  0.0000)
  30 Li     0.004733    3.247137   15.435644    ( 0.0000,  0.0000,  0.0000)
  31 Li     3.233930    3.232176   15.441241    ( 0.0000,  0.0000,  0.0000)
  32 Li     6.462090    3.241311   15.438521    ( 0.0000,  0.0000,  0.0000)
  33 Li     0.004735    6.455079   15.435640    ( 0.0000,  0.0000,  0.0000)
  34 Li     3.233935    6.470041   15.441238    ( 0.0000,  0.0000,  0.0000)
  35 Li     6.462082    6.460906   15.438519    ( 0.0000,  0.0000,  0.0000)
  36 F      9.839687    9.702354   19.069763    ( 0.0000,  0.0000,  0.0000)
  37 H     10.547361    9.702227   18.452723    ( 0.0000,  0.0000,  0.0000)
  38 N      9.650343    9.701900   16.978563    ( 0.0000,  0.0000,  0.0000)
  39 N      8.553524    9.702139   17.190979    ( 0.0000,  0.0000,  0.0000)

Unit cell:
           periodic     x           y           z      points  spacing
  1. axis:    yes    9.702222    0.000000    0.000000    60     0.1617
  2. axis:    yes    0.000000    9.702222    0.000000    60     0.1617
  3. axis:    no     0.000000    0.000000   26.601111   168     0.1583

  Lengths:   9.702222   9.702222  26.601111
  Angles:   90.000000  90.000000  90.000000

Effective grid spacing dv^(1/3) = 0.1606

     iter     time        total  log10-change:
                         energy  eigst   dens
iter:   1 20:44:14  -252.118858  -1.09
iter:   2 20:46:46  -252.107678  -1.15  -1.67
iter:   3 20:49:23  -252.073405  -2.20  -1.74
iter:   4 20:51:48  -252.073240  -2.58  -2.50
Writing to output.gpw (mode='')

iter:   5 20:54:22  -252.073415c -2.11  -2.56
iter:   6 20:56:49  -252.072426c -2.80  -2.57
iter:   7 20:59:16  -252.072270c -2.96  -2.70
iter:   8 21:01:42  -252.072245c -3.36  -2.90
iter:   9 21:04:13  -252.072368c -3.41  -2.96
Writing to output.gpw (mode='')

iter:  10 21:06:43  -252.072274c -4.03  -3.12
iter:  11 21:09:06  -252.072238c -4.09  -3.22
iter:  12 21:11:33  -252.072297c -4.12  -3.34
iter:  13 21:14:01  -252.072287c -4.49  -3.49
iter:  14 21:16:34  -252.072261c -4.62  -3.74
Writing to output.gpw (mode='')

iter:  15 21:19:07  -252.072272c -5.02  -3.82
iter:  16 21:21:33  -252.072274c -5.02  -3.87
iter:  17 21:24:07  -252.072264c -5.01  -3.98
iter:  18 21:26:37  -252.072268c -5.24  -4.03c
iter:  19 21:29:08  -252.072263c -5.52  -4.24c
Writing to output.gpw (mode='')

iter:  20 21:31:50  -252.072263c -5.63  -4.36c
iter:  21 21:34:19  -252.072264c -5.67  -4.39c
iter:  22 21:36:49  -252.072261c -5.81  -4.52c
iter:  23 21:39:09  -252.072263c -5.98  -4.70c
iter:  24 21:41:39  -252.072263c -6.08  -4.71c
Writing to output.gpw (mode='')

iter:  25 21:44:10  -252.072263c -5.99  -4.83c
iter:  26 21:46:38  -252.072264c -6.12  -4.81c
iter:  27 21:49:10  -252.072264c -6.19  -4.99c
iter:  28 21:51:44  -252.072264c -6.38  -5.01c
iter:  29 21:54:12  -252.072264c -6.25  -4.97c
Writing to output.gpw (mode='')

iter:  30 21:56:39  -252.072264c -6.30  -4.93c
iter:  31 21:59:07  -252.072265c -6.54  -4.87c
iter:  32 22:01:33  -252.072264c -6.54  -4.82c
iter:  33 22:03:56  -252.072265c -6.64  -4.86c
iter:  34 22:06:16  -252.072265c -6.47  -4.77c
Writing to output.gpw (mode='')

iter:  35 22:08:50  -252.072265c -6.83  -4.72c
iter:  36 22:11:30  -252.072265c -6.89  -4.78c
iter:  37 22:14:00  -252.072265c -6.78  -4.71c
iter:  38 22:16:28  -252.072264c -6.83  -4.84c
iter:  39 22:18:50  -252.072263c -6.95  -4.83c
Writing to output.gpw (mode='')

iter:  40 22:21:17  -252.072264c -7.17  -4.93c
iter:  41 22:23:45  -252.072263c -6.90  -4.88c
iter:  42 22:26:15  -252.072263c -7.10  -5.01c
iter:  43 22:28:44  -252.072262c -7.06  -4.92c
iter:  44 22:31:14  -252.072262c -7.34  -5.08c
Writing to output.gpw (mode='')

iter:  45 22:33:46  -252.072262c -7.31  -5.19c
iter:  46 22:36:22  -252.072262c -7.38  -5.28c
iter:  47 22:39:00  -252.072262c -7.46c -5.38c

Converged after 47 iterations.

Dipole moment: (-13.983113, -16.286139, -0.166387) |e|*Ang

Energy contributions relative to reference atoms: (reference = -12990.375485)

Kinetic:       +121.910472
Potential:     -109.645906
External:        +0.000000
XC:            -264.674385
Entropy (-ST):   -0.150484
Local:           +0.412800
--------------------------
Free energy:   -252.147504
Extrapolated:  -252.072262

Dipole-layer corrected work functions: 3.400947, 3.720800 eV

Showing only first 2 kpts
 Kpt  Band  Eigenvalues  Occupancy
  0    25     -3.81499    1.98767
  0    26     -3.71965    1.91981
  0    27     -3.40170    0.07959
  0    28     -3.32678    0.01835

  1    25     -3.59197    1.30131
  1    26     -3.55808    0.97202
  1    27     -3.53652    0.76115
  1    28     -3.44594    0.18248


Fermi level: -3.56087

No gap
Writing to output.gpw (mode='')


Forces in eV/Ang:
  0 Li    0.01492    0.00281   -0.28112
  1 Li   -0.00691   -0.00767   -0.26244
  2 Li   -0.00585    0.01355   -0.28262
  3 Li   -0.00695   -0.00000   -0.26081
  4 Li    0.00691    0.00000   -0.29346
  5 Li    0.00411   -0.00001   -0.26636
  6 Li    0.01493   -0.00280   -0.28112
  7 Li   -0.00691    0.00767   -0.26244
  8 Li   -0.00586   -0.01354   -0.28262
  9 Li    0.00552   -0.00000    0.35810
 10 Li    0.01349   -0.00000    0.25973
 11 Li   -0.01789    0.00000    0.26337
 12 Li   -0.00292    0.01437    0.26445
 13 Li    0.01337    0.01522    0.24792
 14 Li   -0.01063    0.01464    0.25389
 15 Li   -0.00292   -0.01436    0.26445
 16 Li    0.01338   -0.01522    0.24793
 17 Li   -0.01063   -0.01463    0.25389
 18 Li    0.06326    0.07270   -0.07697
 19 Li    0.00523   -0.00165    0.04292
 20 Li   -0.05835    0.05122   -0.09237
 21 Li    0.00255    0.00000    0.03598
 22 Li   -0.00693   -0.00001    0.00922
 23 Li   -0.00238    0.00001    0.04682
 24 Li    0.06324   -0.07269   -0.07697
 25 Li    0.00524    0.00166    0.04293
 26 Li   -0.05834   -0.05121   -0.09239
 27 Li    0.02639    0.00016   -0.74745
 28 Li    0.02427    0.00001   -0.06099
 29 Li    0.00999    0.00002    0.07633
 30 Li    0.02025    0.05651   -0.04649
 31 Li    0.00381   -0.00276   -0.02341
 32 Li   -0.02863    0.03398   -0.03081
 33 Li    0.02026   -0.05652   -0.04650
 34 Li    0.00384    0.00274   -0.02343
 35 Li   -0.02867   -0.03401   -0.03082
 36 F     1.18856    0.00050    3.11452
 37 H    -0.05237    0.00008    0.51069
 38 N     0.36276   -0.00089   -1.31193
 39 N    -1.58033   -0.00008   -1.15766

System changes: positions 

Initializing position-dependent things.

Density initialized from wave functions
       .-----------------------.  
      /|                       |  
     / |                       |  
    /  |                       |  
   /   |                       |  
  /    |                       |  
 *     |                       |  
 |     |                       |  
 |     |                       |  
 |     |                       |  
 |     |                       |  
 |     |                       |  
 |     |                    N  N  
 |     |                       |  
 |     |                       |  
 F     |                       |  
 | H Li|     Li      Li        |  
 |     |  Li      Li      Li   |  
 | Li  |   Li      Li          |  
 |     |Li      Li      Li     |  
 Li    | Li      Li            |  
 |   LLi     LLi     LLi       |  
 |     |  Li      Li      Li   |  
 | Li  |   Li      Li          |  
 |     |Li      Li      Li     |  
 Li    | Li      Li            |  
 |    Li      Li      Li       |  
 |     |                       |  
 |     |                       |  
 |     |                       |  
 |     |                       |  
 |     |                       |  
 |     |                       |  
 |     .-----------------------.  
 |    /                       /   
 |   /                       /    
 |  /                       /     
 | /                       /      
 |/                       /       
 *-----------------------*        

Positions:
   0 Li     1.617037    1.617037   10.000000    ( 0.0000,  0.0000,  0.0000)
   1 Li     4.851111    1.617037   10.000000    ( 0.0000,  0.0000,  0.0000)
   2 Li     8.085185    1.617037   10.000000    ( 0.0000,  0.0000,  0.0000)
   3 Li     1.617037    4.851111   10.000000    ( 0.0000,  0.0000,  0.0000)
   4 Li     4.851111    4.851111   10.000000    ( 0.0000,  0.0000,  0.0000)
   5 Li     8.085185    4.851111   10.000000    ( 0.0000,  0.0000,  0.0000)
   6 Li     1.617037    8.085185   10.000000    ( 0.0000,  0.0000,  0.0000)
   7 Li     4.851111    8.085185   10.000000    ( 0.0000,  0.0000,  0.0000)
   8 Li     8.085185    8.085185   10.000000    ( 0.0000,  0.0000,  0.0000)
   9 Li     0.000000    0.000000   11.617037    ( 0.0000,  0.0000,  0.0000)
  10 Li     3.234074    0.000000   11.617037    ( 0.0000,  0.0000,  0.0000)
  11 Li     6.468148    0.000000   11.617037    ( 0.0000,  0.0000,  0.0000)
  12 Li     0.000000    3.234074   11.617037    ( 0.0000,  0.0000,  0.0000)
  13 Li     3.234074    3.234074   11.617037    ( 0.0000,  0.0000,  0.0000)
  14 Li     6.468148    3.234074   11.617037    ( 0.0000,  0.0000,  0.0000)
  15 Li     0.000000    6.468148   11.617037    ( 0.0000,  0.0000,  0.0000)
  16 Li     3.234074    6.468148   11.617037    ( 0.0000,  0.0000,  0.0000)
  17 Li     6.468148    6.468148   11.617037    ( 0.0000,  0.0000,  0.0000)
  18 Li     1.626119    1.628392   13.459514    ( 0.0000,  0.0000,  0.0000)
  19 Li     4.852974    1.616596   13.480915    ( 0.0000,  0.0000,  0.0000)
  20 Li     8.075874    1.624347   13.452857    ( 0.0000,  0.0000,  0.0000)
  21 Li     1.617393    4.851113   13.478876    ( 0.0000,  0.0000,  0.0000)
  22 Li     4.849359    4.851109   13.472018    ( 0.0000,  0.0000,  0.0000)
  23 Li     8.085658    4.851112   13.481659    ( 0.0000,  0.0000,  0.0000)
  24 Li     1.626117    8.073831   13.459510    ( 0.0000,  0.0000,  0.0000)
  25 Li     4.852975    8.085627   13.480918    ( 0.0000,  0.0000,  0.0000)
  26 Li     8.075875    8.077877   13.452851    ( 0.0000,  0.0000,  0.0000)
  27 Li     0.045950    0.000065   15.083217    ( 0.0000,  0.0000,  0.0000)
  28 Li     3.243504    0.000003   15.429252    ( 0.0000,  0.0000,  0.0000)
  29 Li     6.460403    0.000006   15.454726    ( 0.0000,  0.0000,  0.0000)
  30 Li     0.005298    3.248591   15.434424    ( 0.0000,  0.0000,  0.0000)
  31 Li     3.233995    3.232059   15.440577    ( 0.0000,  0.0000,  0.0000)
  32 Li     6.461321    3.242182   15.437634    ( 0.0000,  0.0000,  0.0000)
  33 Li     0.005301    6.453625   15.434419    ( 0.0000,  0.0000,  0.0000)
  34 Li     3.234001    6.470158   15.440574    ( 0.0000,  0.0000,  0.0000)
  35 Li     6.461312    6.460035   15.437632    ( 0.0000,  0.0000,  0.0000)
  36 F      9.853550    9.702362   19.107283    ( 0.0000,  0.0000,  0.0000)
  37 H     10.530909    9.702228   18.456626    ( 0.0000,  0.0000,  0.0000)
  38 N      9.650775    9.701882   16.971891    ( 0.0000,  0.0000,  0.0000)
  39 N      8.553406    9.702144   17.192740    ( 0.0000,  0.0000,  0.0000)

Unit cell:
           periodic     x           y           z      points  spacing
  1. axis:    yes    9.702222    0.000000    0.000000    60     0.1617
  2. axis:    yes    0.000000    9.702222    0.000000    60     0.1617
  3. axis:    no     0.000000    0.000000   26.601111   168     0.1583

  Lengths:   9.702222   9.702222  26.601111
  Angles:   90.000000  90.000000  90.000000

Effective grid spacing dv^(1/3) = 0.1606

     iter     time        total  log10-change:
                         energy  eigst   dens
iter:   1 22:42:06  -252.273218  -1.11
iter:   2 22:44:36  -252.264439  -1.13  -1.66
iter:   3 22:47:13  -252.225655  -2.17  -1.72
iter:   4 22:49:44  -252.225641  -2.59  -2.52
Writing to output.gpw (mode='')

iter:   5 22:52:19  -252.225790c -2.17  -2.58
iter:   6 22:54:42  -252.224941c -2.71  -2.60
iter:   7 22:57:19  -252.224834c -3.01  -2.73
iter:   8 22:59:53  -252.224801c -3.39  -2.89
iter:   9 23:02:27  -252.224914c -3.44  -2.95
