
  ___ ___ ___ _ _ _  
 |   |   |_  | | | | 
 | | | | | . | | | | 
 |__ |  _|___|_____|  22.8.0
 |___|_|             

User:   vazumah@r413.ib.bridges2.psc.edu
Date:   Fri Mar 10 12:22:51 2023
Arch:   x86_64
Pid:    86200
CWD:    /jet/home/vazumah/Calcs/LiMEAS/proton_donors/ethanediol_x/ontop/9.702_9.702/N2_y
Python: 3.11.0
gpaw:   /jet/home/vazumah/.conda/envs/GPAW_mpich/lib/python3.11/site-packages/gpaw
_gpaw:  /jet/home/vazumah/.conda/envs/GPAW_mpich/lib/python3.11/site-packages/
        _gpaw.cpython-311-x86_64-linux-gnu.so
ase:    /jet/home/vazumah/.conda/envs/GPAW_mpich/lib/python3.11/site-packages/ase (version 3.22.1)
numpy:  /jet/home/vazumah/.conda/envs/GPAW_mpich/lib/python3.11/site-packages/numpy (version 1.24.2)
scipy:  /jet/home/vazumah/.conda/envs/GPAW_mpich/lib/python3.11/site-packages/scipy (version 1.10.1)
libxc:  5.2.3
units:  Angstrom and eV
cores: 128
OpenMP: True
OMP_NUM_THREADS: 1

Input parameters:
  h: 0.16
  kpts: {size: [4, 4, 1]}
  occupations: {name: fermi-dirac,
                width: 0.05}
  poissonsolver: {dipolelayer: xy}
  xc: BEEF-vdW

System changes: positions, numbers, cell, pbc, initial_charges, initial_magmoms 

Initialize ...

species:
  Li:
    name: Lithium
    id: 830b4218f175192f93f959cfc0aad614
    Z: 3.0
    valence: 1
    core: 2
    charge: 0.0
    file: /jet/home/vazumah/datasets/gpaw-setups-0.9.20000/Li.PBE.gz
    compensation charges: {type: gauss,
                           rc: 0.33,
                           lmax: 2}
    cutoffs: {filter: 1.91,
              core: 2.55}
    valence states:
      #              energy  rcut
      - 2s(1.00)    -2.874   1.058
      - 2p(0.00)    -1.090   1.058
      -  s          24.337   1.058
  
    # Using partial waves for Li as LCAO basis

  O:
    name: Oxygen
    id: 32ecd46bf208036f09c70b0ec9a88b78
    Z: 8.0
    valence: 6
    core: 2
    charge: 0.0
    file: /jet/home/vazumah/datasets/gpaw-setups-0.9.20000/O.PBE.gz
    compensation charges: {type: gauss,
                           rc: 0.21,
                           lmax: 2}
    cutoffs: {filter: 1.17,
              core: 0.83}
    valence states:
      #              energy  rcut
      - 2s(2.00)   -23.961   0.688
      - 2p(4.00)    -9.029   0.598
      -  s           3.251   0.688
      -  p          18.182   0.598
      -  d           0.000   0.619
  
    # Using partial waves for O as LCAO basis

  C:
    name: Carbon
    id: 4aa54d4b901d75f77cc0ea3eec22967b
    Z: 6.0
    valence: 4
    core: 2
    charge: 0.0
    file: /jet/home/vazumah/datasets/gpaw-setups-0.9.20000/C.PBE.gz
    compensation charges: {type: gauss,
                           rc: 0.20,
                           lmax: 2}
    cutoffs: {filter: 1.14,
              core: 1.14}
    valence states:
      #              energy  rcut
      - 2s(2.00)   -13.751   0.635
      - 2p(2.00)    -5.284   0.635
      -  s          13.461   0.635
      -  p          21.927   0.635
      -  d           0.000   0.635
  
    # Using partial waves for C as LCAO basis

  H:
    name: Hydrogen
    id: d65de229564ff8ea4db303e23b6d1ecf
    Z: 1.0
    valence: 1
    core: 0
    charge: 0.0
    file: /jet/home/vazumah/datasets/gpaw-setups-0.9.20000/H.PBE.gz
    compensation charges: {type: gauss,
                           rc: 0.15,
                           lmax: 2}
    cutoffs: {filter: 0.85,
              core: 0.53}
    valence states:
      #              energy  rcut
      - 1s(1.00)    -6.494   0.476
      -  s          20.717   0.476
      -  p           0.000   0.476
  
    # Using partial waves for H as LCAO basis

  N:
    name: Nitrogen
    id: f7500608b86eaa90eef8b1d9a670dc53
    Z: 7.0
    valence: 5
    core: 2
    charge: 0.0
    file: /jet/home/vazumah/datasets/gpaw-setups-0.9.20000/N.PBE.gz
    compensation charges: {type: gauss,
                           rc: 0.18,
                           lmax: 2}
    cutoffs: {filter: 1.11,
              core: 0.96}
    valence states:
      #              energy  rcut
      - 2s(2.00)   -18.583   0.603
      - 2p(3.00)    -7.089   0.529
      -  s           8.629   0.603
      -  p          20.123   0.529
      -  d           0.000   0.577
  
    # Using partial waves for N as LCAO basis

Reference energy: -16475.706344  # eV

Spin-paired calculation

Convergence criteria:
 Maximum [total energy] change in last 3 cyles: 0.0005 eV / electron
 Maximum integral of absolute [dens]ity change: 0.0001 electrons / valence electron
 Maximum integral of absolute [eigenst]ate change: 4e-08 eV^2 / valence electron
 Maximum number of scf [iter]ations: 333
 (Square brackets indicate name in SCF output, whereas a 'c' in
 the SCF output indicates the quantity has converged.)

Symmetries present (total): 1

  ( 1  0  0)
  ( 0  1  0)
  ( 0  0  1)

16 k-points: 4 x 4 x 1 Monkhorst-Pack grid
8 k-points in the irreducible part of the Brillouin zone
       k-points in crystal coordinates                weights
   0:     0.12500000   -0.37500000    0.00000000          2/16
   1:     0.12500000   -0.12500000    0.00000000          2/16
   2:     0.12500000    0.12500000    0.00000000          2/16
   3:     0.12500000    0.37500000    0.00000000          2/16
   4:     0.37500000   -0.37500000    0.00000000          2/16
   5:     0.37500000   -0.12500000    0.00000000          2/16
   6:     0.37500000    0.12500000    0.00000000          2/16
   7:     0.37500000    0.37500000    0.00000000          2/16

Wave functions: Uniform real-space grid
  Kinetic energy operator: 6*3+1=19 point O(h^6) finite-difference Laplacian
  ScaLapack parameters: grid=1x1, blocksize=None
  Wavefunction extrapolation:
    Improved wavefunction reuse through dual PAW basis 

Occupation numbers: Fermi-Dirac:
  width: 0.0500  # eV
 

Eigensolver
   Davidson(niter=2) 

Densities:
  Coarse grid: 60*60*164 grid
  Fine grid: 120*120*328 grid
  Total Charge: 0.000000 

Density mixing:
  Method: separate
  Backend: pulay
  Linear mixing parameter: 0.05
  old densities: 5
  Damping of long wavelength oscillations: 50 

Hamiltonian:
  XC and Coulomb potentials evaluated on a 120*120*328 grid
  Using the BEEF-vdW Exchange-Correlation functional
  Interpolation: tri-quintic (5. degree polynomial)
  Poisson solver: FastPoissonSolver using
    Stencil: 6*3+1=19 point O(h^6) finite-difference Laplacian
    FFT axes: [0, 1]
    FST axes: [2]

Dipole correction along z-axis 

XC parameters: BEEF-vdW with 2 nearest neighbor stencil

Memory estimate:
  Process memory now: 128.56 MiB
  Calculator: 84.78 MiB
    Density: 22.56 MiB
      Arrays: 7.22 MiB
      Localized functions: 12.59 MiB
      Mixer: 2.75 MiB
    Hamiltonian: 5.72 MiB
      Arrays: 4.72 MiB
      XC: 0.00 MiB
      Poisson: 0.00 MiB
      vbar: 0.99 MiB
    Wavefunctions: 56.50 MiB
      Arrays psit_nG: 26.37 MiB
      Eigensolver: 29.47 MiB
      Projections: 0.01 MiB
      Projectors: 0.66 MiB

Total number of cores used: 128
Parallelization over k-points: 8
Domain decomposition: 2 x 2 x 4

Number of atoms: 48
Number of atomic orbitals: 174
Number of bands in calculation: 48
Number of valence electrons: 72
Bands to converge: occupied

... initialized

Initializing position-dependent things.

Density initialized from atomic densities
Creating initial wave functions:
  48 bands from LCAO basis set

       .-----------------------.  
      /|                       |  
     / |                       |  
    /  |                       |  
   /   |                       |  
  /    |                       |  
 *     |                       |  
 |     |                       |  
 |     |                       |  
 |     |                 H     |  
 |     |                       |  
 |     |                       N  
 |     |             H         |  
 H     |            C     H    |  
 O     |                C      |  
 |   Li|     Li   O  Li        |  
 |     |                H      |  
 | Li  |  LLi     LLi     Ni   |  
 |     |                       |  
 Li    |LLi     LLi     Li     |  
 |   Li|     Li      Li        |  
 |    Li  Li  Li  Li  Li  Li   |  
 | Li  |   Li      Li          |  
 |     |Li      Li      Li     |  
 Li    | Li      Li            |  
 |    Li      Li      Li       |  
 |     |                       |  
 |     |                       |  
 |     |                       |  
 |     |                       |  
 |     |                       |  
 |     |                       |  
 |     .-----------------------.  
 |    /                       /   
 |   /                       /    
 |  /                       /     
 | /                       /      
 |/                       /       
 *-----------------------*        

Positions:
   0 Li     1.617037    1.617037   10.000000    ( 0.0000,  0.0000,  0.0000)
   1 Li     4.851111    1.617037   10.000000    ( 0.0000,  0.0000,  0.0000)
   2 Li     8.085185    1.617037   10.000000    ( 0.0000,  0.0000,  0.0000)
   3 Li     1.617037    4.851111   10.000000    ( 0.0000,  0.0000,  0.0000)
   4 Li     4.851111    4.851111   10.000000    ( 0.0000,  0.0000,  0.0000)
   5 Li     8.085185    4.851111   10.000000    ( 0.0000,  0.0000,  0.0000)
   6 Li     1.617037    8.085185   10.000000    ( 0.0000,  0.0000,  0.0000)
   7 Li     4.851111    8.085185   10.000000    ( 0.0000,  0.0000,  0.0000)
   8 Li     8.085185    8.085185   10.000000    ( 0.0000,  0.0000,  0.0000)
   9 Li     0.000000    0.000000   11.617037    ( 0.0000,  0.0000,  0.0000)
  10 Li     3.234074    0.000000   11.617037    ( 0.0000,  0.0000,  0.0000)
  11 Li     6.468148    0.000000   11.617037    ( 0.0000,  0.0000,  0.0000)
  12 Li     0.000000    3.234074   11.617037    ( 0.0000,  0.0000,  0.0000)
  13 Li     3.234074    3.234074   11.617037    ( 0.0000,  0.0000,  0.0000)
  14 Li     6.468148    3.234074   11.617037    ( 0.0000,  0.0000,  0.0000)
  15 Li     0.000000    6.468148   11.617037    ( 0.0000,  0.0000,  0.0000)
  16 Li     3.234074    6.468148   11.617037    ( 0.0000,  0.0000,  0.0000)
  17 Li     6.468148    6.468148   11.617037    ( 0.0000,  0.0000,  0.0000)
  18 Li     1.617038    1.617038   13.469728    ( 0.0000,  0.0000,  0.0000)
  19 Li     4.851111    1.617038   13.469729    ( 0.0000,  0.0000,  0.0000)
  20 Li     8.085184    1.617038   13.469728    ( 0.0000,  0.0000,  0.0000)
  21 Li     1.617038    4.851111   13.469729    ( 0.0000,  0.0000,  0.0000)
  22 Li     4.851111    4.851111   13.469730    ( 0.0000,  0.0000,  0.0000)
  23 Li     8.085184    4.851111   13.469729    ( 0.0000,  0.0000,  0.0000)
  24 Li     1.617038    8.085184   13.469728    ( 0.0000,  0.0000,  0.0000)
  25 Li     4.851111    8.085184   13.469729    ( 0.0000,  0.0000,  0.0000)
  26 Li     8.085184    8.085184   13.469728    ( 0.0000,  0.0000,  0.0000)
  27 Li    -0.000000   -0.000000   15.445939    ( 0.0000,  0.0000,  0.0000)
  28 Li     3.234074    0.000000   15.445939    ( 0.0000,  0.0000,  0.0000)
  29 Li     6.468148    0.000000   15.445939    ( 0.0000,  0.0000,  0.0000)
  30 Li     0.000000    3.234074   15.445939    ( 0.0000,  0.0000,  0.0000)
  31 Li     3.234076    3.234076   15.445938    ( 0.0000,  0.0000,  0.0000)
  32 Li     6.468146    3.234076   15.445938    ( 0.0000,  0.0000,  0.0000)
  33 Li     0.000000    6.468148   15.445939    ( 0.0000,  0.0000,  0.0000)
  34 Li     3.234076    6.468146   15.445938    ( 0.0000,  0.0000,  0.0000)
  35 Li     6.468146    6.468146   15.445938    ( 0.0000,  0.0000,  0.0000)
  36 O      9.702222    9.702222   19.445939    ( 0.0000,  0.0000,  0.0000)
  37 O      6.804024    9.746216   19.213250    ( 0.0000,  0.0000,  0.0000)
  38 C      8.973661   10.873434   19.033562    ( 0.0000,  0.0000,  0.0000)
  39 C      7.564476   10.887124   19.602713    ( 0.0000,  0.0000,  0.0000)
  40 H      9.501787   11.787824   19.326395    ( 0.0000,  0.0000,  0.0000)
  41 H      8.940912   10.826136   17.943996    ( 0.0000,  0.0000,  0.0000)
  42 H      7.027757   11.761390   19.226232    ( 0.0000,  0.0000,  0.0000)
  43 H      7.614205   10.962625   20.701774    ( 0.0000,  0.0000,  0.0000)
  44 H      9.871646    9.776737   20.393261    ( 0.0000,  0.0000,  0.0000)
  45 H      7.383490    8.979095   19.309689    ( 0.0000,  0.0000,  0.0000)
  46 N      9.702000    9.702000   16.945939    ( 0.0000,  0.0000,  0.0000)
  47 N      9.702000   10.798622   16.945939    ( 0.0000,  0.0000,  0.0000)

Unit cell:
           periodic     x           y           z      points  spacing
  1. axis:    yes    9.702222    0.000000    0.000000    60     0.1617
  2. axis:    yes    0.000000    9.702222    0.000000    60     0.1617
  3. axis:    no     0.000000    0.000000   26.351111   164     0.1607

  Lengths:   9.702222   9.702222  26.351111
  Angles:   90.000000  90.000000  90.000000

Effective grid spacing dv^(1/3) = 0.1614

     iter     time        total  log10-change:
                         energy  eigst   dens
iter:   1 12:23:06  -638.856658
iter:   2 12:23:13   -55.398236  +2.62  +0.02
iter:   3 12:23:21   -50.462103  +3.20  -0.18
iter:   4 12:23:28  -205.229726  +3.15  -0.29
Writing to output.gpw (mode='')

iter:   5 12:23:35  -288.692200  +2.84  -0.36
iter:   6 12:23:42  -330.484717  +2.36  -0.57
iter:   7 12:23:50  -337.477691  +2.02  -0.58
iter:   8 12:23:57  -340.001930  +1.81  -0.57
iter:   9 12:24:04  -367.608246  +1.92  -0.57
Writing to output.gpw (mode='')

iter:  10 12:24:11  -335.227104  +1.50  -0.54
iter:  11 12:24:19  -344.831765  +1.26  -0.71
iter:  12 12:24:26  -348.263389  +1.19  -0.66
iter:  13 12:24:33  -331.779939  +1.20  -0.67
iter:  14 12:24:40  -331.068337  +0.77  -0.71
Writing to output.gpw (mode='')

iter:  15 12:24:48  -328.386174  +0.42  -0.75
iter:  16 12:24:55  -329.816218  +0.77  -0.77
iter:  17 12:25:02  -327.042848  +0.19  -0.71
iter:  18 12:25:12  -325.925493  +0.17  -0.78
iter:  19 12:25:19  -325.729459  +0.60  -0.84
Writing to output.gpw (mode='')

iter:  20 12:25:27  -324.530012  +0.51  -0.94
iter:  21 12:25:34  -324.670082  +0.16  -1.01
iter:  22 12:25:41  -323.467480  +0.13  -1.04
iter:  23 12:25:48  -322.669351  +0.14  -1.06
iter:  24 12:25:56  -322.607567  -0.19  -1.37
Writing to output.gpw (mode='')

iter:  25 12:26:03  -322.582318  -0.70  -1.44
iter:  26 12:26:10  -322.682143  -0.51  -1.52
iter:  27 12:26:17  -322.498191  -0.80  -1.53
iter:  28 12:26:25  -322.474405  -0.84  -1.70
iter:  29 12:26:32  -322.468756c -1.09  -1.75
Writing to output.gpw (mode='')

iter:  30 12:26:39  -322.457331c -1.48  -1.83
iter:  31 12:26:46  -322.449766c -1.31  -1.92
iter:  32 12:26:54  -322.452227c -1.73  -2.04
iter:  33 12:27:01  -322.454690c -1.84  -2.07
iter:  34 12:27:08  -322.456713c -1.80  -2.15
Writing to output.gpw (mode='')

iter:  35 12:27:16  -322.455249c -2.23  -2.24
iter:  36 12:27:30  -322.453103c -1.99  -2.25
iter:  37 12:27:38  -322.452215c -2.12  -2.43
iter:  38 12:27:45  -322.452623c -2.54  -2.65
iter:  39 12:27:52  -322.452448c -2.70  -2.68
Writing to output.gpw (mode='')

iter:  40 12:28:00  -322.452689c -2.91  -2.79
iter:  41 12:28:07  -322.452749c -2.95  -2.82
iter:  42 12:28:14  -322.452969c -3.05  -2.98
iter:  43 12:28:21  -322.453099c -3.02  -3.09
iter:  44 12:28:28  -322.453196c -3.34  -3.15
Writing to output.gpw (mode='')

iter:  45 12:28:36  -322.453324c -3.34  -3.27
iter:  46 12:28:43  -322.453415c -3.26  -3.34
iter:  47 12:28:50  -322.453494c -3.55  -3.45
iter:  48 12:28:58  -322.453562c -3.66  -3.56
iter:  49 12:29:05  -322.453619c -3.78  -3.69
Writing to output.gpw (mode='')

iter:  50 12:29:12  -322.453646c -3.84  -3.75
iter:  51 12:29:19  -322.453684c -4.12  -3.80
iter:  52 12:29:27  -322.453727c -4.04  -3.85
iter:  53 12:29:34  -322.453742c -3.90  -4.03c
iter:  54 12:29:41  -322.453758c -4.11  -4.13c
Writing to output.gpw (mode='')

iter:  55 12:29:48  -322.453769c -4.28  -4.11c
iter:  56 12:29:56  -322.453773c -4.17  -4.05c
iter:  57 12:30:03  -322.453785c -4.50  -3.99
iter:  58 12:30:10  -322.453783c -4.64  -4.01c
iter:  59 12:30:17  -322.453808c -4.66  -3.93
Writing to output.gpw (mode='')

iter:  60 12:30:25  -322.453818c -4.65  -4.05c
iter:  61 12:30:32  -322.453823c -4.61  -4.10c
iter:  62 12:30:39  -322.453828c -4.72  -4.15c
iter:  63 12:30:46  -322.453832c -4.77  -4.22c
iter:  64 12:30:54  -322.453836c -4.82  -4.26c
Writing to output.gpw (mode='')

iter:  65 12:31:01  -322.453831c -5.04  -4.43c
iter:  66 12:31:08  -322.453835c -5.12  -4.53c
iter:  67 12:31:15  -322.453836c -5.19  -4.57c
iter:  68 12:31:23  -322.453841c -5.23  -4.61c
iter:  69 12:31:30  -322.453840c -5.42  -4.77c
Writing to output.gpw (mode='')

iter:  70 12:31:37  -322.453842c -5.36  -4.80c
iter:  71 12:31:44  -322.453845c -5.31  -4.87c
iter:  72 12:31:52  -322.453845c -5.46  -5.08c
iter:  73 12:31:59  -322.453847c -5.56  -5.16c
iter:  74 12:32:06  -322.453847c -5.69  -5.22c
Writing to output.gpw (mode='')

iter:  75 12:32:13  -322.453848c -5.67  -5.22c
iter:  76 12:32:28  -322.453848c -5.77  -5.19c
iter:  77 12:32:36  -322.453849c -5.75  -5.09c
iter:  78 12:32:43  -322.453849c -5.82  -5.31c
iter:  79 12:32:50  -322.453849c -5.79  -5.39c
Writing to output.gpw (mode='')

iter:  80 12:32:58  -322.453849c -5.89  -5.43c
iter:  81 12:33:05  -322.453850c -6.00  -5.48c
iter:  82 12:33:12  -322.453850c -6.10  -5.60c
iter:  83 12:33:19  -322.453850c -6.19  -5.60c
iter:  84 12:33:27  -322.453850c -6.22  -5.46c
Writing to output.gpw (mode='')

iter:  85 12:33:34  -322.453850c -6.29  -5.40c
iter:  86 12:33:41  -322.453850c -6.21  -5.48c
iter:  87 12:33:48  -322.453851c -6.28  -5.57c
iter:  88 12:33:56  -322.453851c -6.29  -5.62c
iter:  89 12:34:03  -322.453851c -6.52  -5.76c
Writing to output.gpw (mode='')

iter:  90 12:34:10  -322.453850c -6.59  -5.66c
iter:  91 12:34:17  -322.453851c -6.66  -5.39c
iter:  92 12:34:25  -322.453851c -6.66  -5.39c
iter:  93 12:34:32  -322.453851c -6.62  -5.62c
iter:  94 12:34:39  -322.453851c -6.76  -5.62c
Writing to output.gpw (mode='')

iter:  95 12:34:46  -322.453852c -6.80  -5.59c
iter:  96 12:34:54  -322.453852c -6.83  -5.72c
iter:  97 12:35:01  -322.453852c -6.70  -5.75c
iter:  98 12:35:08  -322.453852c -6.91  -5.73c
iter:  99 12:35:15  -322.453852c -7.01  -5.88c
Writing to output.gpw (mode='')

iter: 100 12:35:23  -322.453852c -7.02  -6.00c
iter: 101 12:35:30  -322.453852c -7.12  -6.16c
iter: 102 12:35:37  -322.453852c -7.10  -6.20c
iter: 103 12:35:44  -322.453852c -7.23  -6.22c
iter: 104 12:35:52  -322.453852c -7.26  -6.28c
Writing to output.gpw (mode='')

iter: 105 12:35:59  -322.453852c -7.26  -6.28c
iter: 106 12:36:06  -322.453852c -7.26  -6.36c
iter: 107 12:36:14  -322.453852c -7.36  -6.33c
iter: 108 12:36:21  -322.453852c -7.50c -6.66c

Converged after 108 iterations.

Dipole moment: (-10.966725, -22.871203, 0.258943) |e|*Ang

Energy contributions relative to reference atoms: (reference = -16475.706344)

Kinetic:       +192.395263
Potential:     -176.059162
External:        +0.000000
XC:            -339.877209
Entropy (-ST):   -0.150509
Local:           +1.162510
--------------------------
Free energy:   -322.529106
Extrapolated:  -322.453852

Dipole-layer corrected work functions: 3.401702, 2.903924 eV

Showing only first 2 kpts
 Kpt  Band  Eigenvalues  Occupancy
  0    34     -3.40636    1.98752
  0    35     -3.33580    1.94982
  0    36     -2.98911    0.07295
  0    37     -2.95655    0.03871

  1    34     -3.20565    1.48416
  1    35     -3.14600    0.93193
  1    36     -3.11186    0.61190
  1    37     -3.04956    0.22507


Fermi level: -3.15281

No gap
Writing to output.gpw (mode='')


Forces in eV/Ang:
  0 Li    0.01194    0.00843   -0.27187
  1 Li    0.00054    0.00222   -0.27160
  2 Li   -0.01266    0.00896   -0.27122
  3 Li   -0.00519    0.00519   -0.26414
  4 Li    0.00025   -0.00331   -0.28820
  5 Li    0.00549    0.00430   -0.26424
  6 Li    0.00522   -0.01575   -0.27444
  7 Li   -0.00033    0.00797   -0.26267
  8 Li   -0.00482   -0.01493   -0.27459
  9 Li    0.00141   -0.00223    0.32962
 10 Li    0.01051    0.00456    0.25695
 11 Li   -0.01119    0.00565    0.25811
 12 Li   -0.00053    0.02017    0.24909
 13 Li   -0.00144   -0.00303    0.26001
 14 Li    0.00188   -0.00371    0.25852
 15 Li    0.00007   -0.00526    0.25662
 16 Li    0.01212   -0.00565    0.24757
 17 Li   -0.01225   -0.00665    0.24893
 18 Li   -0.01394    0.00830   -0.02764
 19 Li   -0.00045   -0.01232    0.06098
 20 Li    0.01440    0.00621   -0.01820
 21 Li   -0.00999    0.00027    0.06455
 22 Li   -0.00161    0.00134    0.01147
 23 Li    0.01069   -0.00195    0.06916
 24 Li    0.02255   -0.00859   -0.03318
 25 Li   -0.00100    0.00728    0.06448
 26 Li   -0.02252   -0.00602   -0.03057
 27 Li   -0.00499   -0.77195   -7.73068
 28 Li    0.07742   -0.01842   -0.03853
 29 Li   -0.10520   -0.02140    0.02389
 30 Li    0.00941   -0.12983    0.06781
 31 Li    0.04185    0.04227   -0.04051
 32 Li   -0.04451    0.04748   -0.05218
 33 Li   -0.00212   -0.02752   -0.00471
 34 Li    0.00270   -0.01619   -0.02914
 35 Li   -0.00052   -0.01783   -0.02970
 36 O    -0.25312    0.17676   -0.13917
 37 O    -0.10954   -0.11571   -0.18259
 38 C    -1.37997    0.55277    3.26544
 39 C     0.14523    0.12038    0.32112
 40 H     0.06164    0.08176   -0.00896
 41 H    -2.22911    1.53340    3.55662
 42 H    -0.01328    0.05634    0.01390
 43 H    -0.14632    0.00045    0.05671
 44 H     0.07138    0.01539    0.06600
 45 H     0.01796   -0.06959    0.01069
 46 N     1.55733   -7.39132    4.17988
 47 N     2.28642    5.87923   -3.36241

System changes: positions 

Initializing position-dependent things.

Density initialized from wave functions
       .-----------------------.  
      /|                       |  
     / |                       |  
    /  |                       |  
   /   |                       |  
  /    |                       |  
 *     |                       |  
 |     |                       |  
 |     |                       |  
 |     |                 H     |  
 |     |                       |  
 |     N                       |  
 |     |             H         |  
 H     |       Li   C  Li H    Li 
 |     |                CO     |  
 |     |     Li   O  Li H    Li|  
 |     |                       |  
 |NLi  |  LLi     LLi     Li   |  
 |     |                       |  
 |     |Li      Li      Li     |  
 |   Li|     Li      Li        |  
 |    Li  Li  Li  Li  Li  Li   |  
 | Li  |   Li      Li          |  
 |     |Li      Li      Li     |  
 Li    | Li      Li            |  
 |    Li      Li      Li       |  
 |     |                       |  
 |     |                       |  
 |     |                       |  
 |     |                       |  
 |     |                       |  
 |     |                       |  
 |     .-----------------------.  
 |    /                       /   
 |   /                       /    
 |  /                       /     
 | /                       /      
 |/                       /       
 *-----------------------*        

Positions:
   0 Li     1.617037    1.617037   10.000000    ( 0.0000,  0.0000,  0.0000)
   1 Li     4.851111    1.617037   10.000000    ( 0.0000,  0.0000,  0.0000)
   2 Li     8.085185    1.617037   10.000000    ( 0.0000,  0.0000,  0.0000)
   3 Li     1.617037    4.851111   10.000000    ( 0.0000,  0.0000,  0.0000)
   4 Li     4.851111    4.851111   10.000000    ( 0.0000,  0.0000,  0.0000)
   5 Li     8.085185    4.851111   10.000000    ( 0.0000,  0.0000,  0.0000)
   6 Li     1.617037    8.085185   10.000000    ( 0.0000,  0.0000,  0.0000)
   7 Li     4.851111    8.085185   10.000000    ( 0.0000,  0.0000,  0.0000)
   8 Li     8.085185    8.085185   10.000000    ( 0.0000,  0.0000,  0.0000)
   9 Li     0.000000    0.000000   11.617037    ( 0.0000,  0.0000,  0.0000)
  10 Li     3.234074    0.000000   11.617037    ( 0.0000,  0.0000,  0.0000)
  11 Li     6.468148    0.000000   11.617037    ( 0.0000,  0.0000,  0.0000)
  12 Li     0.000000    3.234074   11.617037    ( 0.0000,  0.0000,  0.0000)
  13 Li     3.234074    3.234074   11.617037    ( 0.0000,  0.0000,  0.0000)
  14 Li     6.468148    3.234074   11.617037    ( 0.0000,  0.0000,  0.0000)
  15 Li     0.000000    6.468148   11.617037    ( 0.0000,  0.0000,  0.0000)
  16 Li     3.234074    6.468148   11.617037    ( 0.0000,  0.0000,  0.0000)
  17 Li     6.468148    6.468148   11.617037    ( 0.0000,  0.0000,  0.0000)
  18 Li     1.616974    1.617077   13.469600    ( 0.0000,  0.0000,  0.0000)
  19 Li     4.851109    1.616981   13.470012    ( 0.0000,  0.0000,  0.0000)
  20 Li     8.085251    1.617067   13.469644    ( 0.0000,  0.0000,  0.0000)
  21 Li     1.616992    4.851112   13.470029    ( 0.0000,  0.0000,  0.0000)
  22 Li     4.851104    4.851117   13.469783    ( 0.0000,  0.0000,  0.0000)
  23 Li     8.085233    4.851102   13.470050    ( 0.0000,  0.0000,  0.0000)
  24 Li     1.617143    8.085144   13.469574    ( 0.0000,  0.0000,  0.0000)
  25 Li     4.851106    8.085217   13.470028    ( 0.0000,  0.0000,  0.0000)
  26 Li     8.085080    8.085156   13.469586    ( 0.0000,  0.0000,  0.0000)
  27 Li    -0.000023   -0.003577   15.410120    ( 0.0000,  0.0000,  0.0000)
  28 Li     3.234432   -0.000085   15.445760    ( 0.0000,  0.0000,  0.0000)
  29 Li     6.467661   -0.000099   15.446049    ( 0.0000,  0.0000,  0.0000)
  30 Li     0.000044    3.233472   15.446253    ( 0.0000,  0.0000,  0.0000)
  31 Li     3.234270    3.234272   15.445750    ( 0.0000,  0.0000,  0.0000)
  32 Li     6.467939    3.234296   15.445696    ( 0.0000,  0.0000,  0.0000)
  33 Li    -0.000010    6.468021   15.445917    ( 0.0000,  0.0000,  0.0000)
  34 Li     3.234089    6.468071   15.445803    ( 0.0000,  0.0000,  0.0000)
  35 Li     6.468143    6.468063   15.445800    ( 0.0000,  0.0000,  0.0000)
  36 O      9.701049    9.703041   19.445295    ( 0.0000,  0.0000,  0.0000)
  37 O      6.803516    9.745679   19.212404    ( 0.0000,  0.0000,  0.0000)
  38 C      8.967267   10.875995   19.048692    ( 0.0000,  0.0000,  0.0000)
  39 C      7.565148   10.887682   19.604201    ( 0.0000,  0.0000,  0.0000)
  40 H      9.502072   11.788203   19.326354    ( 0.0000,  0.0000,  0.0000)
  41 H      8.930584   10.833241   17.960475    ( 0.0000,  0.0000,  0.0000)
  42 H      7.027696   11.761651   19.226297    ( 0.0000,  0.0000,  0.0000)
  43 H      7.613528   10.962627   20.702037    ( 0.0000,  0.0000,  0.0000)
  44 H      9.871977    9.776808   20.393566    ( 0.0000,  0.0000,  0.0000)
  45 H      7.383573    8.978773   19.309739    ( 0.0000,  0.0000,  0.0000)
  46 N      9.709216    9.667753   16.965306    ( 0.0000,  0.0000,  0.0000)
  47 N      9.712594   10.825863   16.930360    ( 0.0000,  0.0000,  0.0000)

Unit cell:
           periodic     x           y           z      points  spacing
  1. axis:    yes    9.702222    0.000000    0.000000    60     0.1617
  2. axis:    yes    0.000000    9.702222    0.000000    60     0.1617
  3. axis:    no     0.000000    0.000000   26.351111   164     0.1607

  Lengths:   9.702222   9.702222  26.351111
  Angles:   90.000000  90.000000  90.000000

Effective grid spacing dv^(1/3) = 0.1614

     iter     time        total  log10-change:
                         energy  eigst   dens
iter:   1 12:36:30  -327.351276  +0.34
iter:   2 12:36:37  -324.456387  +0.15  -1.04
iter:   3 12:36:44  -323.451535  -0.56  -1.11
iter:   4 12:36:52  -323.280371  -0.77  -1.45
Writing to output.gpw (mode='')

iter:   5 12:36:59  -323.229447  -1.40  -1.78
iter:   6 12:37:06  -323.317257  -1.15  -1.94
iter:   7 12:37:14  -323.221634  -1.15  -1.62
iter:   8 12:37:26  -323.201540  -1.57  -2.01
iter:   9 12:37:34  -323.203318c -1.81  -2.13
Writing to output.gpw (mode='')

iter:  10 12:37:41  -323.194298c -2.25  -2.22
iter:  11 12:37:49  -323.190487c -2.49  -2.41
iter:  12 12:37:56  -323.190152c -2.74  -2.56
iter:  13 12:38:04  -323.189889c -2.73  -2.61
iter:  14 12:38:11  -323.189933c -2.93  -2.81
Writing to output.gpw (mode='')

iter:  15 12:38:18  -323.189950c -3.09  -2.96
iter:  16 12:38:26  -323.190060c -3.27  -3.04
iter:  17 12:38:33  -323.190131c -3.53  -3.11
iter:  18 12:38:40  -323.190048c -3.83  -3.26
iter:  19 12:38:48  -323.190097c -3.96  -3.34
Writing to output.gpw (mode='')

iter:  20 12:38:55  -323.190127c -3.80  -3.44
iter:  21 12:39:02  -323.190127c -4.14  -3.65
iter:  22 12:39:10  -323.190124c -4.33  -3.73
iter:  23 12:39:17  -323.190133c -4.40  -3.87
iter:  24 12:39:24  -323.190138c -4.58  -3.96
Writing to output.gpw (mode='')

iter:  25 12:39:32  -323.190136c -4.62  -3.98
iter:  26 12:39:39  -323.190139c -4.70  -4.07c
iter:  27 12:39:46  -323.190144c -4.82  -4.12c
iter:  28 12:39:54  -323.190149c -4.89  -4.19c
iter:  29 12:40:01  -323.190146c -5.21  -4.21c
Writing to output.gpw (mode='')

iter:  30 12:40:08  -323.190148c -5.36  -4.47c
iter:  31 12:40:16  -323.190151c -5.21  -4.56c
iter:  32 12:40:23  -323.190152c -5.43  -4.55c
iter:  33 12:40:30  -323.190153c -5.44  -4.72c
iter:  34 12:40:38  -323.190153c -5.60  -4.75c
Writing to output.gpw (mode='')

iter:  35 12:40:45  -323.190153c -5.60  -4.78c
iter:  36 12:40:52  -323.190155c -5.59  -4.76c
iter:  37 12:41:00  -323.190154c -5.91  -4.63c
iter:  38 12:41:10  -323.190156c -6.00  -4.65c
iter:  39 12:41:17  -323.190156c -5.94  -4.58c
Writing to output.gpw (mode='')

iter:  40 12:41:24  -323.190153c -6.03  -4.60c
iter:  41 12:41:32  -323.190151c -6.04  -4.79c
iter:  42 12:41:39  -323.190150c -6.11  -4.92c
iter:  43 12:41:46  -323.190151c -6.42  -5.25c
iter:  44 12:41:54  -323.190150c -6.44  -5.24c
Writing to output.gpw (mode='')

iter:  45 12:42:01  -323.190150c -6.52  -5.40c
iter:  46 12:42:08  -323.190150c -6.59  -5.44c
iter:  47 12:42:16  -323.190150c -6.52  -5.45c
iter:  48 12:42:29  -323.190150c -6.67  -5.56c
iter:  49 12:42:36  -323.190150c -6.70  -5.60c
Writing to output.gpw (mode='')

iter:  50 12:42:44  -323.190150c -6.87  -5.71c
iter:  51 12:42:51  -323.190150c -6.73  -5.74c
iter:  52 12:42:58  -323.190150c -6.86  -5.81c
iter:  53 12:43:06  -323.190150c -6.89  -5.83c
iter:  54 12:43:13  -323.190150c -7.02  -5.97c
Writing to output.gpw (mode='')

iter:  55 12:43:20  -323.190150c -7.11  -5.82c
iter:  56 12:43:28  -323.190150c -7.22  -6.02c
iter:  57 12:43:35  -323.190150c -7.21  -5.98c
iter:  58 12:43:42  -323.190150c -7.28  -5.88c
iter:  59 12:43:50  -323.190150c -7.24  -5.83c
Writing to output.gpw (mode='')

iter:  60 12:43:57  -323.190150c -7.56c -5.70c

Converged after 60 iterations.

Dipole moment: (-12.693999, -19.141253, 0.195432) |e|*Ang

Energy contributions relative to reference atoms: (reference = -16475.706344)

Kinetic:       +182.062061
Potential:     -168.191663
External:        +0.000000
XC:            -338.134095
Entropy (-ST):   -0.152059
Local:           +1.149576
--------------------------
Free energy:   -323.266179
Extrapolated:  -323.190150

Dipole-layer corrected work functions: 3.406554, 3.030868 eV

Showing only first 2 kpts
 Kpt  Band  Eigenvalues  Occupancy
  0    34     -3.46874    1.98662
  0    35     -3.40671    1.95450
  0    36     -3.06252    0.08427
  0    37     -3.03946    0.05397

  1    34     -3.27730    1.52693
  1    35     -3.20798    0.89306
  1    36     -3.18075    0.63761
  1    37     -3.09899    0.16720


Fermi level: -3.21871

No gap

Forces in eV/Ang:
  0 Li    0.01185    0.00946   -0.27422
  1 Li    0.00024    0.00248   -0.27143
  2 Li   -0.01243    0.00986   -0.27361
  3 Li   -0.00564    0.00548   -0.26387
  4 Li    0.00054   -0.00333   -0.29055
  5 Li    0.00600    0.00533   -0.26400
  6 Li    0.00498   -0.01684   -0.27724
  7 Li    0.00014    0.00737   -0.26264
  8 Li   -0.00483   -0.01644   -0.27766
  9 Li    0.00141   -0.00264    0.33865
 10 Li    0.00852    0.00505    0.26155
 11 Li   -0.00874    0.00598    0.26224
 12 Li   -0.00042    0.02119    0.25109
 13 Li    0.00077   -0.00322    0.26051
 14 Li   -0.00028   -0.00380    0.25848
 15 Li    0.00009   -0.00660    0.25582
 16 Li    0.01363   -0.00574    0.24665
 17 Li   -0.01432   -0.00717    0.24787
 18 Li   -0.01008    0.01661   -0.04311
 19 Li   -0.00007   -0.01404    0.06304
 20 Li    0.01024    0.01422   -0.03656
 21 Li   -0.01017    0.00099    0.06310
 22 Li   -0.00175    0.00086    0.01266
 23 Li    0.01066   -0.00189    0.06826
 24 Li    0.02768   -0.01981   -0.05272
 25 Li   -0.00158    0.00999    0.06690
 26 Li   -0.02777   -0.01674   -0.04787
 27 Li   -0.02087   -0.49696   -5.93087
 28 Li    0.05782   -0.01558   -0.01627
 29 Li   -0.08787   -0.02128    0.04705
 30 Li    0.01189   -0.20229    0.12627
 31 Li    0.04229    0.04381   -0.03771
 32 Li   -0.04701    0.05055   -0.05000
 33 Li   -0.00294   -0.00605    0.00942
 34 Li    0.00647   -0.01965   -0.02941
 35 Li   -0.00276   -0.01963   -0.02987
 36 O    -0.28743    0.21753    0.08445
 37 O    -0.08599   -0.10268   -0.18022
 38 C    -1.06022    0.42400    2.65374
 39 C    -0.04012    0.11681    0.47611
 40 H     0.05829    0.13938    0.10240
 41 H    -1.84948    1.31459    2.97977
 42 H    -0.00044    0.04857    0.02533
 43 H    -0.21332   -0.00288    0.11476
 44 H     0.08007   -0.02005    0.04774
 45 H     0.02248   -0.05092    0.00349
 46 N     1.42472   -0.84493    2.74522
 47 N     1.97769   -0.59630   -3.16903

System changes: positions 

Initializing position-dependent things.

Density initialized from wave functions
       .-----------------------.  
      /|                       |  
     / |                       |  
    /  |                       |  
   /   |                       |  
  /    |                       |  
 *     |                       |  
 |     |                       |  
 |     |                       |  
 |     |                 H     |  
 |     |                       |  
 |     N                       |  
 |     |             H         |  
 H     |       Li   C  Li H    Li 
 |     |                CO     |  
 |     |     Li   O  Li H    Li|  
 |     |                       |  
 |NLi  |  LLi     LLi     Li   |  
 |     |                       |  
 |     |Li      Li      Li     |  
 |   Li|     Li      Li        |  
 |    Li  Li  Li  Li  Li  Li   |  
 | Li  |   Li      Li          |  
 |     |Li      Li      Li     |  
 Li    | Li      Li            |  
 |    Li      Li      Li       |  
 |     |                       |  
 |     |                       |  
 |     |                       |  
 |     |                       |  
 |     |                       |  
 |     |                       |  
 |     .-----------------------.  
 |    /                       /   
 |   /                       /    
 |  /                       /     
 | /                       /      
 |/                       /       
 *-----------------------*        

Positions:
   0 Li     1.617037    1.617037   10.000000    ( 0.0000,  0.0000,  0.0000)
   1 Li     4.851111    1.617037   10.000000    ( 0.0000,  0.0000,  0.0000)
   2 Li     8.085185    1.617037   10.000000    ( 0.0000,  0.0000,  0.0000)
   3 Li     1.617037    4.851111   10.000000    ( 0.0000,  0.0000,  0.0000)
   4 Li     4.851111    4.851111   10.000000    ( 0.0000,  0.0000,  0.0000)
   5 Li     8.085185    4.851111   10.000000    ( 0.0000,  0.0000,  0.0000)
   6 Li     1.617037    8.085185   10.000000    ( 0.0000,  0.0000,  0.0000)
   7 Li     4.851111    8.085185   10.000000    ( 0.0000,  0.0000,  0.0000)
   8 Li     8.085185    8.085185   10.000000    ( 0.0000,  0.0000,  0.0000)
   9 Li     0.000000    0.000000   11.617037    ( 0.0000,  0.0000,  0.0000)
  10 Li     3.234074    0.000000   11.617037    ( 0.0000,  0.0000,  0.0000)
  11 Li     6.468148    0.000000   11.617037    ( 0.0000,  0.0000,  0.0000)
  12 Li     0.000000    3.234074   11.617037    ( 0.0000,  0.0000,  0.0000)
  13 Li     3.234074    3.234074   11.617037    ( 0.0000,  0.0000,  0.0000)
  14 Li     6.468148    3.234074   11.617037    ( 0.0000,  0.0000,  0.0000)
  15 Li     0.000000    6.468148   11.617037    ( 0.0000,  0.0000,  0.0000)
  16 Li     3.234074    6.468148   11.617037    ( 0.0000,  0.0000,  0.0000)
  17 Li     6.468148    6.468148   11.617037    ( 0.0000,  0.0000,  0.0000)
  18 Li     1.616906    1.617192   13.469302    ( 0.0000,  0.0000,  0.0000)
  19 Li     4.851109    1.616885   13.470442    ( 0.0000,  0.0000,  0.0000)
  20 Li     8.085319    1.617166   13.469389    ( 0.0000,  0.0000,  0.0000)
  21 Li     1.616923    4.851119   13.470458    ( 0.0000,  0.0000,  0.0000)
  22 Li     4.851092    4.851123   13.469870    ( 0.0000,  0.0000,  0.0000)
  23 Li     8.085306    4.851089   13.470514    ( 0.0000,  0.0000,  0.0000)
  24 Li     1.617333    8.085006   13.469210    ( 0.0000,  0.0000,  0.0000)
  25 Li     4.851095    8.085286   13.470484    ( 0.0000,  0.0000,  0.0000)
  26 Li     8.084889    8.085039   13.469255    ( 0.0000,  0.0000,  0.0000)
  27 Li    -0.000170   -0.006881   15.370257    ( 0.0000,  0.0000,  0.0000)
  28 Li     3.234820   -0.000191   15.445656    ( 0.0000,  0.0000,  0.0000)
  29 Li     6.467068   -0.000244   15.446377    ( 0.0000,  0.0000,  0.0000)
  30 Li     0.000125    3.232074   15.447130    ( 0.0000,  0.0000,  0.0000)
  31 Li     3.234558    3.234571   15.445494    ( 0.0000,  0.0000,  0.0000)
  32 Li     6.467619    3.234642   15.445356    ( 0.0000,  0.0000,  0.0000)
  33 Li    -0.000030    6.467986   15.445985    ( 0.0000,  0.0000,  0.0000)
  34 Li     3.234134    6.467936   15.445603    ( 0.0000,  0.0000,  0.0000)
  35 Li     6.468124    6.467929   15.445597    ( 0.0000,  0.0000,  0.0000)
  36 O      9.699082    9.704534   19.445934    ( 0.0000,  0.0000,  0.0000)
  37 O      6.802938    9.744984   19.211178    ( 0.0000,  0.0000,  0.0000)
  38 C      8.960141   10.878845   19.066584    ( 0.0000,  0.0000,  0.0000)
  39 C      7.564822   10.888476   19.607488    ( 0.0000,  0.0000,  0.0000)
  40 H      9.502468   11.789169   19.327083    ( 0.0000,  0.0000,  0.0000)
  41 H      8.918100   10.842128   17.980597    ( 0.0000,  0.0000,  0.0000)
  42 H      7.027696   11.761979   19.226472    ( 0.0000,  0.0000,  0.0000)
  43 H      7.612056   10.962607   20.702835    ( 0.0000,  0.0000,  0.0000)
  44 H      9.872525    9.776662   20.393886    ( 0.0000,  0.0000,  0.0000)
  45 H      7.383727    8.978431   19.309760    ( 0.0000,  0.0000,  0.0000)
  46 N      9.718878    9.663887   16.983584    ( 0.0000,  0.0000,  0.0000)
  47 N      9.725970   10.819936   16.908839    ( 0.0000,  0.0000,  0.0000)

Unit cell:
           periodic     x           y           z      points  spacing
  1. axis:    yes    9.702222    0.000000    0.000000    60     0.1617
  2. axis:    yes    0.000000    9.702222    0.000000    60     0.1617
  3. axis:    no     0.000000    0.000000   26.351111   164     0.1607

  Lengths:   9.702222   9.702222  26.351111
  Angles:   90.000000  90.000000  90.000000

Effective grid spacing dv^(1/3) = 0.1614

     iter     time        total  log10-change:
                         energy  eigst   dens
iter:   1 12:44:09  -323.690100  -0.88
iter:   2 12:44:20  -323.694508  -1.59  -2.31
iter:   3 12:44:29  -323.694525c -2.03  -2.30
iter:   4 12:44:36  -323.692992c -2.11  -2.43
Writing to output.gpw (mode='')

iter:   5 12:44:43  -323.692490c -2.22  -2.58
iter:   6 12:44:50  -323.691991c -2.48  -2.63
iter:   7 12:44:58  -323.692189c -2.83  -2.80
iter:   8 12:45:05  -323.692188c -3.29  -2.92
iter:   9 12:45:12  -323.692017c -3.33  -2.92
Writing to output.gpw (mode='')

iter:  10 12:45:20  -323.692081c -3.78  -3.17
iter:  11 12:45:27  -323.692097c -4.01  -3.34
iter:  12 12:45:34  -323.692108c -4.14  -3.36
iter:  13 12:45:41  -323.692081c -4.33  -3.37
iter:  14 12:45:49  -323.692085c -4.35  -3.45
Writing to output.gpw (mode='')

iter:  15 12:45:56  -323.692100c -4.52  -3.60
iter:  16 12:46:03  -323.692116c -4.61  -3.65
iter:  17 12:46:10  -323.692100c -4.73  -3.70
iter:  18 12:46:18  -323.692103c -5.20  -3.91
iter:  19 12:46:25  -323.692107c -5.33  -4.12c
Writing to output.gpw (mode='')

iter:  20 12:46:32  -323.692107c -5.42  -4.16c
iter:  21 12:46:39  -323.692108c -5.50  -4.30c
iter:  22 12:46:47  -323.692109c -5.78  -4.39c
iter:  23 12:46:54  -323.692110c -5.81  -4.49c
iter:  24 12:47:01  -323.692107c -5.86  -4.46c
Writing to output.gpw (mode='')

iter:  25 12:47:09  -323.692108c -6.28  -4.79c
iter:  26 12:47:16  -323.692109c -6.28  -4.89c
iter:  27 12:47:31  -323.692109c -6.22  -4.93c
iter:  28 12:47:38  -323.692109c -6.36  -4.98c
iter:  29 12:47:45  -323.692109c -6.51  -5.09c
Writing to output.gpw (mode='')

iter:  30 12:47:52  -323.692108c -6.62  -5.13c
iter:  31 12:48:00  -323.692109c -6.66  -5.31c
iter:  32 12:48:07  -323.692109c -6.88  -5.36c
iter:  33 12:48:14  -323.692108c -6.80  -5.39c
iter:  34 12:48:22  -323.692108c -7.07  -5.59c
Writing to output.gpw (mode='')

iter:  35 12:48:29  -323.692108c -7.31  -5.64c
iter:  36 12:48:36  -323.692108c -7.28  -5.69c
iter:  37 12:48:43  -323.692108c -7.34  -5.84c
iter:  38 12:48:51  -323.692108c -7.27  -5.86c
iter:  39 12:48:58  -323.692108c -7.54c -5.92c

Converged after 39 iterations.

Dipole moment: (-14.742722, -18.718732, 0.191403) |e|*Ang

Energy contributions relative to reference atoms: (reference = -16475.706344)

Kinetic:       +180.177368
Potential:     -167.112836
External:        +0.000000
XC:            -337.821113
Entropy (-ST):   -0.151064
Local:           +1.140004
--------------------------
Free energy:   -323.767640
Extrapolated:  -323.692108

Dipole-layer corrected work functions: 3.407298, 3.039356 eV

Showing only first 2 kpts
 Kpt  Band  Eigenvalues  Occupancy
  0    34     -3.47351    1.98666
  0    35     -3.41864    1.96056
  0    36     -3.06825    0.08609
  0    37     -3.04006    0.04991

  1    34     -3.27617    1.48416
  1    35     -3.21450    0.91196
  1    36     -3.18826    0.66307
  1    37     -3.10187    0.16197


Fermi level: -3.22333

No gap
Writing to output.gpw (mode='')


Forces in eV/Ang:
  0 Li    0.01188    0.00978   -0.27503
  1 Li    0.00026    0.00212   -0.27055
  2 Li   -0.01246    0.01018   -0.27455
  3 Li   -0.00624    0.00605   -0.26331
  4 Li    0.00078   -0.00312   -0.29206
  5 Li    0.00643    0.00603   -0.26395
  6 Li    0.00444   -0.01721   -0.27855
  7 Li    0.00033    0.00723   -0.26342
  8 Li   -0.00434   -0.01708   -0.27901
  9 Li    0.00160   -0.00139    0.34470
 10 Li    0.00852    0.00445    0.26361
 11 Li   -0.00909    0.00536    0.26313
 12 Li   -0.00040    0.02083    0.25388
 13 Li    0.00431   -0.00217    0.25953
 14 Li   -0.00368   -0.00296    0.25748
 15 Li   -0.00006   -0.00822    0.25288
 16 Li    0.01271   -0.00627    0.24700
 17 Li   -0.01350   -0.00720    0.24848
 18 Li   -0.00285    0.02402   -0.05309
 19 Li   -0.00021   -0.01397    0.06407
 20 Li    0.00240    0.02029   -0.04680
 21 Li   -0.00950   -0.00088    0.06284
 22 Li   -0.00218    0.00183    0.01210
 23 Li    0.01022   -0.00383    0.06850
 24 Li    0.02958   -0.02788   -0.05906
 25 Li   -0.00166    0.00882    0.06676
 26 Li   -0.03001   -0.02329   -0.05328
 27 Li   -0.02945   -0.45421   -4.57803
 28 Li    0.06024   -0.01503   -0.01773
 29 Li   -0.09029   -0.02069    0.04586
 30 Li    0.01407   -0.21633    0.12642
 31 Li    0.04223    0.04364   -0.03880
 32 Li   -0.04688    0.05026   -0.05045
 33 Li   -0.00241   -0.00103    0.00941
 34 Li    0.00577   -0.01974   -0.02919
 35 Li   -0.00204   -0.02001   -0.02965
 36 O    -0.28860    0.21923    0.24333
 37 O    -0.03506   -0.07006   -0.16920
 38 C    -0.76858    0.37111    1.81794
 39 C    -0.25359    0.11209    0.61420
 40 H     0.05200    0.19186    0.22005
 41 H    -1.61625    1.20542    2.74990
 42 H     0.01225    0.03766    0.04243
 43 H    -0.28748   -0.00558    0.20259
 44 H     0.10139   -0.06143    0.06555
 45 H     0.01452   -0.04132    0.00099
 46 N     1.35778   -0.57649    1.59132
 47 N     1.75123   -0.73531   -2.81666

System changes: positions 

Initializing position-dependent things.

Density initialized from wave functions
       .-----------------------.  
      /|                       |  
     / |                       |  
    /  |                       |  
   /   |                       |  
  /    |                       |  
 *     |                       |  
 |     |                       |  
 |     |                       |  
 |     |                 H     |  
 |     |                       |  
 |     N                       |  
 |     |             H         |  
 H     |       Li   C  Li H    Li 
 |     |                CO     |  
 |     |     Li   O  Li H    Li|  
 |     |                       |  
 |NLi  |  LLi     LLi     Li   |  
 |     |                       |  
 |     |Li      Li      Li     |  
 |   Li|     Li      Li        |  
 |    Li  Li  Li  Li  Li  Li   |  
 | Li  |   Li      Li          |  
 |     |Li      Li      Li     |  
 Li    | Li      Li            |  
 |    Li      Li      Li       |  
 |     |                       |  
 |     |                       |  
 |     |                       |  
 |     |                       |  
 |     |                       |  
 |     |                       |  
 |     .-----------------------.  
 |    /                       /   
 |   /                       /    
 |  /                       /     
 | /                       /      
 |/                       /       
 *-----------------------*        

Positions:
   0 Li     1.617037    1.617037   10.000000    ( 0.0000,  0.0000,  0.0000)
   1 Li     4.851111    1.617037   10.000000    ( 0.0000,  0.0000,  0.0000)
   2 Li     8.085185    1.617037   10.000000    ( 0.0000,  0.0000,  0.0000)
   3 Li     1.617037    4.851111   10.000000    ( 0.0000,  0.0000,  0.0000)
   4 Li     4.851111    4.851111   10.000000    ( 0.0000,  0.0000,  0.0000)
   5 Li     8.085185    4.851111   10.000000    ( 0.0000,  0.0000,  0.0000)
   6 Li     1.617037    8.085185   10.000000    ( 0.0000,  0.0000,  0.0000)
   7 Li     4.851111    8.085185   10.000000    ( 0.0000,  0.0000,  0.0000)
   8 Li     8.085185    8.085185   10.000000    ( 0.0000,  0.0000,  0.0000)
   9 Li     0.000000    0.000000   11.617037    ( 0.0000,  0.0000,  0.0000)
  10 Li     3.234074    0.000000   11.617037    ( 0.0000,  0.0000,  0.0000)
  11 Li     6.468148    0.000000   11.617037    ( 0.0000,  0.0000,  0.0000)
  12 Li     0.000000    3.234074   11.617037    ( 0.0000,  0.0000,  0.0000)
  13 Li     3.234074    3.234074   11.617037    ( 0.0000,  0.0000,  0.0000)
  14 Li     6.468148    3.234074   11.617037    ( 0.0000,  0.0000,  0.0000)
  15 Li     0.000000    6.468148   11.617037    ( 0.0000,  0.0000,  0.0000)
  16 Li     3.234074    6.468148   11.617037    ( 0.0000,  0.0000,  0.0000)
  17 Li     6.468148    6.468148   11.617037    ( 0.0000,  0.0000,  0.0000)
  18 Li     1.616919    1.617484   13.468694    ( 0.0000,  0.0000,  0.0000)
  19 Li     4.851106    1.616741   13.471112    ( 0.0000,  0.0000,  0.0000)
  20 Li     8.085298    1.617411   13.468846    ( 0.0000,  0.0000,  0.0000)
  21 Li     1.616828    4.851099   13.471108    ( 0.0000,  0.0000,  0.0000)
  22 Li     4.851066    4.851148   13.469992    ( 0.0000,  0.0000,  0.0000)
  23 Li     8.085409    4.851038   13.471226    ( 0.0000,  0.0000,  0.0000)
  24 Li     1.617650    8.084671   13.468562    ( 0.0000,  0.0000,  0.0000)
  25 Li     4.851078    8.085370   13.471176    ( 0.0000,  0.0000,  0.0000)
  26 Li     8.084565    8.084760   13.468673    ( 0.0000,  0.0000,  0.0000)
  27 Li    -0.000524   -0.011374   15.330512    ( 0.0000,  0.0000,  0.0000)
  28 Li     3.235462   -0.000344   15.445461    ( 0.0000,  0.0000,  0.0000)
  29 Li     6.466115   -0.000455   15.446842    ( 0.0000,  0.0000,  0.0000)
  30 Li     0.000284    3.229756   15.448435    ( 0.0000,  0.0000,  0.0000)
  31 Li     3.234996    3.235023   15.445085    ( 0.0000,  0.0000,  0.0000)
  32 Li     6.467133    3.235161   15.444830    ( 0.0000,  0.0000,  0.0000)
  33 Li    -0.000052    6.468002   15.446081    ( 0.0000,  0.0000,  0.0000)
  34 Li     3.234189    6.467731   15.445301    ( 0.0000,  0.0000,  0.0000)
  35 Li     6.468107    6.467719   15.445291    ( 0.0000,  0.0000,  0.0000)
  36 O      9.696086    9.706813   19.449366    ( 0.0000,  0.0000,  0.0000)
  37 O      6.802871    9.744448   19.209487    ( 0.0000,  0.0000,  0.0000)
  38 C      8.953845   10.882399   19.080599    ( 0.0000,  0.0000,  0.0000)
  39 C      7.560958   10.889612   19.614653    ( 0.0000,  0.0000,  0.0000)
  40 H      9.502971   11.791461   19.330044    ( 0.0000,  0.0000,  0.0000)
  41 H      8.902662   10.854016   18.007839    ( 0.0000,  0.0000,  0.0000)
  42 H      7.027897   11.762307   19.227012    ( 0.0000,  0.0000,  0.0000)
  43 H      7.608646   10.962533   20.705446    ( 0.0000,  0.0000,  0.0000)
  44 H      9.873701    9.775785   20.394673    ( 0.0000,  0.0000,  0.0000)
  45 H      7.383831    8.978057   19.309757    ( 0.0000,  0.0000,  0.0000)
  46 N      9.732584    9.658707   16.993475    ( 0.0000,  0.0000,  0.0000)
  47 N      9.742841   10.812261   16.881671    ( 0.0000,  0.0000,  0.0000)

Unit cell:
           periodic     x           y           z      points  spacing
  1. axis:    yes    9.702222    0.000000    0.000000    60     0.1617
  2. axis:    yes    0.000000    9.702222    0.000000    60     0.1617
  3. axis:    no     0.000000    0.000000   26.351111   164     0.1607

  Lengths:   9.702222   9.702222  26.351111
  Angles:   90.000000  90.000000  90.000000

Effective grid spacing dv^(1/3) = 0.1614

     iter     time        total  log10-change:
                         energy  eigst   dens
iter:   1 12:49:07  -324.135483  -0.87
iter:   2 12:49:14  -324.139219  -1.57  -2.25
iter:   3 12:49:22  -324.139974c -2.02  -2.35
iter:   4 12:49:29  -324.137865c -2.18  -2.41
Writing to output.gpw (mode='')

iter:   5 12:49:36  -324.137517c -2.05  -2.58
iter:   6 12:49:44  -324.136311c -2.59  -2.55
iter:   7 12:49:51  -324.136579c -2.65  -2.84
iter:   8 12:49:59  -324.136610c -3.14  -2.90
iter:   9 12:50:06  -324.136653c -3.10  -2.99
Writing to output.gpw (mode='')

iter:  10 12:50:13  -324.136473c -3.75  -2.98
iter:  11 12:50:21  -324.136502c -4.11  -3.16
iter:  12 12:50:28  -324.136515c -3.78  -3.20
iter:  13 12:50:35  -324.136529c -4.36  -3.42
iter:  14 12:50:43  -324.136516c -4.44  -3.54
Writing to output.gpw (mode='')

iter:  15 12:50:50  -324.136521c -4.58  -3.72
iter:  16 12:50:57  -324.136523c -4.80  -3.79
iter:  17 12:51:05  -324.136522c -4.94  -3.98
iter:  18 12:51:12  -324.136523c -5.30  -4.08c
iter:  19 12:51:19  -324.136523c -5.37  -4.23c
Writing to output.gpw (mode='')

iter:  20 12:51:27  -324.136525c -5.56  -4.35c
iter:  21 12:51:34  -324.136525c -5.70  -4.42c
iter:  22 12:51:41  -324.136524c -5.58  -4.45c
iter:  23 12:51:49  -324.136524c -5.92  -4.52c
iter:  24 12:51:56  -324.136524c -6.03  -4.62c
Writing to output.gpw (mode='')

iter:  25 12:52:04  -324.136524c -6.07  -4.71c
iter:  26 12:52:11  -324.136525c -6.19  -4.75c
iter:  27 12:52:18  -324.136524c -6.29  -4.79c
iter:  28 12:52:32  -324.136525c -6.58  -4.79c
iter:  29 12:52:39  -324.136525c -6.58  -4.90c
Writing to output.gpw (mode='')

iter:  30 12:52:46  -324.136525c -6.79  -5.11c
iter:  31 12:52:54  -324.136525c -6.83  -5.23c
iter:  32 12:53:01  -324.136525c -6.83  -5.27c
iter:  33 12:53:08  -324.136525c -6.88  -5.39c
iter:  34 12:53:16  -324.136525c -7.31  -5.37c
Writing to output.gpw (mode='')

iter:  35 12:53:23  -324.136525c -7.39  -5.42c
iter:  36 12:53:30  -324.136525c -7.29  -5.42c
iter:  37 12:53:38  -324.136525c -7.41c -5.31c

Converged after 37 iterations.

Dipole moment: (-17.163361, -18.199247, 0.193355) |e|*Ang

Energy contributions relative to reference atoms: (reference = -16475.706344)

Kinetic:       +178.710538
Potential:     -166.312818
External:        +0.000000
XC:            -337.593729
Entropy (-ST):   -0.150122
Local:           +1.134545
--------------------------
Free energy:   -324.211587
Extrapolated:  -324.136525

Dipole-layer corrected work functions: 3.407594, 3.035900 eV

Showing only first 2 kpts
 Kpt  Band  Eigenvalues  Occupancy
  0    34     -3.46991    1.98612
  0    35     -3.42259    1.96462
  0    36     -3.07193    0.09518
  0    37     -3.03111    0.04322

  1    34     -3.27190    1.46333
  1    35     -3.21487    0.93131
  1    36     -3.18791    0.67397
  1    37     -3.09738    0.15349


Fermi level: -3.22175

No gap
Writing to output.gpw (mode='')


Forces in eV/Ang:
  0 Li    0.01210    0.00993   -0.27612
  1 Li    0.00041    0.00176   -0.26975
  2 Li   -0.01277    0.01032   -0.27572
  3 Li   -0.00679    0.00674   -0.26269
  4 Li    0.00097   -0.00296   -0.29340
  5 Li    0.00686    0.00667   -0.26381
  6 Li    0.00385   -0.01756   -0.27997
  7 Li    0.00048    0.00737   -0.26392
  8 Li   -0.00383   -0.01753   -0.28048
  9 Li    0.00179   -0.00015    0.35042
 10 Li    0.00872    0.00365    0.26570
 11 Li   -0.00958    0.00463    0.26397
 12 Li   -0.00035    0.02044    0.25715
 13 Li    0.00774   -0.00087    0.25873
 14 Li   -0.00720   -0.00193    0.25651
 15 Li   -0.00019   -0.00937    0.25032
 16 Li    0.01172   -0.00699    0.24747
 17 Li   -0.01261   -0.00749    0.24933
 18 Li    0.00479    0.03102   -0.06406
 19 Li   -0.00054   -0.01405    0.06495
 20 Li   -0.00594    0.02634   -0.05691
 21 Li   -0.00940   -0.00293    0.06264
 22 Li   -0.00247    0.00313    0.01114
 23 Li    0.01033   -0.00606    0.06862
 24 Li    0.03249   -0.03611   -0.06611
 25 Li   -0.00188    0.00748    0.06600
 26 Li   -0.03314   -0.02999   -0.05904
 27 Li   -0.04492   -0.42574   -3.65234
 28 Li    0.06143   -0.01483   -0.01860
 29 Li   -0.09056   -0.01987    0.04529
 30 Li    0.01601   -0.23214    0.12833
 31 Li    0.04328    0.04408   -0.03962
 32 Li   -0.04662    0.04976   -0.05051
 33 Li   -0.00189    0.00326    0.00983
 34 Li    0.00554   -0.01973   -0.02879
 35 Li   -0.00179   -0.02014   -0.02916
 36 O    -0.29443    0.19759    0.23157
 37 O    -0.02021   -0.03476   -0.14075
 38 C    -0.53744    0.34427    1.50989
 39 C    -0.30402    0.08975    0.57137
 40 H     0.02466    0.20341    0.30243
 41 H    -1.36432    0.99619    2.10893
 42 H    -0.01114    0.04319    0.06840
 43 H    -0.35164   -0.00577    0.33329
 44 H     0.12320   -0.06473    0.16514
 45 H     0.01662   -0.02957    0.00261
 46 N     1.17195   -0.17234    0.85185
 47 N     1.51689   -0.98849   -2.38719

System changes: positions 

Initializing position-dependent things.

Density initialized from wave functions
       .-----------------------.  
      /|                       |  
     / |                       |  
    /  |                       |  
   /   |                       |  
  /    |                       |  
 *     |                       |  
 |     |                       |  
 |     |                       |  
 |     |                 H     |  
 |     |                       |  
 |     N                       |  
 |     |             H         |  
 H     |       Li   C  Li H    Li 
 |     |                CO     |  
 |     |     Li   O  Li H    Li|  
 |     |                       |  
 |NLi  |  LLi     LLi     Li   |  
 |     |                       |  
 |     |Li      Li      Li     |  
 |   Li|     Li      Li        |  
 |    Li  Li  Li  Li  Li  Li   |  
 | Li  |   Li      Li          |  
 |     |Li      Li      Li     |  
 Li    | Li      Li            |  
 |    Li      Li      Li       |  
 |     |                       |  
 |     |                       |  
 |     |                       |  
 |     |                       |  
 |     |                       |  
 |     |                       |  
 |     .-----------------------.  
 |    /                       /   
 |   /                       /    
 |  /                       /     
 | /                       /      
 |/                       /       
 *-----------------------*        

Positions:
   0 Li     1.617037    1.617037   10.000000    ( 0.0000,  0.0000,  0.0000)
   1 Li     4.851111    1.617037   10.000000    ( 0.0000,  0.0000,  0.0000)
   2 Li     8.085185    1.617037   10.000000    ( 0.0000,  0.0000,  0.0000)
   3 Li     1.617037    4.851111   10.000000    ( 0.0000,  0.0000,  0.0000)
   4 Li     4.851111    4.851111   10.000000    ( 0.0000,  0.0000,  0.0000)
   5 Li     8.085185    4.851111   10.000000    ( 0.0000,  0.0000,  0.0000)
   6 Li     1.617037    8.085185   10.000000    ( 0.0000,  0.0000,  0.0000)
   7 Li     4.851111    8.085185   10.000000    ( 0.0000,  0.0000,  0.0000)
   8 Li     8.085185    8.085185   10.000000    ( 0.0000,  0.0000,  0.0000)
   9 Li     0.000000    0.000000   11.617037    ( 0.0000,  0.0000,  0.0000)
  10 Li     3.234074    0.000000   11.617037    ( 0.0000,  0.0000,  0.0000)
  11 Li     6.468148    0.000000   11.617037    ( 0.0000,  0.0000,  0.0000)
  12 Li     0.000000    3.234074   11.617037    ( 0.0000,  0.0000,  0.0000)
  13 Li     3.234074    3.234074   11.617037    ( 0.0000,  0.0000,  0.0000)
  14 Li     6.468148    3.234074   11.617037    ( 0.0000,  0.0000,  0.0000)
  15 Li     0.000000    6.468148   11.617037    ( 0.0000,  0.0000,  0.0000)
  16 Li     3.234074    6.468148   11.617037    ( 0.0000,  0.0000,  0.0000)
  17 Li     6.468148    6.468148   11.617037    ( 0.0000,  0.0000,  0.0000)
  18 Li     1.617040    1.617947   13.467774    ( 0.0000,  0.0000,  0.0000)
  19 Li     4.851096    1.616557   13.471976    ( 0.0000,  0.0000,  0.0000)
  20 Li     8.085156    1.617803   13.468023    ( 0.0000,  0.0000,  0.0000)
  21 Li     1.616708    4.851044   13.471934    ( 0.0000,  0.0000,  0.0000)
  22 Li     4.851031    4.851198   13.470132    ( 0.0000,  0.0000,  0.0000)
  23 Li     8.085544    4.850941   13.472134    ( 0.0000,  0.0000,  0.0000)
  24 Li     1.618094    8.084135   13.467649    ( 0.0000,  0.0000,  0.0000)
  25 Li     4.851052    8.085457   13.472042    ( 0.0000,  0.0000,  0.0000)
  26 Li     8.084110    8.084317   13.467860    ( 0.0000,  0.0000,  0.0000)
  27 Li    -0.001198   -0.016882   15.290899    ( 0.0000,  0.0000,  0.0000)
  28 Li     3.236303   -0.000538   15.445189    ( 0.0000,  0.0000,  0.0000)
  29 Li     6.464894   -0.000712   15.447415    ( 0.0000,  0.0000,  0.0000)
  30 Li     0.000510    3.226623   15.450093    ( 0.0000,  0.0000,  0.0000)
  31 Li     3.235570    3.235604   15.444552    ( 0.0000,  0.0000,  0.0000)
  32 Li     6.466521    3.235812   15.444160    ( 0.0000,  0.0000,  0.0000)
  33 Li    -0.000072    6.468069   15.446202    ( 0.0000,  0.0000,  0.0000)
  34 Li     3.234255    6.467473   15.444924    ( 0.0000,  0.0000,  0.0000)
  35 Li     6.468090    6.467452   15.444909    ( 0.0000,  0.0000,  0.0000)
  36 O      9.692201    9.709331   19.453040    ( 0.0000,  0.0000,  0.0000)
  37 O      6.802896    9.744259   19.207775    ( 0.0000,  0.0000,  0.0000)
  38 C      8.948753   10.886678   19.095691    ( 0.0000,  0.0000,  0.0000)
  39 C      7.555822   10.890704   19.622656    ( 0.0000,  0.0000,  0.0000)
  40 H      9.503180   11.794410   19.334821    ( 0.0000,  0.0000,  0.0000)
  41 H      8.886379   10.866098   18.032878    ( 0.0000,  0.0000,  0.0000)
  42 H      7.027732   11.762843   19.228076    ( 0.0000,  0.0000,  0.0000)
  43 H      7.603469   10.962445   20.710667    ( 0.0000,  0.0000,  0.0000)
  44 H      9.875499    9.774733   20.397272    ( 0.0000,  0.0000,  0.0000)
  45 H      7.384012    8.977740   19.309789    ( 0.0000,  0.0000,  0.0000)
  46 N      9.747214    9.654337   16.997480    ( 0.0000,  0.0000,  0.0000)
  47 N      9.761176   10.802405   16.853200    ( 0.0000,  0.0000,  0.0000)

Unit cell:
           periodic     x           y           z      points  spacing
  1. axis:    yes    9.702222    0.000000    0.000000    60     0.1617
  2. axis:    yes    0.000000    9.702222    0.000000    60     0.1617
  3. axis:    no     0.000000    0.000000   26.351111   164     0.1607

  Lengths:   9.702222   9.702222  26.351111
  Angles:   90.000000  90.000000  90.000000

Effective grid spacing dv^(1/3) = 0.1614

     iter     time        total  log10-change:
                         energy  eigst   dens
iter:   1 12:53:47  -324.511797  -0.90
iter:   2 12:53:54  -324.511815  -1.53  -2.12
iter:   3 12:54:01  -324.509421c -2.05  -2.17
iter:   4 12:54:09  -324.507064c -2.15  -2.38
Writing to output.gpw (mode='')

iter:   5 12:54:16  -324.506437c -2.17  -2.57
iter:   6 12:54:23  -324.506559c -2.49  -2.63
iter:   7 12:54:31  -324.506149c -2.87  -2.75
iter:   8 12:54:38  -324.506178c -3.28  -2.94
iter:   9 12:54:45  -324.506165c -3.45  -2.95
Writing to output.gpw (mode='')

iter:  10 12:54:52  -324.506166c -3.96  -3.21
iter:  11 12:55:00  -324.506192c -4.13  -3.36
iter:  12 12:55:07  -324.506207c -4.27  -3.39
iter:  13 12:55:14  -324.506216c -4.41  -3.37
iter:  14 12:55:22  -324.506207c -4.48  -3.35
Writing to output.gpw (mode='')

iter:  15 12:55:29  -324.506197c -4.87  -3.47
iter:  16 12:55:36  -324.506192c -4.79  -3.53
iter:  17 12:55:44  -324.506192c -5.07  -3.58
iter:  18 12:55:51  -324.506191c -4.87  -3.66
iter:  19 12:55:58  -324.506183c -5.22  -3.84
Writing to output.gpw (mode='')

iter:  20 12:56:06  -324.506185c -5.60  -3.89
iter:  21 12:56:13  -324.506180c -5.33  -3.96
iter:  22 12:56:20  -324.506186c -5.77  -4.20c
iter:  23 12:56:28  -324.506190c -5.85  -4.31c
iter:  24 12:56:35  -324.506189c -6.11  -4.38c
Writing to output.gpw (mode='')

iter:  25 12:56:42  -324.506188c -6.08  -4.57c
iter:  26 12:56:49  -324.506189c -6.23  -4.71c
iter:  27 12:56:57  -324.506188c -6.54  -4.82c
iter:  28 12:57:07  -324.506188c -6.57  -4.90c
iter:  29 12:57:14  -324.506188c -6.89  -5.05c
Writing to output.gpw (mode='')

iter:  30 12:57:28  -324.506188c -7.05  -5.09c
iter:  31 12:57:36  -324.506188c -7.03  -5.23c
iter:  32 12:57:43  -324.506188c -7.26  -5.50c
iter:  33 12:57:51  -324.506188c -7.35  -5.50c
iter:  34 12:57:58  -324.506188c -7.24  -5.49c
Writing to output.gpw (mode='')

iter:  35 12:58:06  -324.506188c -7.53c -5.45c

Converged after 35 iterations.

Dipole moment: (-19.377040, -17.802348, 0.201092) |e|*Ang

Energy contributions relative to reference atoms: (reference = -16475.706344)

Kinetic:       +177.557193
Potential:     -165.722942
External:        +0.000000
XC:            -337.396793
Entropy (-ST):   -0.149310
Local:           +1.131010
--------------------------
Free energy:   -324.580843
Extrapolated:  -324.506188

Dipole-layer corrected work functions: 3.407172, 3.020605 eV

Showing only first 2 kpts
 Kpt  Band  Eigenvalues  Occupancy
  0    34     -3.45864    1.98514
  0    35     -3.41838    1.96707
  0    36     -3.06797    0.10251
  0    37     -3.01728    0.03845

  1    34     -3.26290    1.45431
  1    35     -3.20884    0.94958
  1    36     -3.18044    0.67749
  1    37     -3.08673    0.14577


Fermi level: -3.21389

No gap

Forces in eV/Ang:
  0 Li    0.01241    0.00993   -0.27734
  1 Li    0.00067    0.00141   -0.26889
  2 Li   -0.01325    0.01031   -0.27696
  3 Li   -0.00727    0.00743   -0.26198
  4 Li    0.00113   -0.00282   -0.29451
  5 Li    0.00728    0.00722   -0.26346
  6 Li    0.00322   -0.01785   -0.28131
  7 Li    0.00061    0.00770   -0.26409
  8 Li   -0.00335   -0.01773   -0.28188
  9 Li    0.00197    0.00108    0.35568
 10 Li    0.00916    0.00271    0.26755
 11 Li   -0.01022    0.00383    0.26458
 12 Li   -0.00031    0.01997    0.26063
 13 Li    0.01095    0.00069    0.25805
 14 Li   -0.01065   -0.00072    0.25553
 15 Li   -0.00035   -0.01009    0.24821
 16 Li    0.01077   -0.00789    0.24794
 17 Li   -0.01169   -0.00811    0.25028
 18 Li    0.01299    0.03752   -0.07530
 19 Li   -0.00101   -0.01406    0.06546
 20 Li   -0.01485    0.03235   -0.06656
 21 Li   -0.00973   -0.00507    0.06250
 22 Li   -0.00261    0.00459    0.00984
 23 Li    0.01083   -0.00857    0.06869
 24 Li    0.03642   -0.04420   -0.07308
 25 Li   -0.00215    0.00594    0.06463
 26 Li   -0.03723   -0.03681   -0.06474
 27 Li   -0.05872   -0.40957   -2.98352
 28 Li    0.06220   -0.01501   -0.02002
 29 Li   -0.08998   -0.01901    0.04422
 30 Li    0.01804   -0.24392    0.12797
 31 Li    0.04485    0.04472   -0.04027
 32 Li   -0.04597    0.04891   -0.05029
 33 Li   -0.00142    0.00601    0.00997
 34 Li    0.00546   -0.01951   -0.02825
 35 Li   -0.00169   -0.01981   -0.02847
 36 O    -0.28900    0.19576    0.30496
 37 O    -0.00421   -0.01325   -0.11053
 38 C    -0.37362    0.30659    1.22043
 39 C    -0.31485    0.07851    0.55701
 40 H     0.01037    0.22494    0.37852
 41 H    -1.13332    0.80517    1.53061
 42 H    -0.03888    0.04898    0.09618
 43 H    -0.41144   -0.00866    0.41146
 44 H     0.12835   -0.07368    0.17326
 45 H     0.01284   -0.00860    0.00345
 46 N     1.13595   -0.04507    0.42785
 47 N     1.33952   -0.90611   -1.93264

System changes: positions 

Initializing position-dependent things.

Density initialized from wave functions
       .-----------------------.  
      /|                       |  
     / |                       |  
    /  |                       |  
   /   |                       |  
  /    |                       |  
 *     |                       |  
 |     |                       |  
 |     |                       |  
 |     |                 H     |  
 |     |                       |  
 |     N                       |  
 |     |             H         |  
 H     |       Li   C  Li H    Li 
 |     |                CO     |  
 |     |     Li   O  Li H    Li|  
 |     |                       |  
 |NLi  |  LLi     LLi     Li   |  
 |     |                       |  
 |     |Li      Li      Li     |  
 |   Li|     Li      Li        |  
 |    Li  Li  Li  Li  Li  Li   |  
 | Li  |   Li      Li          |  
 |     |Li      Li      Li     |  
 Li    | Li      Li            |  
 |    Li      Li      Li       |  
 |     |                       |  
 |     |                       |  
 |     |                       |  
 |     |                       |  
 |     |                       |  
 |     |                       |  
 |     .-----------------------.  
 |    /                       /   
 |   /                       /    
 |  /                       /     
 | /                       /      
 |/                       /       
 *-----------------------*        

Positions:
   0 Li     1.617037    1.617037   10.000000    ( 0.0000,  0.0000,  0.0000)
   1 Li     4.851111    1.617037   10.000000    ( 0.0000,  0.0000,  0.0000)
   2 Li     8.085185    1.617037   10.000000    ( 0.0000,  0.0000,  0.0000)
   3 Li     1.617037    4.851111   10.000000    ( 0.0000,  0.0000,  0.0000)
   4 Li     4.851111    4.851111   10.000000    ( 0.0000,  0.0000,  0.0000)
   5 Li     8.085185    4.851111   10.000000    ( 0.0000,  0.0000,  0.0000)
   6 Li     1.617037    8.085185   10.000000    ( 0.0000,  0.0000,  0.0000)
   7 Li     4.851111    8.085185   10.000000    ( 0.0000,  0.0000,  0.0000)
   8 Li     8.085185    8.085185   10.000000    ( 0.0000,  0.0000,  0.0000)
   9 Li     0.000000    0.000000   11.617037    ( 0.0000,  0.0000,  0.0000)
  10 Li     3.234074    0.000000   11.617037    ( 0.0000,  0.0000,  0.0000)
  11 Li     6.468148    0.000000   11.617037    ( 0.0000,  0.0000,  0.0000)
  12 Li     0.000000    3.234074   11.617037    ( 0.0000,  0.0000,  0.0000)
  13 Li     3.234074    3.234074   11.617037    ( 0.0000,  0.0000,  0.0000)
  14 Li     6.468148    3.234074   11.617037    ( 0.0000,  0.0000,  0.0000)
  15 Li     0.000000    6.468148   11.617037    ( 0.0000,  0.0000,  0.0000)
  16 Li     3.234074    6.468148   11.617037    ( 0.0000,  0.0000,  0.0000)
  17 Li     6.468148    6.468148   11.617037    ( 0.0000,  0.0000,  0.0000)
  18 Li     1.617298    1.618584   13.466527    ( 0.0000,  0.0000,  0.0000)
  19 Li     4.851079    1.616338   13.473008    ( 0.0000,  0.0000,  0.0000)
  20 Li     8.084865    1.618350   13.466918    ( 0.0000,  0.0000,  0.0000)
  21 Li     1.616559    4.850949   13.472914    ( 0.0000,  0.0000,  0.0000)
  22 Li     4.850987    4.851279   13.470280    ( 0.0000,  0.0000,  0.0000)
  23 Li     8.085712    4.850791   13.473214    ( 0.0000,  0.0000,  0.0000)
  24 Li     1.618679    8.083389   13.466469    ( 0.0000,  0.0000,  0.0000)
  25 Li     4.851018    8.085538   13.473050    ( 0.0000,  0.0000,  0.0000)
  26 Li     8.083510    8.083699   13.466818    ( 0.0000,  0.0000,  0.0000)
  27 Li    -0.002191   -0.023268   15.251424    ( 0.0000,  0.0000,  0.0000)
  28 Li     3.237310   -0.000773   15.444846    ( 0.0000,  0.0000,  0.0000)
  29 Li     6.463456   -0.001005   15.448081    ( 0.0000,  0.0000,  0.0000)
  30 Li     0.000807    3.222750   15.452054    ( 0.0000,  0.0000,  0.0000)
  31 Li     3.236276    3.236304   15.443911    ( 0.0000,  0.0000,  0.0000)
  32 Li     6.465804    3.236573   15.443367    ( 0.0000,  0.0000,  0.0000)
  33 Li    -0.000089    6.468180   15.446347    ( 0.0000,  0.0000,  0.0000)
  34 Li     3.234334    6.467169   15.444483    ( 0.0000,  0.0000,  0.0000)
  35 Li     6.468069    6.467141   15.444465    ( 0.0000,  0.0000,  0.0000)
  36 O      9.687681    9.712317   19.458357    ( 0.0000,  0.0000,  0.0000)
  37 O      6.803088    9.744290   19.206178    ( 0.0000,  0.0000,  0.0000)
  38 C      8.944622   10.891270   19.110621    ( 0.0000,  0.0000,  0.0000)
  39 C      7.549939   10.891853   19.631766    ( 0.0000,  0.0000,  0.0000)
  40 H      9.503239   11.798167   19.341447    ( 0.0000,  0.0000,  0.0000)
  41 H      8.870103   10.877782   18.054390    ( 0.0000,  0.0000,  0.0000)
  42 H      7.027094   11.763586   19.229734    ( 0.0000,  0.0000,  0.0000)
  43 H      7.596541   10.962298   20.717847    ( 0.0000,  0.0000,  0.0000)
  44 H      9.877661    9.773407   20.400348    ( 0.0000,  0.0000,  0.0000)
  45 H      7.384177    8.977674   19.309842    ( 0.0000,  0.0000,  0.0000)
  46 N      9.764342    9.650261   16.998064    ( 0.0000,  0.0000,  0.0000)
  47 N      9.780727   10.792586   16.825664    ( 0.0000,  0.0000,  0.0000)

Unit cell:
           periodic     x           y           z      points  spacing
  1. axis:    yes    9.702222    0.000000    0.000000    60     0.1617
  2. axis:    yes    0.000000    9.702222    0.000000    60     0.1617
  3. axis:    no     0.000000    0.000000   26.351111   164     0.1607

  Lengths:   9.702222   9.702222  26.351111
  Angles:   90.000000  90.000000  90.000000

Effective grid spacing dv^(1/3) = 0.1614

     iter     time        total  log10-change:
                         energy  eigst   dens
iter:   1 12:58:14  -324.817734  -0.93
iter:   2 12:58:22  -324.817444  -1.58  -2.14
iter:   3 12:58:29  -324.815515c -2.11  -2.19
iter:   4 12:58:37  -324.813173c -2.22  -2.37
Writing to output.gpw (mode='')

iter:   5 12:58:44  -324.812513c -2.25  -2.58
iter:   6 12:58:51  -324.812652c -2.51  -2.67
iter:   7 12:58:59  -324.812191c -2.98  -2.76
iter:   8 12:59:06  -324.812257c -3.32  -2.96
iter:   9 12:59:13  -324.812292c -3.61  -2.97
Writing to output.gpw (mode='')

iter:  10 12:59:21  -324.812256c -3.79  -3.21
iter:  11 12:59:28  -324.812269c -4.02  -3.30
iter:  12 12:59:35  -324.812269c -4.46  -3.42
iter:  13 12:59:43  -324.812252c -4.54  -3.55
iter:  14 12:59:50  -324.812251c -4.75  -3.69
Writing to output.gpw (mode='')

iter:  15 12:59:57  -324.812247c -4.93  -3.72
iter:  16 13:00:05  -324.812250c -5.24  -3.79
iter:  17 13:00:12  -324.812251c -5.40  -3.87
iter:  18 13:00:20  -324.812252c -5.49  -4.03c
iter:  19 13:00:27  -324.812253c -5.34  -4.11c
Writing to output.gpw (mode='')

iter:  20 13:00:34  -324.812253c -5.79  -4.24c
iter:  21 13:00:42  -324.812254c -5.93  -4.42c
iter:  22 13:00:49  -324.812255c -6.01  -4.49c
iter:  23 13:00:56  -324.812257c -6.06  -4.54c
iter:  24 13:01:04  -324.812256c -6.21  -4.74c
Writing to output.gpw (mode='')

iter:  25 13:01:11  -324.812256c -6.56  -4.76c
iter:  26 13:01:18  -324.812255c -6.41  -4.81c
iter:  27 13:01:26  -324.812255c -6.80  -5.00c
iter:  28 13:01:33  -324.812255c -6.94  -5.03c
iter:  29 13:01:40  -324.812255c -6.97  -5.10c
Writing to output.gpw (mode='')

iter:  30 13:01:48  -324.812255c -7.05  -5.16c
iter:  31 13:01:55  -324.812255c -7.18  -5.23c
iter:  32 13:02:02  -324.812256c -7.02  -5.26c
iter:  33 13:02:10  -324.812256c -7.47c -5.36c

Converged after 33 iterations.

Dipole moment: (-21.386310, -17.478900, 0.211037) |e|*Ang

Energy contributions relative to reference atoms: (reference = -16475.706344)

Kinetic:       +176.482350
Potential:     -165.149272
External:        +0.000000
XC:            -337.198926
Entropy (-ST):   -0.148692
Local:           +1.127939
--------------------------
Free energy:   -324.886602
Extrapolated:  -324.812256

Dipole-layer corrected work functions: 3.406394, 3.000709 eV

Showing only first 2 kpts
 Kpt  Band  Eigenvalues  Occupancy
  0    34     -3.44439    1.98394
  0    35     -3.40998    1.96830
  0    36     -3.06007    0.10736
  0    37     -3.00289    0.03551

  1    34     -3.25251    1.45385
  1    35     -3.20003    0.96482
  1    36     -3.17001    0.67666
  1    37     -3.07353    0.13822


Fermi level: -3.20355

No gap
Writing to output.gpw (mode='')


Forces in eV/Ang:
  0 Li    0.01266    0.00984   -0.27872
  1 Li    0.00104    0.00107   -0.26801
  2 Li   -0.01376    0.01016   -0.27832
  3 Li   -0.00770    0.00810   -0.26122
  4 Li    0.00125   -0.00267   -0.29554
  5 Li    0.00767    0.00767   -0.26298
  6 Li    0.00256   -0.01807   -0.28266
  7 Li    0.00074    0.00812   -0.26401
  8 Li   -0.00291   -0.01770   -0.28326
  9 Li    0.00222    0.00219    0.36043
 10 Li    0.00962    0.00175    0.26933
 11 Li   -0.01089    0.00305    0.26505
 12 Li   -0.00027    0.01955    0.26402
 13 Li    0.01390    0.00240    0.25755
 14 Li   -0.01398    0.00057    0.25458
 15 Li   -0.00049   -0.01052    0.24658
 16 Li    0.01005   -0.00898    0.24832
 17 Li   -0.01098   -0.00897    0.25113
 18 Li    0.02140    0.04372   -0.08649
 19 Li   -0.00162   -0.01405    0.06553
 20 Li   -0.02398    0.03825   -0.07530
 21 Li   -0.01035   -0.00714    0.06232
 22 Li   -0.00258    0.00599    0.00839
 23 Li    0.01158   -0.01106    0.06860
 24 Li    0.04143   -0.05247   -0.08041
 25 Li   -0.00251    0.00445    0.06293
 26 Li   -0.04238   -0.04400   -0.07059
 27 Li   -0.07243   -0.39148   -2.45628
 28 Li    0.06195   -0.01534   -0.02115
 29 Li   -0.08809   -0.01799    0.04339
 30 Li    0.02003   -0.25324    0.12697
 31 Li    0.04667    0.04552   -0.04055
 32 Li   -0.04488    0.04763   -0.04966
 33 Li   -0.00108    0.00788    0.01013
 34 Li    0.00566   -0.01921   -0.02762
 35 Li   -0.00168   -0.01906   -0.02759
 36 O    -0.29751    0.19284    0.30720
 37 O     0.00327    0.01201   -0.07600
 38 C    -0.28198    0.25156    0.97134
 39 C    -0.27884    0.07540    0.50224
 40 H    -0.00348    0.23638    0.43349
 41 H    -0.91937    0.64949    1.06019
 42 H    -0.06553    0.04934    0.12908
 43 H    -0.45687   -0.01379    0.45978
 44 H     0.13795   -0.07024    0.22228
 45 H     0.01376    0.00759    0.00570
 46 N     1.04009    0.12529    0.10258
 47 N     1.14185   -0.85600   -1.62519

System changes: positions 

Initializing position-dependent things.

Density initialized from wave functions
       .-----------------------.  
      /|                       |  
     / |                       |  
    /  |                       |  
   /   |                       |  
  /    |                       |  
 *     |                       |  
 |     |                       |  
 |     |                       |  
 |     |                 H     |  
 |     |                       |  
 |     N                       |  
 |     |             H         |  
 H     |       Li   C  Li H    |  
 |     |                CO     Li 
 |     |     Li   O  Li H    Li|  
 |     |                       |  
 |NLi  |  LLi     LLi     Li   |  
 |     |                       |  
 |     |Li      Li      Li     |  
 |   Li|     Li      Li        |  
 |    Li  Li  Li  Li  Li  Li   |  
 | Li  |   Li      Li          |  
 |     |Li      Li      Li     |  
 Li    | Li      Li            |  
 |    Li      Li      Li       |  
 |     |                       |  
 |     |                       |  
 |     |                       |  
 |     |                       |  
 |     |                       |  
 |     |                       |  
 |     .-----------------------.  
 |    /                       /   
 |   /                       /    
 |  /                       /     
 | /                       /      
 |/                       /       
 *-----------------------*        

Positions:
   0 Li     1.617037    1.617037   10.000000    ( 0.0000,  0.0000,  0.0000)
   1 Li     4.851111    1.617037   10.000000    ( 0.0000,  0.0000,  0.0000)
   2 Li     8.085185    1.617037   10.000000    ( 0.0000,  0.0000,  0.0000)
   3 Li     1.617037    4.851111   10.000000    ( 0.0000,  0.0000,  0.0000)
   4 Li     4.851111    4.851111   10.000000    ( 0.0000,  0.0000,  0.0000)
   5 Li     8.085185    4.851111   10.000000    ( 0.0000,  0.0000,  0.0000)
   6 Li     1.617037    8.085185   10.000000    ( 0.0000,  0.0000,  0.0000)
   7 Li     4.851111    8.085185   10.000000    ( 0.0000,  0.0000,  0.0000)
   8 Li     8.085185    8.085185   10.000000    ( 0.0000,  0.0000,  0.0000)
   9 Li     0.000000    0.000000   11.617037    ( 0.0000,  0.0000,  0.0000)
  10 Li     3.234074    0.000000   11.617037    ( 0.0000,  0.0000,  0.0000)
  11 Li     6.468148    0.000000   11.617037    ( 0.0000,  0.0000,  0.0000)
  12 Li     0.000000    3.234074   11.617037    ( 0.0000,  0.0000,  0.0000)
  13 Li     3.234074    3.234074   11.617037    ( 0.0000,  0.0000,  0.0000)
  14 Li     6.468148    3.234074   11.617037    ( 0.0000,  0.0000,  0.0000)
  15 Li     0.000000    6.468148   11.617037    ( 0.0000,  0.0000,  0.0000)
  16 Li     3.234074    6.468148   11.617037    ( 0.0000,  0.0000,  0.0000)
  17 Li     6.468148    6.468148   11.617037    ( 0.0000,  0.0000,  0.0000)
  18 Li     1.617707    1.619391   13.464952    ( 0.0000,  0.0000,  0.0000)
  19 Li     4.851049    1.616088   13.474184    ( 0.0000,  0.0000,  0.0000)
  20 Li     8.084407    1.619053   13.465542    ( 0.0000,  0.0000,  0.0000)
  21 Li     1.616378    4.850812   13.474029    ( 0.0000,  0.0000,  0.0000)
  22 Li     4.850939    4.851391   13.470427    ( 0.0000,  0.0000,  0.0000)
  23 Li     8.085916    4.850584   13.474444    ( 0.0000,  0.0000,  0.0000)
  24 Li     1.619420    8.082426   13.465023    ( 0.0000,  0.0000,  0.0000)
  25 Li     4.850974    8.085610   13.474175    ( 0.0000,  0.0000,  0.0000)
  26 Li     8.082751    8.082895   13.465549    ( 0.0000,  0.0000,  0.0000)
  27 Li    -0.003514   -0.030365   15.212081    ( 0.0000,  0.0000,  0.0000)
  28 Li     3.238453   -0.001047   15.444438    ( 0.0000,  0.0000,  0.0000)
  29 Li     6.461847   -0.001325   15.448828    ( 0.0000,  0.0000,  0.0000)
  30 Li     0.001172    3.218221   15.454271    ( 0.0000,  0.0000,  0.0000)
  31 Li     3.237110    3.237116   15.443176    ( 0.0000,  0.0000,  0.0000)
  32 Li     6.465003    3.237423   15.442473    ( 0.0000,  0.0000,  0.0000)
  33 Li    -0.000105    6.468324   15.446514    ( 0.0000,  0.0000,  0.0000)
  34 Li     3.234428    6.466829   15.443990    ( 0.0000,  0.0000,  0.0000)
  35 Li     6.468045    6.466799   15.443972    ( 0.0000,  0.0000,  0.0000)
  36 O      9.682392    9.715692   19.464242    ( 0.0000,  0.0000,  0.0000)
  37 O      6.803347    9.744653   19.204859    ( 0.0000,  0.0000,  0.0000)
  38 C      8.940750   10.895734   19.125038    ( 0.0000,  0.0000,  0.0000)
  39 C      7.544104   10.893146   19.641163    ( 0.0000,  0.0000,  0.0000)
  40 H      9.503122   11.802555   19.349643    ( 0.0000,  0.0000,  0.0000)
  41 H      8.854348   10.889028   18.072522    ( 0.0000,  0.0000,  0.0000)
  42 H      7.025957   11.764444   19.232097    ( 0.0000,  0.0000,  0.0000)
  43 H      7.588078   10.962053   20.726561    ( 0.0000,  0.0000,  0.0000)
  44 H      9.880235    9.772005   20.404537    ( 0.0000,  0.0000,  0.0000)
  45 H      7.384388    8.977825   19.309941    ( 0.0000,  0.0000,  0.0000)
  46 N      9.782610    9.647174   16.995744    ( 0.0000,  0.0000,  0.0000)
  47 N      9.800427   10.782977   16.798176    ( 0.0000,  0.0000,  0.0000)

Unit cell:
           periodic     x           y           z      points  spacing
  1. axis:    yes    9.702222    0.000000    0.000000    60     0.1617
  2. axis:    yes    0.000000    9.702222    0.000000    60     0.1617
  3. axis:    no     0.000000    0.000000   26.351111   164     0.1607

  Lengths:   9.702222   9.702222  26.351111
  Angles:   90.000000  90.000000  90.000000

Effective grid spacing dv^(1/3) = 0.1614

     iter     time        total  log10-change:
[...]

Kinetic:       +158.716519
Potential:     -151.284538
External:        +0.000000
XC:            -337.138130
Entropy (-ST):   -0.162846
Local:           +1.154148
--------------------------
Free energy:   -328.714846
Extrapolated:  -328.633423

Dipole-layer corrected work functions: 3.389501, 2.322036 eV

Showing only first 2 kpts
 Kpt  Band  Eigenvalues  Occupancy
  0    34     -3.03838    1.94944
  0    35     -2.87552    1.19502
  0    36     -2.84152    0.85849
  0    37     -2.74355    0.19167

  1    34     -3.16577    1.99595
  1    35     -2.81595    0.62163
  1    36     -2.75723    0.24463
  1    37     -2.72798    0.14407


Fermi level: -2.85577

No gap
Writing to output.gpw (mode='')


Forces in eV/Ang:
  0 Li   -0.00019   -0.00405   -0.25867
  1 Li   -0.01311   -0.01153   -0.28882
  2 Li    0.00260    0.00792   -0.29163
  3 Li   -0.00921   -0.01125   -0.28627
  4 Li    0.01406    0.00805   -0.29070
  5 Li   -0.01083    0.00390   -0.29655
  6 Li    0.00866    0.00217   -0.29972
  7 Li    0.00509   -0.01089   -0.28551
  8 Li   -0.01319   -0.02155   -0.27325
  9 Li    0.05040    0.06844    0.30163
 10 Li   -0.00690    0.06172    0.34560
 11 Li    0.01363    0.04290    0.25143
 12 Li    0.04297   -0.02295    0.36452
 13 Li   -0.00224   -0.05060    0.27940
 14 Li   -0.01212    0.00330    0.31508
 15 Li    0.00635    0.06231    0.29067
 16 Li    0.00957    0.04740    0.28833
 17 Li   -0.01012    0.03659    0.28765
 18 Li   -0.01179    0.02491   -0.05852
 19 Li    0.00331    0.00710   -0.01632
 20 Li   -0.01224   -0.01070    0.01639
 21 Li   -0.01212   -0.02577    0.01609
 22 Li    0.00679   -0.00355   -0.00919
 23 Li    0.01014   -0.03047    0.00102
 24 Li    0.01956   -0.01852    0.00047
 25 Li   -0.00849   -0.01012   -0.01030
 26 Li   -0.00249   -0.02296    0.01833
 27 Li   -0.01962   -0.00819    0.01356
 28 Li   -0.00287   -0.02222    0.00467
 29 Li    0.00087    0.02852    0.02209
 30 Li    0.00595   -0.02420    0.00542
 31 Li   -0.05096   -0.03137   -0.01162
 32 Li    0.01021   -0.00490   -0.02740
 33 Li    0.00441   -0.01877   -0.02325
 34 Li   -0.00131   -0.00799    0.00742
 35 Li   -0.00624   -0.03152   -0.02055
 36 O     0.01692    0.01071   -0.00825
 37 O     0.05019    0.00825   -0.00051
 38 C    -0.05027   -0.00380   -0.04671
 39 C    -0.03153   -0.02737   -0.03562
 40 H     0.03631   -0.01118   -0.03296
 41 H     0.01167    0.01298    0.02810
 42 H     0.00283   -0.01046    0.02476
 43 H    -0.00343   -0.01484   -0.03004
 44 H    -0.02192   -0.01386    0.01038
 45 H    -0.01999    0.05838    0.03738
 46 N    -0.02826   -0.00027    0.01755
 47 N     0.01793   -0.01445   -0.03290

System changes: positions 

Initializing position-dependent things.

Density initialized from wave functions
       .-----------------------.  
      /|                       |  
     / |                       |  
    /  |                       |  
   /   |                       |  
  /    |                       |  
 *     |                       |  
 |     |                      H|  
 |     |                       |  
 |     |                       |  
 |     |                       |  
 |     |                 OH    |  
 |     |                       |  
 |     |       Li      Hi      |  
 |     |          H    CO      |  
 |     |     Li    C Li  H   Li|  
 |     |                  Li   |  
 |     |  Li      LLi      Li  |  
 |   N N                       |  
 |Li   |Li      Li      Li     |  
 |   LLi     Li      Li        |  
 |     |  Li  Li  Li  Li  Li   |  
 | Li  |   Li      Li          |  
 |     |Li      Li      Li     |  
 Li    | Li      Li            |  
 |    Li      Li      Li       |  
 |     |                       |  
 |     |                       |  
 |     |                       |  
 |     |                       |  
 |     |                       |  
 |     |                       |  
 |     .-----------------------.  
 |    /                       /   
 |   /                       /    
 |  /                       /     
 | /                       /      
 |/                       /       
 *-----------------------*        

Positions:
   0 Li     1.617037    1.617037   10.000000    ( 0.0000,  0.0000,  0.0000)
   1 Li     4.851111    1.617037   10.000000    ( 0.0000,  0.0000,  0.0000)
   2 Li     8.085185    1.617037   10.000000    ( 0.0000,  0.0000,  0.0000)
   3 Li     1.617037    4.851111   10.000000    ( 0.0000,  0.0000,  0.0000)
   4 Li     4.851111    4.851111   10.000000    ( 0.0000,  0.0000,  0.0000)
   5 Li     8.085185    4.851111   10.000000    ( 0.0000,  0.0000,  0.0000)
   6 Li     1.617037    8.085185   10.000000    ( 0.0000,  0.0000,  0.0000)
   7 Li     4.851111    8.085185   10.000000    ( 0.0000,  0.0000,  0.0000)
   8 Li     8.085185    8.085185   10.000000    ( 0.0000,  0.0000,  0.0000)
   9 Li     0.000000    0.000000   11.617037    ( 0.0000,  0.0000,  0.0000)
  10 Li     3.234074    0.000000   11.617037    ( 0.0000,  0.0000,  0.0000)
  11 Li     6.468148    0.000000   11.617037    ( 0.0000,  0.0000,  0.0000)
  12 Li     0.000000    3.234074   11.617037    ( 0.0000,  0.0000,  0.0000)
  13 Li     3.234074    3.234074   11.617037    ( 0.0000,  0.0000,  0.0000)
  14 Li     6.468148    3.234074   11.617037    ( 0.0000,  0.0000,  0.0000)
  15 Li     0.000000    6.468148   11.617037    ( 0.0000,  0.0000,  0.0000)
  16 Li     3.234074    6.468148   11.617037    ( 0.0000,  0.0000,  0.0000)
  17 Li     6.468148    6.468148   11.617037    ( 0.0000,  0.0000,  0.0000)
  18 Li     1.682805    1.665856   13.623641    ( 0.0000,  0.0000,  0.0000)
  19 Li     4.893647    1.571858   13.567966    ( 0.0000,  0.0000,  0.0000)
  20 Li     8.099789    1.676785   13.524971    ( 0.0000,  0.0000,  0.0000)
  21 Li     1.601102    4.888246   13.478465    ( 0.0000,  0.0000,  0.0000)
  22 Li     4.773520    4.832862   13.479439    ( 0.0000,  0.0000,  0.0000)
  23 Li     8.053735    4.958632   13.478805    ( 0.0000,  0.0000,  0.0000)
  24 Li     1.663944    8.131880   13.491690    ( 0.0000,  0.0000,  0.0000)
  25 Li     4.932132    8.110713   13.529314    ( 0.0000,  0.0000,  0.0000)
  26 Li     8.121160    8.234273   13.538783    ( 0.0000,  0.0000,  0.0000)
  27 Li     0.362507    0.297217   15.560343    ( 0.0000,  0.0000,  0.0000)
  28 Li     3.373587   -0.065471   15.528362    ( 0.0000,  0.0000,  0.0000)
  29 Li     6.668691   -0.002330   15.802866    ( 0.0000,  0.0000,  0.0000)
  30 Li    -0.064096    3.446584   15.436345    ( 0.0000,  0.0000,  0.0000)
  31 Li     3.049292    3.082949   15.626663    ( 0.0000,  0.0000,  0.0000)
  32 Li     6.332548    3.426464   15.389681    ( 0.0000,  0.0000,  0.0000)
  33 Li    -0.035433    6.676245   15.443320    ( 0.0000,  0.0000,  0.0000)
  34 Li     3.290490    6.394807   15.417446    ( 0.0000,  0.0000,  0.0000)
  35 Li     6.475462    6.498290   15.451689    ( 0.0000,  0.0000,  0.0000)
  36 O      9.396433    9.915167   19.468067    ( 0.0000,  0.0000,  0.0000)
  37 O      7.175664    9.668923   17.676207    ( 0.0000,  0.0000,  0.0000)
  38 C      8.605020   11.058714   19.098833    ( 0.0000,  0.0000,  0.0000)
  39 C      7.186678   10.659224   18.726650    ( 0.0000,  0.0000,  0.0000)
  40 H      8.570633   11.800631   19.904797    ( 0.0000,  0.0000,  0.0000)
  41 H      9.108137   11.500409   18.236090    ( 0.0000,  0.0000,  0.0000)
  42 H      6.636003   11.520159   18.339044    ( 0.0000,  0.0000,  0.0000)
  43 H      6.651185   10.269538   19.601039    ( 0.0000,  0.0000,  0.0000)
  44 H      9.215838    9.694638   20.389870    ( 0.0000,  0.0000,  0.0000)
  45 H      7.810038    8.967787   17.904091    ( 0.0000,  0.0000,  0.0000)
  46 N     11.829931   10.972324   15.664096    ( 0.0000,  0.0000,  0.0000)
  47 N     10.929327   11.855647   15.641060    ( 0.0000,  0.0000,  0.0000)

Unit cell:
           periodic     x           y           z      points  spacing
  1. axis:    yes    9.702222    0.000000    0.000000    60     0.1617
  2. axis:    yes    0.000000    9.702222    0.000000    60     0.1617
  3. axis:    no     0.000000    0.000000   26.351111   164     0.1607

  Lengths:   9.702222   9.702222  26.351111
  Angles:   90.000000  90.000000  90.000000

Effective grid spacing dv^(1/3) = 0.1614

     iter     time        total  log10-change:
                         energy  eigst   dens
iter:   1 01:15:55  -328.641176  -1.93
iter:   2 01:16:03  -328.638945  -2.56  -2.25
iter:   3 01:16:10  -328.637245c -3.24  -2.41
iter:   4 01:16:17  -328.635846c -3.03  -2.61
Writing to output.gpw (mode='')

iter:   5 01:16:25  -328.635855c -3.87  -2.91
iter:   6 01:16:32  -328.635619c -3.31  -2.98
iter:   7 01:16:40  -328.635662c -3.44  -3.22
iter:   8 01:16:47  -328.635708c -4.20  -3.29
iter:   9 01:16:55  -328.635685c -3.99  -3.55
Writing to output.gpw (mode='')

iter:  10 01:17:02  -328.635710c -4.62  -3.51
iter:  11 01:17:10  -328.635675c -5.00  -3.63
iter:  12 01:17:17  -328.635674c -5.16  -3.75
iter:  13 01:17:31  -328.635651c -5.13  -3.83
iter:  14 01:17:38  -328.635660c -5.54  -3.96
Writing to output.gpw (mode='')

iter:  15 01:17:46  -328.635667c -5.77  -4.13c
iter:  16 01:17:53  -328.635678c -5.79  -4.19c
iter:  17 01:18:00  -328.635673c -6.06  -4.33c
iter:  18 01:18:08  -328.635674c -6.47  -4.44c
iter:  19 01:18:15  -328.635676c -6.38  -4.47c
Writing to output.gpw (mode='')

iter:  20 01:18:23  -328.635672c -6.59  -4.58c
iter:  21 01:18:30  -328.635672c -6.72  -4.67c
iter:  22 01:18:37  -328.635672c -6.81  -4.73c
iter:  23 01:18:45  -328.635672c -6.89  -4.85c
iter:  24 01:18:52  -328.635673c -7.13  -5.02c
Writing to output.gpw (mode='')

iter:  25 01:19:00  -328.635673c -7.27  -5.08c
iter:  26 01:19:07  -328.635675c -7.29  -5.16c
iter:  27 01:19:14  -328.635674c -7.62c -5.32c

Converged after 27 iterations.

Dipole moment: (12.654850, -18.714759, 0.557830) |e|*Ang

Energy contributions relative to reference atoms: (reference = -16475.706344)

Kinetic:       +159.014986
Potential:     -151.509872
External:        +0.000000
XC:            -337.213887
Entropy (-ST):   -0.162718
Local:           +1.154457
--------------------------
Free energy:   -328.717033
Extrapolated:  -328.635674

Dipole-layer corrected work functions: 3.389779, 2.317438 eV

Showing only first 2 kpts
 Kpt  Band  Eigenvalues  Occupancy
  0    34     -3.03604    1.94927
  0    35     -2.87332    1.19465
  0    36     -2.83944    0.85924
  0    37     -2.74147    0.19195

  1    34     -3.16437    1.99601
  1    35     -2.81347    0.61884
  1    36     -2.75415    0.24067
  1    37     -2.72593    0.14438


Fermi level: -2.85361

No gap
Writing to output.gpw (mode='')


Forces in eV/Ang:
  0 Li    0.00004   -0.00369   -0.25824
  1 Li   -0.01296   -0.01134   -0.28879
  2 Li    0.00235    0.00830   -0.29200
  3 Li   -0.00940   -0.01135   -0.28577
  4 Li    0.01414    0.00793   -0.29190
  5 Li   -0.01073    0.00401   -0.29688
  6 Li    0.00890    0.00239   -0.30032
  7 Li    0.00488   -0.01095   -0.28472
  8 Li   -0.01338   -0.02142   -0.27375
  9 Li    0.04808    0.06681    0.30686
 10 Li   -0.00482    0.06341    0.34325
 11 Li    0.01446    0.04370    0.25077
 12 Li    0.04101   -0.02465    0.36313
 13 Li   -0.00071   -0.04884    0.27644
 14 Li   -0.01130    0.00382    0.31521
 15 Li    0.00716    0.06160    0.29355
 16 Li    0.00818    0.04458    0.28806
 17 Li   -0.00850    0.03483    0.28962
 18 Li   -0.01428    0.01196   -0.03449
 19 Li   -0.00126    0.00277   -0.01445
 20 Li   -0.00682   -0.01279    0.01139
 21 Li   -0.00834   -0.01982    0.01016
 22 Li    0.00430   -0.00580   -0.00666
 23 Li    0.00743   -0.02763   -0.00247
 24 Li    0.01135   -0.01293    0.00511
 25 Li   -0.00891   -0.00933   -0.00818
 26 Li    0.00330   -0.01754    0.01306
 27 Li   -0.01057   -0.00979    0.00641
 28 Li    0.00234   -0.02360   -0.00163
 29 Li    0.00035    0.02061    0.01213
 30 Li   -0.00400   -0.01327    0.00048
 31 Li   -0.02909   -0.01564   -0.01378
 32 Li    0.00764   -0.00676   -0.02161
 33 Li    0.00339   -0.01969   -0.02129
 34 Li   -0.00061   -0.01220    0.00935
 35 Li   -0.00428   -0.02687   -0.01814
 36 O     0.00234    0.00259    0.00175
 37 O     0.02036    0.00138   -0.03283
 38 C    -0.02325   -0.00279   -0.01598
 39 C    -0.02483   -0.04285    0.00148
 40 H     0.04178    0.02577   -0.00206
 41 H     0.01423    0.01485    0.00748
 42 H     0.01150    0.00143    0.00076
 43 H    -0.01763   -0.02765   -0.01496
 44 H    -0.02725    0.00368   -0.01416
 45 H    -0.00719    0.03951    0.02832
 46 N    -0.03688   -0.02688    0.00139
 47 N    -0.01289    0.00288   -0.01738

Timing:                                      incl.     excl.
-------------------------------------------------------------------
Density initialized from wave functions:     9.572     9.568   0.0% |
 Symmetrize density:                         0.004     0.004   0.0% |
Forces:                                     73.772    73.772   0.2% |
Hamiltonian:                              1035.644     0.024   0.0% |
 Atomic:                                     0.041     0.041   0.0% |
  XC Correction:                             0.000     0.000   0.0% |
 Calculate atomic Hamiltonians:              0.072     0.072   0.0% |
 Communicate:                               12.013    12.013   0.0% |
 Hartree integrate/restrict:                 3.237     3.237   0.0% |
 Initialize Hamiltonian:                     0.000     0.000   0.0% |
 Poisson:                                   49.067    18.248   0.0% |
  Communicate from 1D:                       4.810     4.810   0.0% |
  Communicate from 2D:                       4.671     4.671   0.0% |
  Communicate to 1D:                         2.620     2.620   0.0% |
  Communicate to 2D:                         5.767     5.767   0.0% |
  FFT 1D:                                    6.547     6.547   0.0% |
  FFT 2D:                                    6.403     6.403   0.0% |
 XC 3D grid:                               970.424   147.411   0.3% |
  VdW-DF integral:                         823.013     6.846   0.0% |
   Convolution:                             74.234    74.234   0.2% |
   FFT:                                     32.081    32.081   0.1% |
   gather:                                 287.308   287.308   0.6% |
   hmm1:                                    26.342    26.342   0.1% |
   hmm2:                                    35.160    35.160   0.1% |
   iFFT:                                    33.311    33.311   0.1% |
   potential:                              324.109     8.473   0.0% |
    collect:                                50.131    50.131   0.1% |
    p1:                                    143.226   143.226   0.3% |
    p2:                                     53.704    53.704   0.1% |
    sum:                                    68.575    68.575   0.1% |
   splines:                                  3.622     3.622   0.0% |
 vbar:                                       0.765     0.765   0.0% |
LCAO initialization:                         1.137     0.184   0.0% |
 LCAO eigensolver:                           0.202     0.000   0.0% |
  Calculate projections:                     0.000     0.000   0.0% |
  DenseAtomicCorrection:                     0.000     0.000   0.0% |
  Distribute overlap matrix:                 0.181     0.181   0.0% |
  Orbital Layouts:                           0.019     0.019   0.0% |
  Potential matrix:                          0.001     0.001   0.0% |
  Sum over cells:                            0.001     0.001   0.0% |
 LCAO to grid:                               0.629     0.629   0.0% |
 Set positions (LCAO WFS):                   0.122     0.064   0.0% |
  Basic WFS set positions:                   0.001     0.001   0.0% |
  Basis functions set positions:             0.000     0.000   0.0% |
  P tci:                                     0.000     0.000   0.0% |
  ST tci:                                    0.027     0.027   0.0% |
  mktci:                                     0.030     0.030   0.0% |
Redistribute:                                0.119     0.119   0.0% |
SCF-cycle:                               45259.871   821.999   1.8% ||
 Davidson:                               12060.931  3582.097   7.7% |--|
  Apply hamiltonian:                       744.532   744.532   1.6% ||
  Subspace diag:                          2267.076     0.740   0.0% |
   calc_h_matrix:                         1112.254   350.676   0.8% |
    Apply hamiltonian:                     761.579   761.579   1.6% ||
   diagonalize:                            118.510   118.510   0.3% |
   rotate_psi:                            1035.570  1035.570   2.2% ||
  calc. matrices:                         3772.071  1959.939   4.2% |-|
   Apply hamiltonian:                     1812.132  1812.132   3.9% |-|
  diagonalize:                              36.378    36.378   0.1% |
  rotate_psi:                             1658.778  1658.778   3.6% ||
 Density:                                  218.417     0.157   0.0% |
  Atomic density matrices:                  27.440    27.440   0.1% |
  Mix:                                      90.403    90.403   0.2% |
  Multipole moments:                        10.864    10.864   0.0% |
  Pseudo density:                           89.554    89.429   0.2% |
   Symmetrize density:                       0.125     0.125   0.0% |
 Hamiltonian:                            32124.458     0.770   0.0% |
  Atomic:                                    1.469     1.453   0.0% |
   XC Correction:                            0.016     0.016   0.0% |
  Calculate atomic Hamiltonians:             2.297     2.297   0.0% |
  Communicate:                             470.856   470.856   1.0% |
  Hartree integrate/restrict:              101.199   101.199   0.2% |
  Poisson:                                1526.936   562.252   1.2% |
   Communicate from 1D:                    151.430   151.430   0.3% |
   Communicate from 2D:                    148.501   148.501   0.3% |
   Communicate to 1D:                       84.315    84.315   0.2% |
   Communicate to 2D:                      175.735   175.735   0.4% |
   FFT 1D:                                 203.856   203.856   0.4% |
   FFT 2D:                                 200.845   200.845   0.4% |
  XC 3D grid:                            29994.806  4522.892   9.7% |---|
   VdW-DF integral:                      25471.914   215.657   0.5% |
    Convolution:                          2318.863  2318.863   5.0% |-|
    FFT:                                  1006.613  1006.613   2.2% ||
    gather:                               8944.372  8944.372  19.2% |-------|
    hmm1:                                  822.897   822.897   1.8% ||
    hmm2:                                 1092.816  1092.816   2.3% ||
    iFFT:                                 1042.026  1042.026   2.2% ||
    potential:                           10028.612   261.716   0.6% |
     collect:                             1532.752  1532.752   3.3% ||
     p1:                                  4486.562  4486.562   9.6% |---|
     p2:                                  1682.658  1682.658   3.6% ||
     sum:                                 2064.924  2064.924   4.4% |-|
    splines:                                 0.058     0.058   0.0% |
  vbar:                                     26.124    26.124   0.1% |
 Orthonormalize:                            34.066     0.025   0.0% |
  calc_s_matrix:                             5.104     5.104   0.0% |
  inverse-cholesky:                          9.583     9.583   0.0% |
  projections:                               0.004     0.004   0.0% |
  rotate_psi_s:                             19.349    19.349   0.0% |
Set symmetry:                                0.015     0.015   0.0% |
Other:                                     203.388   203.388   0.4% |
-------------------------------------------------------------------
Total:                                             46583.517 100.0%

Memory usage: 1.12 GiB
Date: Sat Mar 11 01:19:15 2023
