
  ___ ___ ___ _ _ _  
 |   |   |_  | | | | 
 | | | | | . | | | | 
 |__ |  _|___|_____|  22.8.0
 |___|_|             

User:   vazumah@f005
Date:   Thu Mar  9 03:08:53 2023
Arch:   x86_64
Pid:    15364
CWD:    /home/vazumah/Research_Projects/LiMEAS/LiNRR_proton_donors/on_pure_surface/Li_BCC100/adsorbates/ethanediol_z/bridge/0.0_1.617
Python: 3.10.6
gpaw:   /home/vazumah/anaconda3/envs/NAME/lib/python3.10/site-packages/gpaw
_gpaw:  /home/vazumah/anaconda3/envs/NAME/lib/python3.10/site-packages/
        _gpaw.cpython-310-x86_64-linux-gnu.so
ase:    /home/vazumah/anaconda3/envs/NAME/lib/python3.10/site-packages/ase (version 3.22.1)
numpy:  /home/vazumah/anaconda3/envs/NAME/lib/python3.10/site-packages/numpy (version 1.23.3)
scipy:  /home/vazumah/anaconda3/envs/NAME/lib/python3.10/site-packages/scipy (version 1.9.1)
libxc:  5.2.3
units:  Angstrom and eV
cores: 32
OpenMP: True
OMP_NUM_THREADS: 1

Input parameters:
  h: 0.16
  kpts: {size: [4, 4, 1]}
  occupations: {name: fermi-dirac,
                width: 0.05}
  poissonsolver: {dipolelayer: xy}
  xc: BEEF-vdW

System changes: positions, numbers, cell, pbc, initial_charges, initial_magmoms 

Initialize ...

species:
  Li:
    name: Lithium
    id: 830b4218f175192f93f959cfc0aad614
    Z: 3.0
    valence: 1
    core: 2
    charge: 0.0
    file: /home/vazumah/anaconda3/envs/NAME/share/gpaw/Li.PBE.gz
    compensation charges: {type: gauss,
                           rc: 0.33,
                           lmax: 2}
    cutoffs: {filter: 1.91,
              core: 2.55}
    valence states:
      #              energy  rcut
      - 2s(1.00)    -2.874   1.058
      - 2p(0.00)    -1.090   1.058
      -  s          24.337   1.058
  
    # Using partial waves for Li as LCAO basis

  O:
    name: Oxygen
    id: 32ecd46bf208036f09c70b0ec9a88b78
    Z: 8.0
    valence: 6
    core: 2
    charge: 0.0
    file: /home/vazumah/anaconda3/envs/NAME/share/gpaw/O.PBE.gz
    compensation charges: {type: gauss,
                           rc: 0.21,
                           lmax: 2}
    cutoffs: {filter: 1.17,
              core: 0.83}
    valence states:
      #              energy  rcut
      - 2s(2.00)   -23.961   0.688
      - 2p(4.00)    -9.029   0.598
      -  s           3.251   0.688
      -  p          18.182   0.598
      -  d           0.000   0.619
  
    # Using partial waves for O as LCAO basis

  C:
    name: Carbon
    id: 4aa54d4b901d75f77cc0ea3eec22967b
    Z: 6.0
    valence: 4
    core: 2
    charge: 0.0
    file: /home/vazumah/anaconda3/envs/NAME/share/gpaw/C.PBE.gz
    compensation charges: {type: gauss,
                           rc: 0.20,
                           lmax: 2}
    cutoffs: {filter: 1.14,
              core: 1.14}
    valence states:
      #              energy  rcut
      - 2s(2.00)   -13.751   0.635
      - 2p(2.00)    -5.284   0.635
      -  s          13.461   0.635
      -  p          21.927   0.635
      -  d           0.000   0.635
  
    # Using partial waves for C as LCAO basis

  H:
    name: Hydrogen
    id: d65de229564ff8ea4db303e23b6d1ecf
    Z: 1.0
    valence: 1
    core: 0
    charge: 0.0
    file: /home/vazumah/anaconda3/envs/NAME/share/gpaw/H.PBE.gz
    compensation charges: {type: gauss,
                           rc: 0.15,
                           lmax: 2}
    cutoffs: {filter: 0.85,
              core: 0.53}
    valence states:
      #              energy  rcut
      - 1s(1.00)    -6.494   0.476
      -  s          20.717   0.476
      -  p           0.000   0.476
  
    # Using partial waves for H as LCAO basis

Reference energy: -13512.263335  # eV

Spin-paired calculation

Convergence criteria:
 Maximum [total energy] change in last 3 cyles: 0.0005 eV / electron
 Maximum integral of absolute [dens]ity change: 0.0001 electrons / valence electron
 Maximum integral of absolute [eigenst]ate change: 4e-08 eV^2 / valence electron
 Maximum number of scf [iter]ations: 333
 (Square brackets indicate name in SCF output, whereas a 'c' in
 the SCF output indicates the quantity has converged.)

Symmetries present (total): 1

  ( 1  0  0)
  ( 0  1  0)
  ( 0  0  1)

16 k-points: 4 x 4 x 1 Monkhorst-Pack grid
8 k-points in the irreducible part of the Brillouin zone
       k-points in crystal coordinates                weights
   0:     0.12500000   -0.37500000    0.00000000          2/16
   1:     0.12500000   -0.12500000    0.00000000          2/16
   2:     0.12500000    0.12500000    0.00000000          2/16
   3:     0.12500000    0.37500000    0.00000000          2/16
   4:     0.37500000   -0.37500000    0.00000000          2/16
   5:     0.37500000   -0.12500000    0.00000000          2/16
   6:     0.37500000    0.12500000    0.00000000          2/16
   7:     0.37500000    0.37500000    0.00000000          2/16

Wave functions: Uniform real-space grid
  Kinetic energy operator: 6*3+1=19 point O(h^6) finite-difference Laplacian
  ScaLapack parameters: grid=1x1, blocksize=None
  Wavefunction extrapolation:
    Improved wavefunction reuse through dual PAW basis 

Occupation numbers: Fermi-Dirac:
  width: 0.0500  # eV
 

Eigensolver
   Davidson(niter=2) 

Densities:
  Coarse grid: 60*60*156 grid
  Fine grid: 120*120*312 grid
  Total Charge: 0.000000 

Density mixing:
  Method: separate
  Backend: pulay
  Linear mixing parameter: 0.05
  old densities: 5
  Damping of long wavelength oscillations: 50 

Hamiltonian:
  XC and Coulomb potentials evaluated on a 120*120*312 grid
  Using the BEEF-vdW Exchange-Correlation functional
  Interpolation: tri-quintic (5. degree polynomial)
  Poisson solver: FastPoissonSolver using
    Stencil: 6*3+1=19 point O(h^6) finite-difference Laplacian
    FFT axes: [0, 1]
    FST axes: [2]

Dipole correction along z-axis 

XC parameters: BEEF-vdW with 2 nearest neighbor stencil

Memory estimate:
  Process memory now: 211.97 MiB
  Calculator: 298.81 MiB
    Density: 88.21 MiB
      Arrays: 27.47 MiB
      Localized functions: 50.30 MiB
      Mixer: 10.44 MiB
    Hamiltonian: 21.93 MiB
      Arrays: 17.96 MiB
      XC: 0.00 MiB
      Poisson: 0.00 MiB
      vbar: 3.97 MiB
    Wavefunctions: 188.67 MiB
      Arrays psit_nG: 87.67 MiB
      Eigensolver: 98.38 MiB
      Projections: 0.04 MiB
      Projectors: 2.58 MiB

Total number of cores used: 32
Parallelization over k-points: 8
Domain decomposition: 1 x 1 x 4

Number of atoms: 46
Number of atomic orbitals: 166
Number of bands in calculation: 42
Number of valence electrons: 62
Bands to converge: occupied

... initialized

Initializing position-dependent things.

Density initialized from atomic densities
Creating initial wave functions:
  42 bands from LCAO basis set

       .-----------------------.  
      /|                       |  
     / |                       |  
    /  |                       |  
   /   |                       |  
  /    |                       |  
 *     |                       |  
 |     |                       |  
 |     |                   H   |  
 |     |                 O     |  
 | C  H|                       |  
 |     |               H HCH   |  
 |     |                       |  
 |O H  |                       |  
 |   Li|     Li      Li        |  
 |     |  Li      Li      Li   |  
 | Li  |   Li      Li          |  
 |     |Li      Li      Li     |  
 Li    | Li      Li            |  
 |   LLi     LLi     LLi       |  
 |     |  Li      Li      Li   |  
 | Li  |   Li      Li          |  
 |     |Li      Li      Li     |  
 Li    | Li      Li            |  
 |    Li      Li      Li       |  
 |     |                       |  
 |     |                       |  
 |     |                       |  
 |     |                       |  
 |     |                       |  
 |     |                       |  
 |     .-----------------------.  
 |    /                       /   
 |   /                       /    
 |  /                       /     
 | /                       /      
 |/                       /       
 *-----------------------*        

Positions:
   0 Li     1.617037    1.617037   10.000000    ( 0.0000,  0.0000,  0.0000)
   1 Li     4.851111    1.617037   10.000000    ( 0.0000,  0.0000,  0.0000)
   2 Li     8.085185    1.617037   10.000000    ( 0.0000,  0.0000,  0.0000)
   3 Li     1.617037    4.851111   10.000000    ( 0.0000,  0.0000,  0.0000)
   4 Li     4.851111    4.851111   10.000000    ( 0.0000,  0.0000,  0.0000)
   5 Li     8.085185    4.851111   10.000000    ( 0.0000,  0.0000,  0.0000)
   6 Li     1.617037    8.085185   10.000000    ( 0.0000,  0.0000,  0.0000)
   7 Li     4.851111    8.085185   10.000000    ( 0.0000,  0.0000,  0.0000)
   8 Li     8.085185    8.085185   10.000000    ( 0.0000,  0.0000,  0.0000)
   9 Li     0.000000    0.000000   11.617037    ( 0.0000,  0.0000,  0.0000)
  10 Li     3.234074    0.000000   11.617037    ( 0.0000,  0.0000,  0.0000)
  11 Li     6.468148    0.000000   11.617037    ( 0.0000,  0.0000,  0.0000)
  12 Li     0.000000    3.234074   11.617037    ( 0.0000,  0.0000,  0.0000)
  13 Li     3.234074    3.234074   11.617037    ( 0.0000,  0.0000,  0.0000)
  14 Li     6.468148    3.234074   11.617037    ( 0.0000,  0.0000,  0.0000)
  15 Li     0.000000    6.468148   11.617037    ( 0.0000,  0.0000,  0.0000)
  16 Li     3.234074    6.468148   11.617037    ( 0.0000,  0.0000,  0.0000)
  17 Li     6.468148    6.468148   11.617037    ( 0.0000,  0.0000,  0.0000)
  18 Li     1.617038    1.617038   13.469728    ( 0.0000,  0.0000,  0.0000)
  19 Li     4.851111    1.617038   13.469729    ( 0.0000,  0.0000,  0.0000)
  20 Li     8.085184    1.617038   13.469728    ( 0.0000,  0.0000,  0.0000)
  21 Li     1.617038    4.851111   13.469729    ( 0.0000,  0.0000,  0.0000)
  22 Li     4.851111    4.851111   13.469730    ( 0.0000,  0.0000,  0.0000)
  23 Li     8.085184    4.851111   13.469729    ( 0.0000,  0.0000,  0.0000)
  24 Li     1.617038    8.085184   13.469728    ( 0.0000,  0.0000,  0.0000)
  25 Li     4.851111    8.085184   13.469729    ( 0.0000,  0.0000,  0.0000)
  26 Li     8.085184    8.085184   13.469728    ( 0.0000,  0.0000,  0.0000)
  27 Li    -0.000000   -0.000000   15.445939    ( 0.0000,  0.0000,  0.0000)
  28 Li     3.234074    0.000000   15.445939    ( 0.0000,  0.0000,  0.0000)
  29 Li     6.468148    0.000000   15.445939    ( 0.0000,  0.0000,  0.0000)
  30 Li     0.000000    3.234074   15.445939    ( 0.0000,  0.0000,  0.0000)
  31 Li     3.234076    3.234076   15.445938    ( 0.0000,  0.0000,  0.0000)
  32 Li     6.468146    3.234076   15.445938    ( 0.0000,  0.0000,  0.0000)
  33 Li     0.000000    6.468148   15.445939    ( 0.0000,  0.0000,  0.0000)
  34 Li     3.234076    6.468146   15.445938    ( 0.0000,  0.0000,  0.0000)
  35 Li     6.468146    6.468146   15.445938    ( 0.0000,  0.0000,  0.0000)
  36 O      0.000000    1.617037   18.445939    ( 0.0000,  0.0000,  0.0000)
  37 O     -0.232689    1.661030   21.344137    ( 0.0000,  0.0000,  0.0000)
  38 C     -0.412377    2.788249   19.174500    ( 0.0000,  0.0000,  0.0000)
  39 C      0.156774    2.801939   20.583686    ( 0.0000,  0.0000,  0.0000)
  40 H     -0.119544    3.702639   18.646375    ( 0.0000,  0.0000,  0.0000)
  41 H     -1.501944    2.740951   19.207249    ( 0.0000,  0.0000,  0.0000)
  42 H     -0.219707    3.676205   21.120404    ( 0.0000,  0.0000,  0.0000)
  43 H      1.255834    2.877440   20.533956    ( 0.0000,  0.0000,  0.0000)
  44 H      0.947321    1.691552   18.276515    ( 0.0000,  0.0000,  0.0000)
  45 H     -0.136250    0.893910   20.764672    ( 0.0000,  0.0000,  0.0000)

Unit cell:
           periodic     x           y           z      points  spacing
  1. axis:    yes    9.702222    0.000000    0.000000    60     0.1617
  2. axis:    yes    0.000000    9.702222    0.000000    60     0.1617
  3. axis:    no     0.000000    0.000000   24.851111   156     0.1593

  Lengths:   9.702222   9.702222  24.851111
  Angles:   90.000000  90.000000  90.000000

Effective grid spacing dv^(1/3) = 0.1609

     iter     time        total  log10-change:
                         energy  eigst   dens
iter:   1 03:09:36  -561.968812
iter:   2 03:10:06   -83.580039  +2.50  -0.00
iter:   3 03:10:34     4.732153  +3.14  -0.18
iter:   4 03:11:04  -135.945867  +3.11  -0.21
Writing to output.gpw (mode='')

iter:   5 03:11:31  -217.057210  +3.00  -0.21
iter:   6 03:11:57  -276.285460  +2.59  -0.43
iter:   7 03:12:24  -297.357790  +2.25  -0.55
iter:   8 03:12:50  -316.953200  +2.07  -0.53
iter:   9 03:13:19  -386.288395  +2.36  -0.46
Writing to output.gpw (mode='')

iter:  10 03:13:47  -330.527168  +1.71  -0.42
iter:  11 03:14:14  -300.279924  +1.53  -0.50
iter:  12 03:14:41  -301.824952  +1.18  -0.70
iter:  13 03:15:08  -303.523555  +1.39  -0.69
iter:  14 03:15:36  -335.371437  +1.57  -0.59
Writing to output.gpw (mode='')

iter:  15 03:16:03  -299.346356  +0.85  -0.38
iter:  16 03:16:30  -305.382853  +1.66  -0.68
iter:  17 03:16:57  -296.995157  +0.49  -0.67
iter:  18 03:17:24  -294.225970  +0.56  -0.78
iter:  19 03:17:51  -293.128817  +0.10  -0.80
Writing to output.gpw (mode='')

iter:  20 03:18:17  -292.318794  +0.49  -0.87
iter:  21 03:18:44  -291.998251  +0.42  -0.94
iter:  22 03:19:12  -292.257258  +0.42  -1.08
iter:  23 03:19:40  -292.112732  -0.06  -1.18
iter:  24 03:20:07  -291.128345  -0.20  -1.20
Writing to output.gpw (mode='')

iter:  25 03:20:35  -291.143698  -0.55  -1.40
iter:  26 03:21:03  -291.084903  -0.67  -1.46
iter:  27 03:21:28  -291.001659  -0.90  -1.48
iter:  28 03:21:58  -290.859830  -0.76  -1.56
iter:  29 03:22:27  -290.831347  -1.19  -1.76
Writing to output.gpw (mode='')

iter:  30 03:22:56  -290.798532  -0.86  -1.88
iter:  31 03:23:26  -290.792450  -1.34  -1.94
iter:  32 03:23:55  -290.782746c -1.29  -1.97
iter:  33 03:24:23  -290.785356c -1.43  -2.10
iter:  34 03:24:50  -290.785507c -1.99  -2.21
Writing to output.gpw (mode='')

iter:  35 03:25:17  -290.785872c -2.14  -2.29
iter:  36 03:25:44  -290.787124c -1.88  -2.37
iter:  37 03:26:11  -290.787198c -2.53  -2.42
iter:  38 03:26:38  -290.786943c -2.55  -2.47
iter:  39 03:27:04  -290.787438c -2.84  -2.70
Writing to output.gpw (mode='')

iter:  40 03:27:31  -290.787758c -2.69  -2.79
iter:  41 03:27:57  -290.787900c -2.77  -2.92
iter:  42 03:28:27  -290.787956c -3.32  -2.95
iter:  43 03:29:04  -290.787967c -3.09  -3.02
iter:  44 03:29:39  -290.788054c -3.41  -3.12
Writing to output.gpw (mode='')

iter:  45 03:30:10  -290.788135c -3.33  -3.31
iter:  46 03:31:04  -290.788167c -3.70  -3.34
iter:  47 03:31:52  -290.788193c -3.68  -3.37
iter:  48 03:32:22  -290.788235c -3.62  -3.41
iter:  49 03:32:53  -290.788259c -3.79  -3.62
Writing to output.gpw (mode='')

iter:  50 03:33:23  -290.788286c -3.88  -3.65
iter:  51 03:33:54  -290.788316c -3.73  -3.66
iter:  52 03:35:00  -290.788333c -4.16  -3.69
iter:  53 03:35:30  -290.788348c -4.10  -3.85
iter:  54 03:36:01  -290.788362c -3.95  -3.90
Writing to output.gpw (mode='')

iter:  55 03:36:31  -290.788372c -4.19  -3.90
iter:  56 03:37:02  -290.788373c -4.32  -3.94
iter:  57 03:37:34  -290.788378c -4.65  -4.14c
iter:  58 03:38:05  -290.788384c -4.48  -4.21c
iter:  59 03:38:35  -290.788386c -4.61  -4.25c
Writing to output.gpw (mode='')

iter:  60 03:39:07  -290.788389c -4.83  -4.30c
iter:  61 03:39:38  -290.788391c -4.68  -4.34c
iter:  62 03:40:09  -290.788394c -4.95  -4.38c
iter:  63 03:40:41  -290.788396c -4.97  -4.53c
iter:  64 03:41:12  -290.788398c -5.02  -4.54c
Writing to output.gpw (mode='')

iter:  65 03:41:43  -290.788400c -5.13  -4.58c
iter:  66 03:42:15  -290.788401c -5.24  -4.75c
iter:  67 03:42:46  -290.788402c -5.22  -4.84c
iter:  68 03:43:17  -290.788403c -5.25  -4.88c
iter:  69 03:44:08  -290.788403c -5.25  -4.96c
Writing to output.gpw (mode='')

iter:  70 03:44:39  -290.788404c -5.48  -5.06c
iter:  71 03:45:10  -290.788405c -5.31  -5.11c
iter:  72 03:45:40  -290.788404c -5.59  -5.06c
iter:  73 03:46:10  -290.788405c -5.65  -5.13c
iter:  74 03:46:42  -290.788405c -5.63  -5.15c
Writing to output.gpw (mode='')

iter:  75 03:47:21  -290.788405c -5.71  -5.18c
iter:  76 03:47:55  -290.788405c -5.89  -5.23c
iter:  77 03:48:26  -290.788405c -6.02  -5.45c
iter:  78 03:48:57  -290.788405c -6.08  -5.39c
iter:  79 03:49:27  -290.788406c -6.04  -5.42c
Writing to output.gpw (mode='')

iter:  80 03:49:58  -290.788406c -6.16  -5.48c
iter:  81 03:50:29  -290.788406c -6.17  -5.66c
iter:  82 03:51:08  -290.788406c -6.31  -5.57c
iter:  83 03:51:41  -290.788406c -6.27  -5.58c
iter:  84 03:52:12  -290.788406c -6.43  -5.68c
Writing to output.gpw (mode='')

iter:  85 03:52:44  -290.788406c -6.31  -5.61c
iter:  86 03:53:15  -290.788406c -6.53  -5.59c
iter:  87 03:53:45  -290.788406c -6.55  -5.55c
iter:  88 03:54:17  -290.788406c -6.66  -5.68c
iter:  89 03:54:49  -290.788406c -6.74  -5.68c
Writing to output.gpw (mode='')

iter:  90 03:55:20  -290.788406c -6.75  -5.45c
iter:  91 03:55:53  -290.788406c -6.80  -5.55c
iter:  92 03:56:25  -290.788406c -6.83  -5.57c
iter:  93 03:56:57  -290.788406c -6.82  -5.60c
iter:  94 03:57:33  -290.788406c -6.87  -5.70c
Writing to output.gpw (mode='')

iter:  95 03:58:10  -290.788406c -6.95  -5.81c
iter:  96 03:58:49  -290.788406c -7.03  -5.85c
iter:  97 03:59:26  -290.788406c -6.92  -5.66c
iter:  98 04:00:03  -290.788406c -6.95  -5.85c
iter:  99 04:00:39  -290.788406c -7.05  -6.04c
Writing to output.gpw (mode='')

iter: 100 04:01:16  -290.788406c -7.08  -6.10c
iter: 101 04:01:54  -290.788406c -7.19  -6.16c
iter: 102 04:02:31  -290.788406c -7.28  -6.34c
iter: 103 04:03:08  -290.788406c -7.34  -6.33c
iter: 104 04:03:46  -290.788406c -7.33  -6.07c
Writing to output.gpw (mode='')

iter: 105 04:04:23  -290.788406c -7.33  -6.37c
iter: 106 04:05:00  -290.788406c -7.41c -6.63c

Converged after 106 iterations.

Dipole moment: (9.132176, -2.844194, -0.197198) |e|*Ang

Energy contributions relative to reference atoms: (reference = -13512.263335)

Kinetic:       +138.734499
Potential:     -130.788450
External:        +0.000000
XC:            -299.266452
Entropy (-ST):   -0.152510
Local:           +0.608252
--------------------------
Free energy:   -290.864661
Extrapolated:  -290.788406

Dipole-layer corrected work functions: 3.381918, 3.761000 eV

Showing only first 2 kpts
 Kpt  Band  Eigenvalues  Occupancy
  0    29     -3.82420    1.98732
  0    30     -3.73679    1.92931
  0    31     -3.40931    0.07516
  0    32     -3.31764    0.01241

  1    29     -3.59661    1.24632
  1    30     -3.56876    0.97301
  1    31     -3.52747    0.58641
  1    32     -3.52054    0.53072


Fermi level: -3.57146

No gap
Writing to output.gpw (mode='')


Forces in eV/Ang:
  0 Li    0.00430    0.00039   -0.27260
  1 Li   -0.00337   -0.00047   -0.27331
  2 Li   -0.00110    0.00040   -0.27187
  3 Li   -0.00163   -0.00186   -0.27168
  4 Li    0.00228   -0.00051   -0.27427
  5 Li   -0.00067    0.00389   -0.27203
  6 Li   -0.00077    0.00145   -0.27193
  7 Li    0.00230    0.00103   -0.27378
  8 Li   -0.00153   -0.00427   -0.27258
  9 Li    0.00071    0.00275    0.26825
 10 Li    0.00328    0.00088    0.25751
 11 Li   -0.00385   -0.00319    0.25888
 12 Li    0.00045   -0.00207    0.26561
 13 Li    0.00347   -0.00055    0.25851
 14 Li   -0.00377    0.00319    0.25907
 15 Li   -0.00106   -0.00060    0.25591
 16 Li   -0.00564   -0.00035    0.26743
 17 Li    0.00679   -0.00005    0.25711
 18 Li    0.00482   -0.00001    0.04127
 19 Li    0.00494   -0.00074    0.03726
 20 Li   -0.00907    0.00051    0.00447
 21 Li   -0.00377   -0.00414    0.04296
 22 Li    0.00156    0.00427    0.02941
 23 Li    0.00221   -0.00473    0.04539
 24 Li   -0.00328    0.00426    0.03589
 25 Li    0.00120   -0.00355    0.03262
 26 Li    0.00208    0.00411    0.03628
 27 Li   -0.00464    0.02235    0.06200
 28 Li    0.00302    0.00869   -0.02318
 29 Li   -0.01362   -0.00783   -0.02094
 30 Li    0.00507   -0.01798   -0.00082
 31 Li    0.00078   -0.00465   -0.02472
 32 Li   -0.01721    0.01330   -0.03364
 33 Li   -0.00109   -0.00601   -0.02102
 34 Li   -0.00425   -0.00387   -0.01482
 35 Li    0.00507   -0.00434   -0.02063
 36 O    -0.12570   -0.06097   -0.11393
 37 O    -0.07950   -0.01762   -0.02292
 38 C    -0.06069    0.00879    0.09506
 39 C     0.04927   -0.01238    0.02627
 40 H     0.02358    0.08292   -0.05280
 41 H    -0.03457   -0.01281   -0.00930
 42 H     0.03345    0.02034    0.00221
 43 H    -0.03314    0.02059    0.00160
 44 H     0.21343   -0.00659   -0.07870
 45 H     0.01920   -0.04190    0.01588

System changes: positions 

Initializing position-dependent things.

Density initialized from wave functions
       .-----------------------.  
      /|                       |  
     / |                       |  
    /  |                       |  
   /   |                       |  
  /    |                       |  
 *     |                       |  
 |     |                       |  
 |     |                   H   |  
 |     |                 O     |  
 | C  H|                       |  
 |     |               H HCH   |  
 |     |               Li      |  
 |  H  |                  O    |  
 |     |     Li      Li      Li|  
 |     |  Li      Li      Li   |  
 | Li  |   Li      Li          |  
 |     |Li      Li      Li     |  
 |     | Li              Li    |  
 |   LLi     LLi     LLi       |  
 |     |  Li      Li      Li   |  
 | Li  |   Li      Li          |  
 |     |Li      Li      Li     |  
 Li    | Li      Li            |  
 |    Li      Li      Li       |  
 |     |                       |  
 |     |                       |  
 |     |                       |  
 |     |                       |  
 |     |                       |  
 |     |                       |  
 |     .-----------------------.  
 |    /                       /   
 |   /                       /    
 |  /                       /     
 | /                       /      
 |/                       /       
 *-----------------------*        

Positions:
   0 Li     1.617037    1.617037   10.000000    ( 0.0000,  0.0000,  0.0000)
   1 Li     4.851111    1.617037   10.000000    ( 0.0000,  0.0000,  0.0000)
   2 Li     8.085185    1.617037   10.000000    ( 0.0000,  0.0000,  0.0000)
   3 Li     1.617037    4.851111   10.000000    ( 0.0000,  0.0000,  0.0000)
   4 Li     4.851111    4.851111   10.000000    ( 0.0000,  0.0000,  0.0000)
   5 Li     8.085185    4.851111   10.000000    ( 0.0000,  0.0000,  0.0000)
   6 Li     1.617037    8.085185   10.000000    ( 0.0000,  0.0000,  0.0000)
   7 Li     4.851111    8.085185   10.000000    ( 0.0000,  0.0000,  0.0000)
   8 Li     8.085185    8.085185   10.000000    ( 0.0000,  0.0000,  0.0000)
   9 Li     0.000000    0.000000   11.617037    ( 0.0000,  0.0000,  0.0000)
  10 Li     3.234074    0.000000   11.617037    ( 0.0000,  0.0000,  0.0000)
  11 Li     6.468148    0.000000   11.617037    ( 0.0000,  0.0000,  0.0000)
  12 Li     0.000000    3.234074   11.617037    ( 0.0000,  0.0000,  0.0000)
  13 Li     3.234074    3.234074   11.617037    ( 0.0000,  0.0000,  0.0000)
  14 Li     6.468148    3.234074   11.617037    ( 0.0000,  0.0000,  0.0000)
  15 Li     0.000000    6.468148   11.617037    ( 0.0000,  0.0000,  0.0000)
  16 Li     3.234074    6.468148   11.617037    ( 0.0000,  0.0000,  0.0000)
  17 Li     6.468148    6.468148   11.617037    ( 0.0000,  0.0000,  0.0000)
  18 Li     1.617107    1.617038   13.470317    ( 0.0000,  0.0000,  0.0000)
  19 Li     4.851182    1.617028   13.470262    ( 0.0000,  0.0000,  0.0000)
  20 Li     8.085054    1.617045   13.469792    ( 0.0000,  0.0000,  0.0000)
  21 Li     1.616985    4.851052   13.470343    ( 0.0000,  0.0000,  0.0000)
  22 Li     4.851133    4.851172   13.470150    ( 0.0000,  0.0000,  0.0000)
  23 Li     8.085215    4.851043   13.470378    ( 0.0000,  0.0000,  0.0000)
  24 Li     1.616991    8.085245   13.470241    ( 0.0000,  0.0000,  0.0000)
  25 Li     4.851128    8.085133   13.470196    ( 0.0000,  0.0000,  0.0000)
  26 Li     8.085214    8.085243   13.470246    ( 0.0000,  0.0000,  0.0000)
  27 Li    -0.000066    0.000319   15.446825    ( 0.0000,  0.0000,  0.0000)
  28 Li     3.234117    0.000124   15.445608    ( 0.0000,  0.0000,  0.0000)
  29 Li     6.467954   -0.000112   15.445640    ( 0.0000,  0.0000,  0.0000)
  30 Li     0.000072    3.233817   15.445927    ( 0.0000,  0.0000,  0.0000)
  31 Li     3.234088    3.234010   15.445585    ( 0.0000,  0.0000,  0.0000)
  32 Li     6.467900    3.234267   15.445458    ( 0.0000,  0.0000,  0.0000)
  33 Li    -0.000016    6.468062   15.445639    ( 0.0000,  0.0000,  0.0000)
  34 Li     3.234016    6.468090   15.445726    ( 0.0000,  0.0000,  0.0000)
  35 Li     6.468218    6.468084   15.445643    ( 0.0000,  0.0000,  0.0000)
  36 O     -0.001796    1.616166   18.444312    ( 0.0000,  0.0000,  0.0000)
  37 O     -0.233825    1.660779   21.343810    ( 0.0000,  0.0000,  0.0000)
  38 C     -0.413244    2.788374   19.175858    ( 0.0000,  0.0000,  0.0000)
  39 C      0.157478    2.801762   20.584061    ( 0.0000,  0.0000,  0.0000)
  40 H     -0.119207    3.703824   18.645620    ( 0.0000,  0.0000,  0.0000)
  41 H     -1.502438    2.740768   19.207117    ( 0.0000,  0.0000,  0.0000)
  42 H     -0.219229    3.676495   21.120436    ( 0.0000,  0.0000,  0.0000)
  43 H      1.255361    2.877734   20.533979    ( 0.0000,  0.0000,  0.0000)
  44 H      0.950370    1.691458   18.275391    ( 0.0000,  0.0000,  0.0000)
  45 H     -0.135976    0.893312   20.764898    ( 0.0000,  0.0000,  0.0000)

Unit cell:
           periodic     x           y           z      points  spacing
  1. axis:    yes    9.702222    0.000000    0.000000    60     0.1617
  2. axis:    yes    0.000000    9.702222    0.000000    60     0.1617
  3. axis:    no     0.000000    0.000000   24.851111   156     0.1593

  Lengths:   9.702222   9.702222  24.851111
  Angles:   90.000000  90.000000  90.000000

Effective grid spacing dv^(1/3) = 0.1609

     iter     time        total  log10-change:
                         energy  eigst   dens
iter:   1 04:05:57  -290.790378  -2.88
iter:   2 04:06:41  -290.790305  -3.70  -3.02
iter:   3 04:07:39  -290.790163c -4.20  -3.00
iter:   4 04:08:57  -290.790055c -2.88  -3.15
Writing to output.gpw (mode='')

iter:   5 04:09:43  -290.789807c -3.65  -2.93
iter:   6 04:10:24  -290.789800c -4.11  -3.22
iter:   7 04:11:01  -290.789857c -3.74  -3.29
iter:   8 04:11:38  -290.789800c -4.31  -3.25
iter:   9 04:12:15  -290.789787c -4.57  -3.42
Writing to output.gpw (mode='')

iter:  10 04:13:03  -290.789760c -4.04  -3.42
iter:  11 04:13:45  -290.789758c -4.56  -3.70
iter:  12 04:14:27  -290.789761c -5.04  -3.86
iter:  13 04:15:10  -290.789764c -5.04  -3.90
iter:  14 04:15:50  -290.789758c -5.51  -3.95
Writing to output.gpw (mode='')

iter:  15 04:16:32  -290.789762c -5.36  -4.16c
iter:  16 04:17:15  -290.789762c -5.54  -4.26c
iter:  17 04:17:57  -290.789761c -5.54  -4.24c
iter:  18 04:18:41  -290.789759c -6.26  -4.41c
iter:  19 04:19:17  -290.789759c -6.25  -4.67c
Writing to output.gpw (mode='')

iter:  20 04:19:53  -290.789759c -7.10  -4.71c
iter:  21 04:20:38  -290.789760c -7.10  -4.85c
iter:  22 04:21:23  -290.789759c -6.90  -4.92c
iter:  23 04:22:08  -290.789760c -7.25  -4.96c
iter:  24 04:22:51  -290.789760c -7.12  -5.05c
Writing to output.gpw (mode='')

iter:  25 04:23:27  -290.789760c -8.01c -5.30c

Converged after 25 iterations.

Dipole moment: (9.263793, -2.848788, -0.196092) |e|*Ang

Energy contributions relative to reference atoms: (reference = -13512.263335)

Kinetic:       +138.389444
Potential:     -130.538713
External:        +0.000000
XC:            -299.172401
Entropy (-ST):   -0.152514
Local:           +0.608167
--------------------------
Free energy:   -290.866017
Extrapolated:  -290.789760

Dipole-layer corrected work functions: 3.381881, 3.758838 eV

Showing only first 2 kpts
 Kpt  Band  Eigenvalues  Occupancy
  0    29     -3.82296    1.98729
  0    30     -3.73567    1.92929
  0    31     -3.40816    0.07508
  0    32     -3.31639    0.01237

  1    29     -3.59553    1.24655
  1    30     -3.56757    0.97215
  1    31     -3.52649    0.58748
  1    32     -3.51951    0.53121


Fermi level: -3.57036

No gap

Forces in eV/Ang:
  0 Li    0.00432    0.00040   -0.27263
  1 Li   -0.00339   -0.00046   -0.27333
  2 Li   -0.00110    0.00040   -0.27188
  3 Li   -0.00162   -0.00188   -0.27173
  4 Li    0.00229   -0.00050   -0.27432
  5 Li   -0.00070    0.00391   -0.27207
  6 Li   -0.00077    0.00147   -0.27195
  7 Li    0.00232    0.00100   -0.27383
  8 Li   -0.00155   -0.00430   -0.27260
  9 Li    0.00079    0.00276    0.26856
 10 Li    0.00332    0.00091    0.25797
 11 Li   -0.00396   -0.00329    0.25920
 12 Li    0.00053   -0.00203    0.26604
 13 Li    0.00348   -0.00057    0.25899
 14 Li   -0.00385    0.00330    0.25944
 15 Li   -0.00108   -0.00065    0.25637
 16 Li   -0.00576   -0.00035    0.26794
 17 Li    0.00694   -0.00005    0.25756
 18 Li    0.00457   -0.00015    0.04022
 19 Li    0.00485   -0.00075    0.03607
 20 Li   -0.00883    0.00038    0.00420
 21 Li   -0.00376   -0.00410    0.04181
 22 Li    0.00147    0.00425    0.02844
 23 Li    0.00226   -0.00471    0.04415
 24 Li   -0.00341    0.00436    0.03516
 25 Li    0.00114   -0.00352    0.03167
 26 Li    0.00222    0.00421    0.03551
 27 Li   -0.00468    0.02231    0.06240
 28 Li    0.00296    0.00863   -0.02242
 29 Li   -0.01352   -0.00771   -0.02038
 30 Li    0.00493   -0.01808    0.00063
 31 Li    0.00077   -0.00464   -0.02392
 32 Li   -0.01704    0.01308   -0.03295
 33 Li   -0.00111   -0.00592   -0.02036
 34 Li   -0.00408   -0.00381   -0.01428
 35 Li    0.00495   -0.00425   -0.02003
 36 O     0.08297   -0.00836   -0.12078
 37 O    -0.06726   -0.01543   -0.01693
 38 C    -0.01373    0.03309    0.01204
 39 C    -0.00589   -0.01576    0.02403
 40 H     0.00249    0.02871   -0.01599
 41 H    -0.04409   -0.00893    0.00147
 42 H     0.03658    0.01204    0.00257
 43 H    -0.00272    0.01484    0.00218
 44 H    -0.00781   -0.02383   -0.04198
 45 H     0.01898   -0.03601    0.01649

System changes: positions 

Initializing position-dependent things.

Density initialized from wave functions
       .-----------------------.  
      /|                       |  
     / |                       |  
    /  |                       |  
   /   |                       |  
  /    |                       |  
 *     |                       |  
 |     |                       |  
 |     |                   H   |  
 |     |                 O     |  
 | C  H|                       |  
 |     |               H HCH   |  
 |     |               Li      |  
 |  H  |                  O    |  
 |     |     Li      Li      Li|  
 |     |  Li      Li      Li   |  
 | Li  |   Li      Li          |  
 |     |Li      Li      Li     |  
 |     | Li              Li    |  
 |   LLi     LLi     LLi       |  
 |     |  Li      Li      Li   |  
 | Li  |   Li      Li          |  
 |     |Li      Li      Li     |  
 Li    | Li      Li            |  
 |    Li      Li      Li       |  
 |     |                       |  
 |     |                       |  
 |     |                       |  
 |     |                       |  
 |     |                       |  
 |     |                       |  
 |     .-----------------------.  
 |    /                       /   
 |   /                       /    
 |  /                       /     
 | /                       /      
 |/                       /       
 *-----------------------*        

Positions:
   0 Li     1.617037    1.617037   10.000000    ( 0.0000,  0.0000,  0.0000)
   1 Li     4.851111    1.617037   10.000000    ( 0.0000,  0.0000,  0.0000)
   2 Li     8.085185    1.617037   10.000000    ( 0.0000,  0.0000,  0.0000)
   3 Li     1.617037    4.851111   10.000000    ( 0.0000,  0.0000,  0.0000)
   4 Li     4.851111    4.851111   10.000000    ( 0.0000,  0.0000,  0.0000)
   5 Li     8.085185    4.851111   10.000000    ( 0.0000,  0.0000,  0.0000)
   6 Li     1.617037    8.085185   10.000000    ( 0.0000,  0.0000,  0.0000)
   7 Li     4.851111    8.085185   10.000000    ( 0.0000,  0.0000,  0.0000)
   8 Li     8.085185    8.085185   10.000000    ( 0.0000,  0.0000,  0.0000)
   9 Li     0.000000    0.000000   11.617037    ( 0.0000,  0.0000,  0.0000)
  10 Li     3.234074    0.000000   11.617037    ( 0.0000,  0.0000,  0.0000)
  11 Li     6.468148    0.000000   11.617037    ( 0.0000,  0.0000,  0.0000)
  12 Li     0.000000    3.234074   11.617037    ( 0.0000,  0.0000,  0.0000)
  13 Li     3.234074    3.234074   11.617037    ( 0.0000,  0.0000,  0.0000)
  14 Li     6.468148    3.234074   11.617037    ( 0.0000,  0.0000,  0.0000)
  15 Li     0.000000    6.468148   11.617037    ( 0.0000,  0.0000,  0.0000)
  16 Li     3.234074    6.468148   11.617037    ( 0.0000,  0.0000,  0.0000)
  17 Li     6.468148    6.468148   11.617037    ( 0.0000,  0.0000,  0.0000)
  18 Li     1.617244    1.617035   13.471517    ( 0.0000,  0.0000,  0.0000)
  19 Li     4.851326    1.617006   13.471340    ( 0.0000,  0.0000,  0.0000)
  20 Li     8.084791    1.617058   13.469919    ( 0.0000,  0.0000,  0.0000)
  21 Li     1.616873    4.850930   13.471591    ( 0.0000,  0.0000,  0.0000)
  22 Li     4.851178    4.851298   13.471001    ( 0.0000,  0.0000,  0.0000)
  23 Li     8.085282    4.850904   13.471696    ( 0.0000,  0.0000,  0.0000)
  24 Li     1.616891    8.085373   13.471288    ( 0.0000,  0.0000,  0.0000)
  25 Li     4.851162    8.085028   13.471142    ( 0.0000,  0.0000,  0.0000)
  26 Li     8.085278    8.085366   13.471304    ( 0.0000,  0.0000,  0.0000)
  27 Li    -0.000204    0.000980   15.448668    ( 0.0000,  0.0000,  0.0000)
  28 Li     3.234205    0.000380   15.444937    ( 0.0000,  0.0000,  0.0000)
  29 Li     6.467553   -0.000341   15.445031    ( 0.0000,  0.0000,  0.0000)
  30 Li     0.000219    3.233283   15.445933    ( 0.0000,  0.0000,  0.0000)
  31 Li     3.234110    3.233873   15.444870    ( 0.0000,  0.0000,  0.0000)
  32 Li     6.467394    3.234656   15.444476    ( 0.0000,  0.0000,  0.0000)
  33 Li    -0.000048    6.467886   15.445030    ( 0.0000,  0.0000,  0.0000)
  34 Li     3.233893    6.467977   15.445299    ( 0.0000,  0.0000,  0.0000)
  35 Li     6.468366    6.467957   15.445045    ( 0.0000,  0.0000,  0.0000)
  36 O     -0.001238    1.615440   18.440799    ( 0.0000,  0.0000,  0.0000)
  37 O     -0.235927    1.660302   21.343254    ( 0.0000,  0.0000,  0.0000)
  38 C     -0.414078    2.789133   19.176970    ( 0.0000,  0.0000,  0.0000)
  39 C      0.157805    2.801326   20.584793    ( 0.0000,  0.0000,  0.0000)
  40 H     -0.118942    3.705167   18.644812    ( 0.0000,  0.0000,  0.0000)
  41 H     -1.503656    2.740468   19.207062    ( 0.0000,  0.0000,  0.0000)
  42 H     -0.218175    3.676927   21.120508    ( 0.0000,  0.0000,  0.0000)
  43 H      1.255004    2.878226   20.534038    ( 0.0000,  0.0000,  0.0000)
  44 H      0.952152    1.690909   18.273814    ( 0.0000,  0.0000,  0.0000)
  45 H     -0.135412    0.892192   20.765381    ( 0.0000,  0.0000,  0.0000)

Unit cell:
           periodic     x           y           z      points  spacing
  1. axis:    yes    9.702222    0.000000    0.000000    60     0.1617
  2. axis:    yes    0.000000    9.702222    0.000000    60     0.1617
  3. axis:    no     0.000000    0.000000   24.851111   156     0.1593

  Lengths:   9.702222   9.702222  24.851111
  Angles:   90.000000  90.000000  90.000000

Effective grid spacing dv^(1/3) = 0.1609

     iter     time        total  log10-change:
                         energy  eigst   dens
iter:   1 04:24:25  -290.792610  -2.73
iter:   2 04:25:15  -290.791512  -3.36  -2.47
iter:   3 04:26:01  -290.791325c -4.07  -2.81
iter:   4 04:26:48  -290.791037c -3.41  -3.08
Writing to output.gpw (mode='')

iter:   5 04:27:33  -290.791028c -4.35  -3.31
iter:   6 04:28:34  -290.791016c -4.58  -3.46
iter:   7 04:29:33  -290.791035c -3.75  -3.63
iter:   8 04:30:35  -290.791004c -4.43  -3.50
iter:   9 04:31:34  -290.791005c -4.48  -3.83
Writing to output.gpw (mode='')

iter:  10 04:32:35  -290.791017c -4.75  -3.94
iter:  11 04:33:50  -290.791010c -5.36  -3.74
iter:  12 04:34:51  -290.791009c -5.08  -3.87
iter:  13 04:35:51  -290.791006c -5.49  -4.16c
iter:  14 04:37:04  -290.791008c -6.40  -4.26c
Writing to output.gpw (mode='')

iter:  15 04:38:15  -290.791007c -6.41  -4.45c
iter:  16 04:39:17  -290.791007c -5.96  -4.58c
iter:  17 04:40:23  -290.791007c -6.79  -4.44c
iter:  18 04:41:32  -290.791006c -6.82  -4.44c
iter:  19 04:42:45  -290.791006c -6.61  -4.57c
Writing to output.gpw (mode='')

iter:  20 04:44:01  -290.791006c -7.44c -4.71c

Converged after 20 iterations.

Dipole moment: (9.206736, -2.859614, -0.192713) |e|*Ang

Energy contributions relative to reference atoms: (reference = -13512.263335)

Kinetic:       +138.090394
Potential:     -130.318860
External:        +0.000000
XC:            -299.093072
Entropy (-ST):   -0.152525
Local:           +0.606794
--------------------------
Free energy:   -290.867269
Extrapolated:  -290.791006

Dipole-layer corrected work functions: 3.381824, 3.752285 eV

Showing only first 2 kpts
 Kpt  Band  Eigenvalues  Occupancy
  0    29     -3.81936    1.98721
  0    30     -3.73234    1.92925
  0    31     -3.40473    0.07491
  0    32     -3.31276    0.01229

  1    29     -3.59222    1.24645
  1    30     -3.56414    0.97089
  1    31     -3.52344    0.58957
  1    32     -3.51637    0.53255


Fermi level: -3.56705

No gap

Forces in eV/Ang:
  0 Li    0.00442    0.00042   -0.27271
  1 Li   -0.00337   -0.00041   -0.27341
  2 Li   -0.00122    0.00042   -0.27194
  3 Li   -0.00154   -0.00191   -0.27187
  4 Li    0.00232   -0.00050   -0.27442
  5 Li   -0.00080    0.00390   -0.27218
  6 Li   -0.00071    0.00146   -0.27207
  7 Li    0.00235    0.00096   -0.27394
  8 Li   -0.00164   -0.00431   -0.27268
  9 Li    0.00094    0.00280    0.26918
 10 Li    0.00349    0.00095    0.25886
 11 Li   -0.00426   -0.00349    0.25982
 12 Li    0.00068   -0.00194    0.26694
 13 Li    0.00354   -0.00060    0.26001
 14 Li   -0.00405    0.00356    0.26017
 15 Li   -0.00113   -0.00077    0.25732
 16 Li   -0.00597   -0.00037    0.26894
 17 Li    0.00719   -0.00011    0.25851
 18 Li    0.00409   -0.00042    0.03811
 19 Li    0.00461   -0.00074    0.03378
 20 Li   -0.00829    0.00014    0.00398
 21 Li   -0.00373   -0.00411    0.03962
 22 Li    0.00125    0.00418    0.02651
 23 Li    0.00235   -0.00471    0.04173
 24 Li   -0.00366    0.00463    0.03383
 25 Li    0.00101   -0.00345    0.02972
 26 Li    0.00248    0.00445    0.03403
 27 Li   -0.00491    0.02207    0.06265
 28 Li    0.00298    0.00832   -0.02130
 29 Li   -0.01327   -0.00734   -0.01940
 30 Li    0.00451   -0.01810    0.00244
 31 Li    0.00092   -0.00446   -0.02275
 32 Li   -0.01661    0.01254   -0.03166
 33 Li   -0.00114   -0.00574   -0.01913
 34 Li   -0.00379   -0.00371   -0.01329
 35 Li    0.00474   -0.00410   -0.01886
 36 O     0.09090    0.05965   -0.06636
 37 O    -0.05086   -0.01381   -0.01025
 38 C     0.02877    0.01297   -0.07482
 39 C    -0.04074   -0.01845   -0.00044
 40 H    -0.01655   -0.01374    0.01715
 41 H    -0.02489   -0.00988    0.00297
 42 H     0.03280    0.00448    0.00784
 43 H     0.01327    0.00278    0.00624
 44 H    -0.04924   -0.01890   -0.03325
 45 H     0.01868   -0.02543    0.01850

System changes: positions 

Initializing position-dependent things.

Density initialized from wave functions
       .-----------------------.  
      /|                       |  
     / |                       |  
    /  |                       |  
   /   |                       |  
  /    |                       |  
 *     |                       |  
 |     |                       |  
 |     |                   H   |  
 |     |                 O     |  
 | C  H|                       |  
 |     |               H HCH   |  
 |     |               Li      |  
 |O H  |                       |  
 |     |     Li      Li      Li|  
 |     |  Li      Li      Li   |  
 | Li  |   Li      Li          |  
 |     |Li      Li      Li     |  
 |     | Li              Li    |  
 |   LLi     LLi     LLi       |  
 |     |  Li      Li      Li   |  
 | Li  |   Li      Li          |  
 |     |Li      Li      Li     |  
 Li    | Li      Li            |  
 |    Li      Li      Li       |  
 |     |                       |  
 |     |                       |  
 |     |                       |  
 |     |                       |  
 |     |                       |  
 |     |                       |  
 |     .-----------------------.  
 |    /                       /   
 |   /                       /    
 |  /                       /     
 | /                       /      
 |/                       /       
 *-----------------------*        

Positions:
   0 Li     1.617037    1.617037   10.000000    ( 0.0000,  0.0000,  0.0000)
   1 Li     4.851111    1.617037   10.000000    ( 0.0000,  0.0000,  0.0000)
   2 Li     8.085185    1.617037   10.000000    ( 0.0000,  0.0000,  0.0000)
   3 Li     1.617037    4.851111   10.000000    ( 0.0000,  0.0000,  0.0000)
   4 Li     4.851111    4.851111   10.000000    ( 0.0000,  0.0000,  0.0000)
   5 Li     8.085185    4.851111   10.000000    ( 0.0000,  0.0000,  0.0000)
   6 Li     1.617037    8.085185   10.000000    ( 0.0000,  0.0000,  0.0000)
   7 Li     4.851111    8.085185   10.000000    ( 0.0000,  0.0000,  0.0000)
   8 Li     8.085185    8.085185   10.000000    ( 0.0000,  0.0000,  0.0000)
   9 Li     0.000000    0.000000   11.617037    ( 0.0000,  0.0000,  0.0000)
  10 Li     3.234074    0.000000   11.617037    ( 0.0000,  0.0000,  0.0000)
  11 Li     6.468148    0.000000   11.617037    ( 0.0000,  0.0000,  0.0000)
  12 Li     0.000000    3.234074   11.617037    ( 0.0000,  0.0000,  0.0000)
  13 Li     3.234074    3.234074   11.617037    ( 0.0000,  0.0000,  0.0000)
  14 Li     6.468148    3.234074   11.617037    ( 0.0000,  0.0000,  0.0000)
  15 Li     0.000000    6.468148   11.617037    ( 0.0000,  0.0000,  0.0000)
  16 Li     3.234074    6.468148   11.617037    ( 0.0000,  0.0000,  0.0000)
  17 Li     6.468148    6.468148   11.617037    ( 0.0000,  0.0000,  0.0000)
  18 Li     1.617568    1.617018   13.474405    ( 0.0000,  0.0000,  0.0000)
  19 Li     4.851674    1.616951   13.473922    ( 0.0000,  0.0000,  0.0000)
  20 Li     8.084159    1.617080   13.470224    ( 0.0000,  0.0000,  0.0000)
  21 Li     1.616599    4.850630   13.474594    ( 0.0000,  0.0000,  0.0000)
  22 Li     4.851280    4.851606   13.473034    ( 0.0000,  0.0000,  0.0000)
  23 Li     8.085448    4.850560   13.474864    ( 0.0000,  0.0000,  0.0000)
  24 Li     1.616638    8.085697   13.473825    ( 0.0000,  0.0000,  0.0000)
  25 Li     4.851242    8.084773   13.473409    ( 0.0000,  0.0000,  0.0000)
  26 Li     8.085445    8.085679   13.473863    ( 0.0000,  0.0000,  0.0000)
  27 Li    -0.000552    0.002600   15.453218    ( 0.0000,  0.0000,  0.0000)
  28 Li     3.234423    0.001001   15.443322    ( 0.0000,  0.0000,  0.0000)
  29 Li     6.466572   -0.000894   15.443564    ( 0.0000,  0.0000,  0.0000)
  30 Li     0.000568    3.231966   15.446005    ( 0.0000,  0.0000,  0.0000)
  31 Li     3.234171    3.233540   15.443146    ( 0.0000,  0.0000,  0.0000)
  32 Li     6.466162    3.235597   15.442100    ( 0.0000,  0.0000,  0.0000)
  33 Li    -0.000130    6.467459   15.443570    ( 0.0000,  0.0000,  0.0000)
  34 Li     3.233602    6.467701   15.444278    ( 0.0000,  0.0000,  0.0000)
  35 Li     6.468723    6.467650   15.443609    ( 0.0000,  0.0000,  0.0000)
  36 O      0.000451    1.615872   18.433909    ( 0.0000,  0.0000,  0.0000)
  37 O     -0.240570    1.659181   21.342104    ( 0.0000,  0.0000,  0.0000)
  38 C     -0.414740    2.790355   19.176867    ( 0.0000,  0.0000,  0.0000)
  39 C      0.157466    2.800165   20.585801    ( 0.0000,  0.0000,  0.0000)
  40 H     -0.118911    3.707083   18.643907    ( 0.0000,  0.0000,  0.0000)
  41 H     -1.506037    2.739700   19.206980    ( 0.0000,  0.0000,  0.0000)
  42 H     -0.215699    3.677744   21.120859    ( 0.0000,  0.0000,  0.0000)
  43 H      1.254651    2.879044   20.534316    ( 0.0000,  0.0000,  0.0000)
  44 H      0.955135    1.689713   18.270223    ( 0.0000,  0.0000,  0.0000)
  45 H     -0.134033    0.889779   20.766635    ( 0.0000,  0.0000,  0.0000)

Unit cell:
           periodic     x           y           z      points  spacing
  1. axis:    yes    9.702222    0.000000    0.000000    60     0.1617
  2. axis:    yes    0.000000    9.702222    0.000000    60     0.1617
  3. axis:    no     0.000000    0.000000   24.851111   156     0.1593

  Lengths:   9.702222   9.702222  24.851111
  Angles:   90.000000  90.000000  90.000000

Effective grid spacing dv^(1/3) = 0.1609

     iter     time        total  log10-change:
                         energy  eigst   dens
iter:   1 04:45:47  -290.803653  -2.09
iter:   2 04:48:24  -290.795346  -2.63  -2.03
iter:   3 04:51:33  -290.793489c -3.56  -2.39
iter:   4 04:54:13  -290.793053c -3.53  -2.81
Writing to output.gpw (mode='')

iter:   5 04:58:29  -290.792818c -3.31  -2.97
iter:   6 05:04:19  -290.792807c -3.89  -3.26
iter:   7 05:10:54  -290.792831c -3.46  -3.40
iter:   8 05:15:30  -290.792793c -4.25  -3.28
iter:   9 05:19:18  -290.792797c -4.15  -3.52
Writing to output.gpw (mode='')

iter:  10 05:22:30  -290.792796c -4.93  -3.77
iter:  11 05:25:35  -290.792797c -5.01  -3.82
iter:  12 05:29:50  -290.792796c -5.07  -3.84
iter:  13 05:33:46  -290.792795c -5.95  -4.09c
iter:  14 05:37:33  -290.792794c -6.06  -4.20c
Writing to output.gpw (mode='')

iter:  15 05:40:46  -290.792793c -5.93  -4.29c
iter:  16 05:44:27  -290.792792c -6.05  -4.30c
iter:  17 05:48:07  -290.792792c -6.23  -4.44c
iter:  18 05:52:08  -290.792792c -6.55  -4.60c
iter:  19 05:55:16  -290.792792c -6.98  -4.71c
Writing to output.gpw (mode='')

iter:  20 05:57:45  -290.792792c -7.13  -4.81c
iter:  21 06:00:15  -290.792792c -7.21  -4.83c
iter:  22 06:03:09  -290.792792c -7.17  -4.90c
iter:  23 06:10:13  -290.792792c -7.53c -5.01c

Converged after 23 iterations.

Dipole moment: (9.074021, -2.886533, -0.187107) |e|*Ang

Energy contributions relative to reference atoms: (reference = -13512.263335)

Kinetic:       +137.632837
Potential:     -129.980657
External:        +0.000000
XC:            -298.976206
Entropy (-ST):   -0.152553
Local:           +0.607509
--------------------------
Free energy:   -290.869069
Extrapolated:  -290.792792

Dipole-layer corrected work functions: 3.381737, 3.741422 eV

Showing only first 2 kpts
 Kpt  Band  Eigenvalues  Occupancy
  0    29     -3.81317    1.98703
  0    30     -3.72679    1.92915
  0    31     -3.39897    0.07450
  0    32     -3.30650    0.01210

  1    29     -3.58668    1.24587
  1    30     -3.55836    0.96780
  1    31     -3.51859    0.59476
  1    32     -3.51134    0.53601


Fermi level: -3.56158

No gap
Writing to output.gpw (mode='')


Forces in eV/Ang:
  0 Li    0.00446    0.00041   -0.27274
  1 Li   -0.00343   -0.00039   -0.27362
  2 Li   -0.00122    0.00041   -0.27198
  3 Li   -0.00153   -0.00193   -0.27209
  4 Li    0.00231   -0.00043   -0.27469
  5 Li   -0.00077    0.00395   -0.27237
  6 Li   -0.00075    0.00149   -0.27216
  7 Li    0.00235    0.00087   -0.27421
  8 Li   -0.00158   -0.00434   -0.27274
  9 Li    0.00138    0.00282    0.27062
 10 Li    0.00363    0.00102    0.26105
 11 Li   -0.00478   -0.00403    0.26135
 12 Li    0.00112   -0.00177    0.26894
 13 Li    0.00347   -0.00070    0.26243
 14 Li   -0.00439    0.00415    0.26193
 15 Li   -0.00118   -0.00095    0.25970
 16 Li   -0.00670   -0.00033    0.27142
 17 Li    0.00795   -0.00017    0.26085
 18 Li    0.00273   -0.00117    0.03313
 19 Li    0.00403   -0.00079    0.02804
 20 Li   -0.00680   -0.00054    0.00355
 21 Li   -0.00377   -0.00399    0.03421
 22 Li    0.00067    0.00409    0.02176
 23 Li    0.00274   -0.00460    0.03583
 24 Li   -0.00438    0.00522    0.03042
 25 Li    0.00064   -0.00329    0.02497
 26 Li    0.00327    0.00501    0.03035
 27 Li   -0.00535    0.02104    0.06228
 28 Li    0.00272    0.00761   -0.01825
 29 Li   -0.01251   -0.00651   -0.01681
 30 Li    0.00358   -0.01767    0.00581
 31 Li    0.00099   -0.00409   -0.01954
 32 Li   -0.01535    0.01119   -0.02814
 33 Li   -0.00117   -0.00523   -0.01599
 34 Li   -0.00328   -0.00341   -0.01060
 35 Li    0.00437   -0.00362   -0.01580
 36 O     0.07177    0.13244    0.02019
 37 O    -0.01304   -0.00372   -0.00581
 38 C     0.04034   -0.03174   -0.13535
 39 C    -0.05291   -0.01120   -0.05348
 40 H    -0.03395   -0.04362    0.04609
 41 H     0.04132   -0.01043   -0.00672
 42 H     0.01763   -0.01358    0.01163
 43 H     0.01077   -0.02548    0.01471
 44 H    -0.07768   -0.00186   -0.02275
 45 H     0.01799   -0.00827    0.02122

System changes: positions 

Initializing position-dependent things.

Density initialized from wave functions
       .-----------------------.  
      /|                       |  
     / |                       |  
    /  |                       |  
   /   |                       |  
  /    |                       |  
 *     |                       |  
 |     |                       |  
 |     |                   H   |  
 |     |                 O     |  
 | C  H|                       |  
 |     |               H HCH   |  
 |     |               Li      |  
 |O H  |                       |  
 |     |     Li      Li      Li|  
 |     |  Li      Li      Li   |  
 | Li  |   Li      Li          |  
 |     |Li      Li      Li     |  
 |     | Li              Li    |  
 |   LLi     LLi     LLi       |  
 |     |  Li      Li      Li   |  
 | Li  |   Li      Li          |  
 |     |Li      Li      Li     |  
 Li    | Li      Li            |  
 |    Li      Li      Li       |  
 |     |                       |  
 |     |                       |  
 |     |                       |  
 |     |                       |  
 |     |                       |  
 |     |                       |  
 |     .-----------------------.  
 |    /                       /   
 |   /                       /    
 |  /                       /     
 | /                       /      
 |/                       /       
 *-----------------------*        

Positions:
   0 Li     1.617037    1.617037   10.000000    ( 0.0000,  0.0000,  0.0000)
   1 Li     4.851111    1.617037   10.000000    ( 0.0000,  0.0000,  0.0000)
   2 Li     8.085185    1.617037   10.000000    ( 0.0000,  0.0000,  0.0000)
   3 Li     1.617037    4.851111   10.000000    ( 0.0000,  0.0000,  0.0000)
   4 Li     4.851111    4.851111   10.000000    ( 0.0000,  0.0000,  0.0000)
   5 Li     8.085185    4.851111   10.000000    ( 0.0000,  0.0000,  0.0000)
   6 Li     1.617037    8.085185   10.000000    ( 0.0000,  0.0000,  0.0000)
   7 Li     4.851111    8.085185   10.000000    ( 0.0000,  0.0000,  0.0000)
   8 Li     8.085185    8.085185   10.000000    ( 0.0000,  0.0000,  0.0000)
   9 Li     0.000000    0.000000   11.617037    ( 0.0000,  0.0000,  0.0000)
  10 Li     3.234074    0.000000   11.617037    ( 0.0000,  0.0000,  0.0000)
  11 Li     6.468148    0.000000   11.617037    ( 0.0000,  0.0000,  0.0000)
  12 Li     0.000000    3.234074   11.617037    ( 0.0000,  0.0000,  0.0000)
  13 Li     3.234074    3.234074   11.617037    ( 0.0000,  0.0000,  0.0000)
  14 Li     6.468148    3.234074   11.617037    ( 0.0000,  0.0000,  0.0000)
  15 Li     0.000000    6.468148   11.617037    ( 0.0000,  0.0000,  0.0000)
  16 Li     3.234074    6.468148   11.617037    ( 0.0000,  0.0000,  0.0000)
  17 Li     6.468148    6.468148   11.617037    ( 0.0000,  0.0000,  0.0000)
  18 Li     1.617928    1.616980   13.477801    ( 0.0000,  0.0000,  0.0000)
  19 Li     4.852083    1.616884   13.476927    ( 0.0000,  0.0000,  0.0000)
  20 Li     8.083426    1.617091   13.470585    ( 0.0000,  0.0000,  0.0000)
  21 Li     1.616265    4.850267   13.478120    ( 0.0000,  0.0000,  0.0000)
  22 Li     4.851390    4.851979   13.475394    ( 0.0000,  0.0000,  0.0000)
  23 Li     8.085661    4.850144   13.478579    ( 0.0000,  0.0000,  0.0000)
  24 Li     1.616311    8.086107   13.476832    ( 0.0000,  0.0000,  0.0000)
  25 Li     4.851331    8.084466   13.476054    ( 0.0000,  0.0000,  0.0000)
  26 Li     8.085669    8.086073   13.476889    ( 0.0000,  0.0000,  0.0000)
  27 Li    -0.000987    0.004549   15.458753    ( 0.0000,  0.0000,  0.0000)
  28 Li     3.234682    0.001740   15.441429    ( 0.0000,  0.0000,  0.0000)
  29 Li     6.465397   -0.001548   15.441841    ( 0.0000,  0.0000,  0.0000)
  30 Li     0.000970    3.230372   15.446179    ( 0.0000,  0.0000,  0.0000)
  31 Li     3.234248    3.233144   15.441124    ( 0.0000,  0.0000,  0.0000)
  32 Li     6.464691    3.236711   15.439292    ( 0.0000,  0.0000,  0.0000)
  33 Li    -0.000230    6.466950   15.441869    ( 0.0000,  0.0000,  0.0000)
  34 Li     3.233259    6.467372   15.443100    ( 0.0000,  0.0000,  0.0000)
  35 Li     6.469148    6.467287   15.441935    ( 0.0000,  0.0000,  0.0000)
  36 O      0.002573    1.618317   18.427603    ( 0.0000,  0.0000,  0.0000)
  37 O     -0.245283    1.658062   21.340828    ( 0.0000,  0.0000,  0.0000)
  38 C     -0.415122    2.790822   19.175027    ( 0.0000,  0.0000,  0.0000)
  39 C      0.156599    2.798912   20.585739    ( 0.0000,  0.0000,  0.0000)
  40 H     -0.119355    3.708539   18.643610    ( 0.0000,  0.0000,  0.0000)
  41 H     -1.507368    2.738760   19.206676    ( 0.0000,  0.0000,  0.0000)
  42 H     -0.213040    3.678281   21.121381    ( 0.0000,  0.0000,  0.0000)
  43 H      1.254248    2.879343   20.534861    ( 0.0000,  0.0000,  0.0000)
  44 H      0.957515    1.688623   18.266195    ( 0.0000,  0.0000,  0.0000)
  45 H     -0.132370    0.887271   20.768231    ( 0.0000,  0.0000,  0.0000)

Unit cell:
           periodic     x           y           z      points  spacing
  1. axis:    yes    9.702222    0.000000    0.000000    60     0.1617
  2. axis:    yes    0.000000    9.702222    0.000000    60     0.1617
  3. axis:    no     0.000000    0.000000   24.851111   156     0.1593

  Lengths:   9.702222   9.702222  24.851111
  Angles:   90.000000  90.000000  90.000000

Effective grid spacing dv^(1/3) = 0.1609

     iter     time        total  log10-change:
                         energy  eigst   dens
iter:   1 06:14:58  -290.814661  -1.93
iter:   2 06:18:32  -290.798600  -2.43  -1.90
iter:   3 06:22:21  -290.794885c -3.56  -2.25
iter:   4 06:24:57  -290.794634c -3.69  -2.80
Writing to output.gpw (mode='')

iter:   5 06:31:03  -290.794454c -3.37  -2.95
iter:   6 06:34:17  -290.794431c -3.60  -3.27
iter:   7 06:37:19  -290.794476c -3.52  -3.47
iter:   8 06:41:38  -290.794452c -4.10  -3.26
iter:   9 06:45:07  -290.794469c -4.30  -3.61
Writing to output.gpw (mode='')

iter:  10 06:49:44  -290.794452c -4.70  -3.61
iter:  11 06:53:34  -290.794451c -5.09  -3.74
iter:  12 06:57:07  -290.794453c -5.01  -3.88
iter:  13 07:01:16  -290.794451c -5.64  -3.98
iter:  14 07:04:42  -290.794448c -5.44  -4.08c
Writing to output.gpw (mode='')

iter:  15 07:08:31  -290.794451c -5.48  -4.23c
iter:  16 07:12:23  -290.794448c -5.90  -4.05c
iter:  17 07:17:01  -290.794448c -5.66  -4.41c
iter:  18 07:21:34  -290.794448c -6.60  -4.53c
iter:  19 07:24:09  -290.794449c -6.31  -4.65c
Writing to output.gpw (mode='')

iter:  20 07:28:33  -290.794449c -6.39  -4.51c
iter:  21 07:33:16  -290.794449c -6.74  -4.91c
iter:  22 07:38:02  -290.794449c -7.07  -4.91c
iter:  23 07:42:07  -290.794449c -7.12  -5.16c
iter:  24 07:46:47  -290.794449c -7.10  -5.30c
Writing to output.gpw (mode='')

iter:  25 07:50:38  -290.794449c -7.33  -5.19c
iter:  26 07:54:10  -290.794449c -7.48c -5.53c

Converged after 26 iterations.

Dipole moment: (8.907164, -2.918471, -0.183049) |e|*Ang

Energy contributions relative to reference atoms: (reference = -13512.263335)

Kinetic:       +137.388660
Potential:     -129.795232
External:        +0.000000
XC:            -298.919063
Entropy (-ST):   -0.152589
Local:           +0.607481
--------------------------
Free energy:   -290.870744
Extrapolated:  -290.794449

Dipole-layer corrected work functions: 3.381741, 3.733623 eV

Showing only first 2 kpts
 Kpt  Band  Eigenvalues  Occupancy
  0    29     -3.80842    1.98681
  0    30     -3.72281    1.92903
  0    31     -3.39477    0.07407
  0    32     -3.30167    0.01188

  1    29     -3.58268    1.24494
  1    30     -3.55410    0.96424
  1    31     -3.51543    0.60098
  1    32     -3.50798    0.54023


Fermi level: -3.55768

No gap
Writing to output.gpw (mode='')


Forces in eV/Ang:
  0 Li    0.00452    0.00042   -0.27292
  1 Li   -0.00343   -0.00034   -0.27394
  2 Li   -0.00128    0.00040   -0.27215
  3 Li   -0.00148   -0.00199   -0.27247
  4 Li    0.00233   -0.00037   -0.27504
  5 Li   -0.00080    0.00394   -0.27270
  6 Li   -0.00077    0.00154   -0.27243
  7 Li    0.00239    0.00078   -0.27461
  8 Li   -0.00158   -0.00433   -0.27295
  9 Li    0.00185    0.00287    0.27223
 10 Li    0.00386    0.00112    0.26368
 11 Li   -0.00543   -0.00464    0.26320
 12 Li    0.00161   -0.00156    0.27129
 13 Li    0.00344   -0.00082    0.26537
 14 Li   -0.00481    0.00483    0.26408
 15 Li   -0.00125   -0.00119    0.26254
 16 Li   -0.00750   -0.00030    0.27439
 17 Li    0.00878   -0.00026    0.26369
 18 Li    0.00114   -0.00199    0.02757
 19 Li    0.00335   -0.00081    0.02128
 20 Li   -0.00507   -0.00128    0.00322
 21 Li   -0.00374   -0.00388    0.02789
 22 Li   -0.00001    0.00395    0.01622
 23 Li    0.00310   -0.00450    0.02887
 24 Li   -0.00514    0.00588    0.02652
 25 Li    0.00022   -0.00311    0.01945
 26 Li    0.00411    0.00564    0.02607
 27 Li   -0.00584    0.01962    0.06100
 28 Li    0.00239    0.00681   -0.01473
 29 Li   -0.01160   -0.00548   -0.01382
 30 Li    0.00249   -0.01684    0.00909
 31 Li    0.00107   -0.00370   -0.01586
 32 Li   -0.01388    0.00954   -0.02401
 33 Li   -0.00118   -0.00462   -0.01228
 34 Li   -0.00255   -0.00304   -0.00756
 35 Li    0.00380   -0.00306   -0.01231
 36 O     0.03266    0.14782    0.05137
 37 O     0.03041    0.01281   -0.00927
 38 C     0.05574   -0.04225   -0.12505
 39 C    -0.04622    0.00071   -0.08121
 40 H    -0.04223   -0.04391    0.05254
 41 H     0.07927   -0.01412   -0.02228
 42 H     0.00047   -0.03500    0.00417
 43 H    -0.00201   -0.05246    0.01619
 44 H    -0.06303    0.02274   -0.01489
 45 H     0.01738    0.00324    0.02171

System changes: positions 

Initializing position-dependent things.

Density initialized from wave functions
       .-----------------------.  
      /|                       |  
     / |                       |  
    /  |                       |  
   /   |                       |  
  /    |                       |  
 *     |                       |  
 |     |                       |  
 |     |                   H   |  
 |     |                 O     |  
 | C  H|                       |  
 |     |               H HCH   |  
 |     |               Li      |  
 |O H  |                       |  
 |     |     Li      Li      Li|  
 |     |  Li      Li      Li   |  
 | Li  |   Li      Li          |  
 |     |Li      Li      Li     |  
 |     | Li              Li    |  
 |   LLi     LLi     LLi       |  
 |     |  Li      Li      Li   |  
 | Li  |   Li      Li          |  
 |     |Li      Li      Li     |  
 Li    | Li      Li            |  
 |    Li      Li      Li       |  
 |     |                       |  
 |     |                       |  
 |     |                       |  
 |     |                       |  
 |     |                       |  
 |     |                       |  
 |     .-----------------------.  
 |    /                       /   
 |   /                       /    
 |  /                       /     
 | /                       /      
 |/                       /       
 *-----------------------*        

Positions:
   0 Li     1.617037    1.617037   10.000000    ( 0.0000,  0.0000,  0.0000)
   1 Li     4.851111    1.617037   10.000000    ( 0.0000,  0.0000,  0.0000)
   2 Li     8.085185    1.617037   10.000000    ( 0.0000,  0.0000,  0.0000)
   3 Li     1.617037    4.851111   10.000000    ( 0.0000,  0.0000,  0.0000)
   4 Li     4.851111    4.851111   10.000000    ( 0.0000,  0.0000,  0.0000)
   5 Li     8.085185    4.851111   10.000000    ( 0.0000,  0.0000,  0.0000)
   6 Li     1.617037    8.085185   10.000000    ( 0.0000,  0.0000,  0.0000)
   7 Li     4.851111    8.085185   10.000000    ( 0.0000,  0.0000,  0.0000)
   8 Li     8.085185    8.085185   10.000000    ( 0.0000,  0.0000,  0.0000)
   9 Li     0.000000    0.000000   11.617037    ( 0.0000,  0.0000,  0.0000)
  10 Li     3.234074    0.000000   11.617037    ( 0.0000,  0.0000,  0.0000)
  11 Li     6.468148    0.000000   11.617037    ( 0.0000,  0.0000,  0.0000)
  12 Li     0.000000    3.234074   11.617037    ( 0.0000,  0.0000,  0.0000)
  13 Li     3.234074    3.234074   11.617037    ( 0.0000,  0.0000,  0.0000)
  14 Li     6.468148    3.234074   11.617037    ( 0.0000,  0.0000,  0.0000)
  15 Li     0.000000    6.468148   11.617037    ( 0.0000,  0.0000,  0.0000)
  16 Li     3.234074    6.468148   11.617037    ( 0.0000,  0.0000,  0.0000)
  17 Li     6.468148    6.468148   11.617037    ( 0.0000,  0.0000,  0.0000)
  18 Li     1.618582    1.616863   13.484390    ( 0.0000,  0.0000,  0.0000)
  19 Li     4.852878    1.616747   13.482677    ( 0.0000,  0.0000,  0.0000)
  20 Li     8.082026    1.617079   13.471294    ( 0.0000,  0.0000,  0.0000)
  21 Li     1.615592    4.849540   13.484940    ( 0.0000,  0.0000,  0.0000)
  22 Li     4.851581    4.852726   13.479898    ( 0.0000,  0.0000,  0.0000)
  23 Li     8.086107    4.849309   13.485752    ( 0.0000,  0.0000,  0.0000)
  24 Li     1.615615    8.086965   13.482716    ( 0.0000,  0.0000,  0.0000)
  25 Li     4.851490    8.083856   13.481135    ( 0.0000,  0.0000,  0.0000)
  26 Li     8.086158    8.086899   13.482796    ( 0.0000,  0.0000,  0.0000)
  27 Li    -0.001886    0.008419   15.469873    ( 0.0000,  0.0000,  0.0000)
  28 Li     3.235191    0.003194   15.437774    ( 0.0000,  0.0000,  0.0000)
  29 Li     6.463067   -0.002819   15.438502    ( 0.0000,  0.0000,  0.0000)
  30 Li     0.001731    3.227189   15.446693    ( 0.0000,  0.0000,  0.0000)
  31 Li     3.234405    3.232362   15.437218    ( 0.0000,  0.0000,  0.0000)
  32 Li     6.461791    3.238883   15.433816    ( 0.0000,  0.0000,  0.0000)
  33 Li    -0.000432    6.465952   15.438609    ( 0.0000,  0.0000,  0.0000)
  34 Li     3.232600    6.466725   15.440865    ( 0.0000,  0.0000,  0.0000)
  35 Li     6.469982    6.466582   15.438719    ( 0.0000,  0.0000,  0.0000)
  36 O      0.006358    1.625063   18.417040    ( 0.0000,  0.0000,  0.0000)
  37 O     -0.252754    1.656506   21.338235    ( 0.0000,  0.0000,  0.0000)
  38 C     -0.414829    2.790983   19.170299    ( 0.0000,  0.0000,  0.0000)
  39 C      0.154547    2.796848   20.583995    ( 0.0000,  0.0000,  0.0000)
  40 H     -0.120900    3.710721   18.643848    ( 0.0000,  0.0000,  0.0000)
  41 H     -1.508021    2.736745   19.205478    ( 0.0000,  0.0000,  0.0000)
  42 H     -0.208432    3.678359   21.122234    ( 0.0000,  0.0000,  0.0000)
  43 H      1.253179    2.878636   20.536118    ( 0.0000,  0.0000,  0.0000)
  44 H      0.961271    1.687395   18.258672    ( 0.0000,  0.0000,  0.0000)
  45 H     -0.129046    0.882862   20.771507    ( 0.0000,  0.0000,  0.0000)

Unit cell:
           periodic     x           y           z      points  spacing
  1. axis:    yes    9.702222    0.000000    0.000000    60     0.1617
  2. axis:    yes    0.000000    9.702222    0.000000    60     0.1617
  3. axis:    no     0.000000    0.000000   24.851111   156     0.1593

  Lengths:   9.702222   9.702222  24.851111
  Angles:   90.000000  90.000000  90.000000

Effective grid spacing dv^(1/3) = 0.1609

     iter     time        total  log10-change:
                         energy  eigst   dens
iter:   1 08:00:22  -290.886053  -1.31
iter:   2 08:05:55  -290.814791  -1.83  -1.58
iter:   3 08:10:26  -290.798492  -3.02  -1.94
iter:   4 08:13:18  -290.797544c -3.08  -2.53
Writing to output.gpw (mode='')

iter:   5 08:16:28  -290.797221c -2.86  -2.74
iter:   6 08:19:33  -290.797140c -3.00  -2.98
iter:   7 08:24:28  -290.797321c -2.87  -3.17
iter:   8 08:29:20  -290.797208c -3.67  -2.96
iter:   9 08:34:14  -290.797232c -3.90  -3.28
Writing to output.gpw (mode='')

iter:  10 08:38:16  -290.797218c -4.48  -3.32
iter:  11 08:44:14  -290.797205c -4.21  -3.42
iter:  12 08:49:59  -290.797207c -4.48  -3.56
iter:  13 08:55:00  -290.797210c -4.58  -3.70
iter:  14 08:59:38  -290.797203c -4.82  -3.80
Writing to output.gpw (mode='')

iter:  15 09:04:54  -290.797206c -5.02  -3.98
iter:  16 09:08:01  -290.797211c -5.12  -3.99
iter:  17 09:11:04  -290.797211c -5.70  -4.10c
iter:  18 09:17:00  -290.797209c -5.65  -4.19c
iter:  19 09:21:08  -290.797209c -6.22  -4.34c
Writing to output.gpw (mode='')

iter:  20 09:25:51  -290.797208c -5.64  -4.42c
iter:  21 09:29:14  -290.797208c -6.20  -4.57c
iter:  22 09:32:39  -290.797208c -6.50  -4.64c
iter:  23 09:36:32  -290.797209c -6.67  -4.69c
iter:  24 09:41:23  -290.797209c -6.70  -4.86c
Writing to output.gpw (mode='')

iter:  25 09:46:07  -290.797209c -7.00  -5.05c
iter:  26 09:51:38  -290.797209c -7.05  -5.17c
iter:  27 09:56:01  -290.797209c -6.89  -5.31c
iter:  28 09:59:58  -290.797209c -6.95  -5.34c
iter:  29 10:04:02  -290.797209c -7.33  -5.47c
Writing to output.gpw (mode='')

iter:  30 10:07:05  -290.797209c -7.30  -5.52c
iter:  31 10:11:29  -290.797209c -7.37  -5.65c
iter:  32 10:14:52  -290.797209c -7.66c -5.69c

Converged after 32 iterations.

Dipole moment: (8.613921, -2.981146, -0.177565) |e|*Ang

Energy contributions relative to reference atoms: (reference = -13512.263335)

Kinetic:       +137.263783
Potential:     -129.692251
External:        +0.000000
XC:            -298.900264
Entropy (-ST):   -0.152665
Local:           +0.607857
--------------------------
Free energy:   -290.873541
Extrapolated:  -290.797209

Dipole-layer corrected work functions: 3.381661, 3.723002 eV

Showing only first 2 kpts
 Kpt  Band  Eigenvalues  Occupancy
  0    29     -3.80141    1.98637
  0    30     -3.71726    1.92876
  0    31     -3.38889    0.07331
  0    32     -3.29453    0.01146

  1    29     -3.57715    1.24324
  1    30     -3.54810    0.95769
  1    31     -3.51152    0.61310
  1    32     -3.50363    0.54814


Fermi level: -3.55233

No gap
Writing to output.gpw (mode='')


Forces in eV/Ang:
  0 Li    0.00463    0.00043   -0.27314
  1 Li   -0.00346   -0.00024   -0.27448
  2 Li   -0.00139    0.00038   -0.27233
  3 Li   -0.00135   -0.00211   -0.27310
  4 Li    0.00236   -0.00022   -0.27566
  5 Li   -0.00092    0.00395   -0.27326
  6 Li   -0.00077    0.00163   -0.27282
  7 Li    0.00247    0.00054   -0.27528
  8 Li   -0.00162   -0.00431   -0.27324
  9 Li    0.00275    0.00296    0.27511
 10 Li    0.00422    0.00128    0.26867
 11 Li   -0.00661   -0.00584    0.26666
 12 Li    0.00254   -0.00120    0.27567
 13 Li    0.00333   -0.00107    0.27091
 14 Li   -0.00558    0.00612    0.26810
 15 Li   -0.00136   -0.00161    0.26800
 16 Li   -0.00910   -0.00019    0.27998
 17 Li    0.01043   -0.00037    0.26902
 18 Li   -0.00201   -0.00357    0.01726
 19 Li    0.00204   -0.00087    0.00835
 20 Li   -0.00171   -0.00267    0.00290
 21 Li   -0.00372   -0.00368    0.01590
 22 Li   -0.00131    0.00370    0.00572
 23 Li    0.00383   -0.00432    0.01564
 24 Li   -0.00663    0.00713    0.01912
 25 Li   -0.00062   -0.00275    0.00892
 26 Li    0.00572    0.00686    0.01799
 27 Li   -0.00675    0.01671    0.05789
 28 Li    0.00156    0.00534   -0.00778
 29 Li   -0.00970   -0.00342   -0.00799
 30 Li    0.00040   -0.01492    0.01487
 31 Li    0.00107   -0.00303   -0.00863
 32 Li   -0.01088    0.00625   -0.01592
 33 Li   -0.00121   -0.00342   -0.00501
 34 Li   -0.00113   -0.00233   -0.00168
 35 Li    0.00271   -0.00195   -0.00555
 36 O    -0.04041    0.10646    0.04544
 37 O     0.05846    0.03040   -0.02338
 38 C     0.05425   -0.02613   -0.05247
 39 C    -0.00492    0.01515   -0.08874
 40 H    -0.04212   -0.00965    0.03952
 41 H     0.11738   -0.01987   -0.05017
 42 H    -0.03243   -0.06289   -0.01887
 43 H    -0.02281   -0.08952    0.00848
 44 H    -0.02138    0.06536   -0.00107
 45 H     0.01599    0.02012    0.01997

System changes: positions 

Initializing position-dependent things.

Density initialized from wave functions
       .-----------------------.  
      /|                       |  
     / |                       |  
    /  |                       |  
   /   |                       |  
  /    |                       |  
 *     |                       |  
 |     |                       |  
 |     |                   H   |  
 |     |                 O     |  
 | C  H|                       |  
 |     |               H HCH   |  
 |     |               Li      |  
 |O H  |                       |  
 |     |     Li      Li      Li|  
 |     |  Li      Li      Li   |  
 | Li  |   Li      Li          |  
 |     |Li      Li      Li     |  
 |     | Li              Li    |  
 |   LLi     LLi     LLi       |  
 |     |  Li      Li      Li   |  
 | Li  |   Li      Li          |  
 |     |Li      Li      Li     |  
 Li    | Li      Li            |  
 |    Li      Li      Li       |  
 |     |                       |  
 |     |                       |  
 |     |                       |  
 |     |                       |  
 |     |                       |  
 |     |                       |  
 |     .-----------------------.  
 |    /                       /   
 |   /                       /    
 |  /                       /     
 | /                       /      
 |/                       /       
 *-----------------------*        

Positions:
   0 Li     1.617037    1.617037   10.000000    ( 0.0000,  0.0000,  0.0000)
   1 Li     4.851111    1.617037   10.000000    ( 0.0000,  0.0000,  0.0000)
   2 Li     8.085185    1.617037   10.000000    ( 0.0000,  0.0000,  0.0000)
   3 Li     1.617037    4.851111   10.000000    ( 0.0000,  0.0000,  0.0000)
   4 Li     4.851111    4.851111   10.000000    ( 0.0000,  0.0000,  0.0000)
   5 Li     8.085185    4.851111   10.000000    ( 0.0000,  0.0000,  0.0000)
   6 Li     1.617037    8.085185   10.000000    ( 0.0000,  0.0000,  0.0000)
   7 Li     4.851111    8.085185   10.000000    ( 0.0000,  0.0000,  0.0000)
   8 Li     8.085185    8.085185   10.000000    ( 0.0000,  0.0000,  0.0000)
   9 Li     0.000000    0.000000   11.617037    ( 0.0000,  0.0000,  0.0000)
  10 Li     3.234074    0.000000   11.617037    ( 0.0000,  0.0000,  0.0000)
  11 Li     6.468148    0.000000   11.617037    ( 0.0000,  0.0000,  0.0000)
  12 Li     0.000000    3.234074   11.617037    ( 0.0000,  0.0000,  0.0000)
  13 Li     3.234074    3.234074   11.617037    ( 0.0000,  0.0000,  0.0000)
  14 Li     6.468148    3.234074   11.617037    ( 0.0000,  0.0000,  0.0000)
  15 Li     0.000000    6.468148   11.617037    ( 0.0000,  0.0000,  0.0000)
  16 Li     3.234074    6.468148   11.617037    ( 0.0000,  0.0000,  0.0000)
  17 Li     6.468148    6.468148   11.617037    ( 0.0000,  0.0000,  0.0000)
  18 Li     1.619185    1.616676   13.491239    ( 0.0000,  0.0000,  0.0000)
  19 Li     4.853703    1.616594   13.488514    ( 0.0000,  0.0000,  0.0000)
  20 Li     8.080612    1.617012   13.472055    ( 0.0000,  0.0000,  0.0000)
  21 Li     1.614852    4.848749   13.491986    ( 0.0000,  0.0000,  0.0000)
  22 Li     4.851743    4.853538   13.484454    ( 0.0000,  0.0000,  0.0000)
  23 Li     8.086624    4.848398   13.493141    ( 0.0000,  0.0000,  0.0000)
  24 Li     1.614795    8.087955   13.488907    ( 0.0000,  0.0000,  0.0000)
  25 Li     4.851634    8.083198   13.486325    ( 0.0000,  0.0000,  0.0000)
  26 Li     8.086758    8.087852   13.488987    ( 0.0000,  0.0000,  0.0000)
  27 Li    -0.002909    0.012572   15.482008    ( 0.0000,  0.0000,  0.0000)
  28 Li     3.235722    0.004736   15.434014    ( 0.0000,  0.0000,  0.0000)
  29 Li     6.460573   -0.004141   15.435050    ( 0.0000,  0.0000,  0.0000)
  30 Li     0.002489    3.223750   15.447498    ( 0.0000,  0.0000,  0.0000)
  31 Li     3.234581    3.231530   15.433193    ( 0.0000,  0.0000,  0.0000)
  32 Li     6.458713    3.241150   15.428097    ( 0.0000,  0.0000,  0.0000)
  33 Li    -0.000657    6.464898   15.435295    ( 0.0000,  0.0000,  0.0000)
  34 Li     3.231928    6.466040   15.438628    ( 0.0000,  0.0000,  0.0000)
  35 Li     6.470858    6.465848   15.435437    ( 0.0000,  0.0000,  0.0000)
  36 O      0.009408    1.633162   18.406857    ( 0.0000,  0.0000,  0.0000)
  37 O     -0.259248    1.655534   21.335119    ( 0.0000,  0.0000,  0.0000)
  38 C     -0.413680    2.791000   19.165261    ( 0.0000,  0.0000,  0.0000)
  39 C      0.152698    2.795098   20.580861    ( 0.0000,  0.0000,  0.0000)
  40 H     -0.123131    3.713034   18.644619    ( 0.0000,  0.0000,  0.0000)
  41 H     -1.506595    2.734357   19.203267    ( 0.0000,  0.0000,  0.0000)
  42 H     -0.204553    3.677222   21.122586    ( 0.0000,  0.0000,  0.0000)
  43 H      1.251629    2.876216   20.537437    ( 0.0000,  0.0000,  0.0000)
  44 H      0.964623    1.687493   18.251239    ( 0.0000,  0.0000,  0.0000)
  45 H     -0.125444    0.878862   20.775115    ( 0.0000,  0.0000,  0.0000)

Unit cell:
           periodic     x           y           z      points  spacing
  1. axis:    yes    9.702222    0.000000    0.000000    60     0.1617
  2. axis:    yes    0.000000    9.702222    0.000000    60     0.1617
  3. axis:    no     0.000000    0.000000   24.851111   156     0.1593

  Lengths:   9.702222   9.702222  24.851111
  Angles:   90.000000  90.000000  90.000000

Effective grid spacing dv^(1/3) = 0.1609

     iter     time        total  log10-change:
                         energy  eigst   dens
iter:   1 10:17:56  -290.907168  -1.23
iter:   2 10:20:46  -290.820053  -1.73  -1.55
iter:   3 10:23:58  -290.800550  -2.98  -1.90
iter:   4 10:26:25  -290.799412c -2.93  -2.51
Writing to output.gpw (mode='')

iter:   5 10:29:37  -290.799204c -2.81  -2.77
iter:   6 10:33:02  -290.799143c -2.98  -2.96
iter:   7 10:36:31  -290.799312c -2.79  -3.12
iter:   8 10:40:47  -290.799225c -3.72  -2.97
iter:   9 10:44:26  -290.799244c -3.83  -3.23
Writing to output.gpw (mode='')

iter:  10 10:49:14  -290.799246c -4.21  -3.32
iter:  11 10:52:42  -290.799239c -4.25  -3.41
iter:  12 10:55:40  -290.799241c -4.35  -3.49
iter:  13 10:58:10  -290.799244c -4.40  -3.59
iter:  14 11:00:52  -290.799240c -5.00  -3.77
Writing to output.gpw (mode='')

iter:  15 11:03:27  -290.799244c -4.82  -3.90
iter:  16 11:08:37  -290.799247c -5.13  -3.96
iter:  17 11:11:18  -290.799250c -5.06  -4.12c
iter:  18 11:13:30  -290.799247c -5.52  -4.16c
iter:  19 11:16:52  -290.799248c -5.63  -4.26c
Writing to output.gpw (mode='')

iter:  20 11:20:10  -290.799248c -6.16  -4.53c
iter:  21 11:24:49  -290.799249c -6.07  -4.61c
iter:  22 11:28:42  -290.799249c -6.16  -4.69c
iter:  23 11:32:55  -290.799249c -6.53  -4.82c
iter:  24 11:36:37  -290.799249c -6.17  -4.84c
Writing to output.gpw (mode='')

iter:  25 11:40:51  -290.799249c -6.62  -4.86c
iter:  26 11:43:36  -290.799249c -6.64  -4.95c
iter:  27 11:47:00  -290.799249c -6.84  -4.99c
iter:  28 11:51:36  -290.799249c -6.82  -5.17c
iter:  29 11:55:25  -290.799249c -6.87  -5.36c
Writing to output.gpw (mode='')

iter:  30 11:59:08  -290.799249c -7.14  -5.46c
iter:  31 12:03:23  -290.799249c -7.05  -5.66c
iter:  32 12:07:01  -290.799249c -7.08  -5.72c
iter:  33 12:11:07  -290.799249c -7.12  -5.77c
iter:  34 12:14:02  -290.799249c -7.31  -5.81c
Writing to output.gpw (mode='')

iter:  35 12:17:16  -290.799249c -7.50c -5.82c

Converged after 35 iterations.

Dipole moment: (8.380546, -3.047340, -0.172953) |e|*Ang

Energy contributions relative to reference atoms: (reference = -13512.263335)

Kinetic:       +137.413462
Potential:     -129.793652
External:        +0.000000
XC:            -298.950481
Entropy (-ST):   -0.152748
Local:           +0.607796
--------------------------
Free energy:   -290.875623
Extrapolated:  -290.799249

Dipole-layer corrected work functions: 3.381597, 3.714073 eV

Showing only first 2 kpts
 Kpt  Band  Eigenvalues  Occupancy
  0    29     -3.79520    1.98590
  0    30     -3.71253    1.92843
  0    31     -3.38388    0.07259
  0    32     -3.28819    0.01105

  1    29     -3.57250    1.24181
  1    30     -3.54295    0.95120
  1    31     -3.50850    0.62578
  1    32     -3.50011    0.55594


Fermi level: -3.54783

No gap

Forces in eV/Ang:
  0 Li    0.00474    0.00045   -0.27338
  1 Li   -0.00349   -0.00013   -0.27505
  2 Li   -0.00149    0.00036   -0.27250
  3 Li   -0.00120   -0.00226   -0.27378
  4 Li    0.00240   -0.00006   -0.27627
  5 Li   -0.00104    0.00395   -0.27387
  6 Li   -0.00076    0.00174   -0.27323
  7 Li    0.00256    0.00029   -0.27598
  8 Li   -0.00167   -0.00430   -0.27356
  9 Li    0.00368    0.00306    0.27793
 10 Li    0.00454    0.00143    0.27380
 11 Li   -0.00778   -0.00710    0.27020
 12 Li    0.00349   -0.00087    0.28011
 13 Li    0.00316   -0.00137    0.27658
 14 Li   -0.00633    0.00743    0.27223
 15 Li   -0.00148   -0.00199    0.27364
 16 Li   -0.01085   -0.00003    0.28574
 17 Li    0.01220   -0.00043    0.27452
 18 Li   -0.00537   -0.00518    0.00677
 19 Li    0.00066   -0.00095   -0.00496
 20 Li    0.00179   -0.00407    0.00274
 21 Li   -0.00371   -0.00347    0.00359
 22 Li   -0.00268    0.00345   -0.00501
 23 Li    0.00459   -0.00412    0.00203
 24 Li   -0.00813    0.00835    0.01157
 25 Li   -0.00151   -0.00237   -0.00181
 26 Li    0.00737    0.00808    0.00975
 27 Li   -0.00759    0.01336    0.05406
 28 Li    0.00063    0.00382   -0.00047
 29 Li   -0.00762   -0.00126   -0.00189
 30 Li   -0.00177   -0.01267    0.02056
 31 Li    0.00101   -0.00235   -0.00115
 32 Li   -0.00760    0.00273   -0.00736
 33 Li   -0.00124   -0.00216    0.00262
 34 Li    0.00034   -0.00157    0.00436
 35 Li    0.00157   -0.00077    0.00141
 36 O    -0.06835    0.03203    0.03177
 37 O     0.05002    0.04292   -0.03012
 38 C     0.04158    0.00896    0.02680
 39 C     0.03012    0.00986   -0.05925
 40 H    -0.03116    0.04011    0.01444
 41 H     0.11263   -0.02162   -0.06774
 42 H    -0.06231   -0.07230   -0.04447
 43 H    -0.02026   -0.11122   -0.00653
 44 H     0.00502    0.10023    0.01150
 45 H     0.01725    0.02514    0.00885

System changes: positions 

Initializing position-dependent things.

Density initialized from wave functions
       .-----------------------.  
      /|                       |  
     / |                       |  
    /  |                       |  
   /   |                       |  
  /    |                       |  
 *     |                       |  
 |     |                       |  
 |     |                   H   |  
 |     |                 O     |  
 | C  H|                       |  
 |     |               H HCH   |  
 |     |               Li      |  
 |O H  |                       |  
 |     |     Li      Li      Li|  
 |     |  Li      Li      Li   |  
 | Li  |   Li      Li          |  
 |     |Li      Li      Li     |  
 |     | Li              Li    |  
 |   LLi     LLi     LLi       |  
 |     |  Li      Li      Li   |  
 | Li  |   Li      Li          |  
 |     |Li      Li      Li     |  
 Li    | Li      Li            |  
 |    Li      Li      Li       |  
 |     |                       |  
 |     |                       |  
 |     |                       |  
 |     |                       |  
 |     |                       |  
 |     |                       |  
 |     .-----------------------.  
 |    /                       /   
 |   /                       /    
 |  /                       /     
 | /                       /      
 |/                       /       
 *-----------------------*        

Positions:
   0 Li     1.617037    1.617037   10.000000    ( 0.0000,  0.0000,  0.0000)
   1 Li     4.851111    1.617037   10.000000    ( 0.0000,  0.0000,  0.0000)
   2 Li     8.085185    1.617037   10.000000    ( 0.0000,  0.0000,  0.0000)
   3 Li     1.617037    4.851111   10.000000    ( 0.0000,  0.0000,  0.0000)
   4 Li     4.851111    4.851111   10.000000    ( 0.0000,  0.0000,  0.0000)
   5 Li     8.085185    4.851111   10.000000    ( 0.0000,  0.0000,  0.0000)
   6 Li     1.617037    8.085185   10.000000    ( 0.0000,  0.0000,  0.0000)
   7 Li     4.851111    8.085185   10.000000    ( 0.0000,  0.0000,  0.0000)
[...]
Writing to output.gpw (mode='')

iter:  10 15:01:53  -290.862003c -2.93  -2.61
iter:  11 15:04:25  -290.861984c -3.79  -2.96
iter:  12 15:07:29  -290.861989c -3.98  -3.02
iter:  13 15:09:27  -290.861935c -3.78  -3.04
iter:  14 15:11:26  -290.861947c -3.67  -3.23
Writing to output.gpw (mode='')

iter:  15 15:13:20  -290.861910c -4.36  -3.30
iter:  16 15:15:14  -290.861888c -4.40  -3.43
iter:  17 15:17:13  -290.861929c -4.52  -3.48
iter:  18 15:19:28  -290.861935c -4.91  -3.54
iter:  19 15:21:27  -290.861944c -4.88  -3.69
Writing to output.gpw (mode='')

iter:  20 15:23:52  -290.861940c -5.07  -3.82
iter:  21 15:25:51  -290.861943c -5.36  -3.91
iter:  22 15:28:04  -290.861943c -5.62  -3.99
iter:  23 15:30:26  -290.861935c -5.46  -4.04c
iter:  24 15:32:54  -290.861932c -5.86  -4.14c
Writing to output.gpw (mode='')

iter:  25 15:35:42  -290.861933c -6.20  -4.33c
iter:  26 15:38:03  -290.861940c -6.04  -4.40c
iter:  27 15:40:24  -290.861939c -6.50  -4.50c
iter:  28 15:43:11  -290.861934c -6.23  -4.63c
iter:  29 15:46:10  -290.861934c -6.76  -4.82c
Writing to output.gpw (mode='')

iter:  30 15:49:15  -290.861934c -6.86  -4.85c
iter:  31 15:52:39  -290.861937c -6.79  -4.89c
iter:  32 15:55:12  -290.861936c -7.27  -4.96c
iter:  33 15:58:36  -290.861936c -7.18  -5.05c
iter:  34 16:03:00  -290.861936c -7.34  -5.19c
Writing to output.gpw (mode='')

iter:  35 16:06:04  -290.861935c -7.48c -5.31c

Converged after 35 iterations.

Dipole moment: (0.042495, -4.728829, 0.013298) |e|*Ang

Energy contributions relative to reference atoms: (reference = -13512.263335)

Kinetic:       +134.199137
Potential:     -127.631089
External:        +0.000000
XC:            -297.964635
Entropy (-ST):   -0.156931
Local:           +0.613117
--------------------------
Free energy:   -290.940401
Extrapolated:  -290.861935

Dipole-layer corrected work functions: 3.376396, 3.350833 eV

Showing only first 2 kpts
 Kpt  Band  Eigenvalues  Occupancy
  0    29     -3.57714    1.97244
  0    30     -3.50773    1.89392
  0    31     -3.22419    0.11590
  0    32     -3.07125    0.00576

  1    29     -3.41642    1.48389
  1    30     -3.37527    1.11607
  1    31     -3.32289    0.61385
  1    32     -3.30555    0.47685


Fermi level: -3.36361

Gap: 0.010 eV
Transition (v -> c):
  (s=0, k=7, n=30, [0.38, 0.38, 0.00]) -> (s=0, k=4, n=31, [0.38, -0.38, 0.00])

Forces in eV/Ang:
  0 Li    0.00485    0.00030   -0.27065
  1 Li   -0.00205   -0.00096   -0.28139
  2 Li    0.00033   -0.00171   -0.26798
  3 Li   -0.00141   -0.00319   -0.27675
  4 Li    0.00333    0.00023   -0.27175
  5 Li    0.00089    0.00301   -0.27693
  6 Li   -0.00126    0.00266   -0.27522
  7 Li    0.00378    0.00070   -0.27774
  8 Li    0.00003   -0.00179   -0.27630
  9 Li    0.00130    0.00382    0.24283
 10 Li   -0.04566   -0.00202    0.30119
 11 Li    0.01867   -0.00866    0.30272
 12 Li   -0.00153   -0.02293    0.28270
 13 Li   -0.03992   -0.01007    0.30907
 14 Li    0.01907   -0.01202    0.31234
 15 Li   -0.00315    0.02111    0.30975
 16 Li   -0.06797    0.01238    0.33074
 17 Li    0.05555    0.02201    0.32988
 18 Li    0.01582   -0.00339    0.00155
 19 Li    0.00849   -0.00166    0.01180
 20 Li   -0.01380    0.00397   -0.02230
 21 Li   -0.00690   -0.00059    0.00521
 22 Li    0.00035    0.00845   -0.00950
 23 Li    0.00956   -0.00450    0.01378
 24 Li   -0.00553    0.00729   -0.00181
 25 Li    0.00328   -0.00667    0.00069
 26 Li    0.00612    0.00145   -0.00023
 27 Li    0.00643    0.02059   -0.03021
 28 Li   -0.00650   -0.00234   -0.00273
 29 Li    0.00119   -0.00957    0.00483
 30 Li    0.01044   -0.02839    0.02649
 31 Li    0.00555    0.00563    0.00884
 32 Li   -0.00664    0.01013    0.01155
 33 Li    0.00067    0.01627   -0.00762
 34 Li   -0.00138   -0.00270    0.00382
 35 Li   -0.00140   -0.00248    0.01247
 36 O    -0.10193    0.17628    0.04632
 37 O     0.01694   -0.01896   -0.06028
 38 C    -0.02738    0.03158   -0.11190
 39 C    -0.03455    0.00350   -0.00776
 40 H     0.23975   -0.01856   -0.02872
 41 H     0.00975   -0.21630    0.01381
 42 H     0.00031   -0.09755   -0.05102
 43 H    -0.00010    0.04287   -0.09414
 44 H    -0.06108    0.05162    0.04699
 45 H    -0.01573    0.03705   -0.04050

System changes: positions 

Initializing position-dependent things.

Density initialized from wave functions
       .-----------------------.  
      /|                       |  
     / |                       |  
    /  |                       |  
   /   |                       |  
  /    |                       |  
 *     |                       |  
 |     |                       |  
 |     |                       |  
 |     |                   H   |  
 | C  H|                 O     |  
 |     |                 H H   |  
 |     |               H  C    |  
 | O H |                       |  
 |     |     Li      Li      Li|  
 |     |  Li      Li      LLi  |  
 |     |   Li      Li          |  
 |     |Li      Li      LLi    |  
 |     | Li      Li            |  
 |   LLi     LLi     LLi       |  
 |     |  Li      Li      Li   |  
 | Li  |   Li      Li          |  
 |     |Li      Li      Li     |  
 Li    | Li      Li            |  
 |    Li      Li      Li       |  
 |     |                       |  
 |     |                       |  
 |     |                       |  
 |     |                       |  
 |     |                       |  
 |     |                       |  
 |     .-----------------------.  
 |    /                       /   
 |   /                       /    
 |  /                       /     
 | /                       /      
 |/                       /       
 *-----------------------*        

Positions:
   0 Li     1.617037    1.617037   10.000000    ( 0.0000,  0.0000,  0.0000)
   1 Li     4.851111    1.617037   10.000000    ( 0.0000,  0.0000,  0.0000)
   2 Li     8.085185    1.617037   10.000000    ( 0.0000,  0.0000,  0.0000)
   3 Li     1.617037    4.851111   10.000000    ( 0.0000,  0.0000,  0.0000)
   4 Li     4.851111    4.851111   10.000000    ( 0.0000,  0.0000,  0.0000)
   5 Li     8.085185    4.851111   10.000000    ( 0.0000,  0.0000,  0.0000)
   6 Li     1.617037    8.085185   10.000000    ( 0.0000,  0.0000,  0.0000)
   7 Li     4.851111    8.085185   10.000000    ( 0.0000,  0.0000,  0.0000)
   8 Li     8.085185    8.085185   10.000000    ( 0.0000,  0.0000,  0.0000)
   9 Li     0.000000    0.000000   11.617037    ( 0.0000,  0.0000,  0.0000)
  10 Li     3.234074    0.000000   11.617037    ( 0.0000,  0.0000,  0.0000)
  11 Li     6.468148    0.000000   11.617037    ( 0.0000,  0.0000,  0.0000)
  12 Li     0.000000    3.234074   11.617037    ( 0.0000,  0.0000,  0.0000)
  13 Li     3.234074    3.234074   11.617037    ( 0.0000,  0.0000,  0.0000)
  14 Li     6.468148    3.234074   11.617037    ( 0.0000,  0.0000,  0.0000)
  15 Li     0.000000    6.468148   11.617037    ( 0.0000,  0.0000,  0.0000)
  16 Li     3.234074    6.468148   11.617037    ( 0.0000,  0.0000,  0.0000)
  17 Li     6.468148    6.468148   11.617037    ( 0.0000,  0.0000,  0.0000)
  18 Li     1.537304    1.601262   13.572437    ( 0.0000,  0.0000,  0.0000)
  19 Li     4.818712    1.607634   13.464571    ( 0.0000,  0.0000,  0.0000)
  20 Li     8.125169    1.592830   13.567384    ( 0.0000,  0.0000,  0.0000)
  21 Li     1.578434    4.834780   13.540464    ( 0.0000,  0.0000,  0.0000)
  22 Li     4.844914    4.853195   13.476183    ( 0.0000,  0.0000,  0.0000)
  23 Li     8.112690    4.835637   13.525660    ( 0.0000,  0.0000,  0.0000)
  24 Li     1.564674    8.120468   13.584003    ( 0.0000,  0.0000,  0.0000)
  25 Li     4.829166    8.093415   13.489167    ( 0.0000,  0.0000,  0.0000)
  26 Li     8.124322    8.133504   13.579251    ( 0.0000,  0.0000,  0.0000)
  27 Li    -0.084326    0.096154   15.919177    ( 0.0000,  0.0000,  0.0000)
  28 Li     3.223352    0.019373   15.490064    ( 0.0000,  0.0000,  0.0000)
  29 Li     6.390025    0.016973   15.451870    ( 0.0000,  0.0000,  0.0000)
  30 Li    -0.038216    3.207141   15.676352    ( 0.0000,  0.0000,  0.0000)
  31 Li     3.235035    3.226562   15.417943    ( 0.0000,  0.0000,  0.0000)
  32 Li     6.428654    3.220874   15.402794    ( 0.0000,  0.0000,  0.0000)
  33 Li    -0.004857    6.446928   15.541102    ( 0.0000,  0.0000,  0.0000)
  34 Li     3.242242    6.460479   15.462697    ( 0.0000,  0.0000,  0.0000)
  35 Li     6.469530    6.466989   15.430499    ( 0.0000,  0.0000,  0.0000)
  36 O      0.182165    1.860622   18.005503    ( 0.0000,  0.0000,  0.0000)
  37 O     -0.357873    1.525907   21.080970    ( 0.0000,  0.0000,  0.0000)
  38 C     -0.370163    2.820243   18.958369    ( 0.0000,  0.0000,  0.0000)
  39 C      0.148235    2.670381   20.389013    ( 0.0000,  0.0000,  0.0000)
  40 H     -0.207803    3.849250   18.610304    ( 0.0000,  0.0000,  0.0000)
  41 H     -1.450817    2.673719   18.939226    ( 0.0000,  0.0000,  0.0000)
  42 H     -0.189631    3.540771   20.962753    ( 0.0000,  0.0000,  0.0000)
  43 H      1.248876    2.676323   20.410120    ( 0.0000,  0.0000,  0.0000)
  44 H      1.144215    1.992741   17.936036    ( 0.0000,  0.0000,  0.0000)
  45 H     -0.008417    0.734025   20.654149    ( 0.0000,  0.0000,  0.0000)

Unit cell:
           periodic     x           y           z      points  spacing
  1. axis:    yes    9.702222    0.000000    0.000000    60     0.1617
  2. axis:    yes    0.000000    9.702222    0.000000    60     0.1617
  3. axis:    no     0.000000    0.000000   24.851111   156     0.1593

  Lengths:   9.702222   9.702222  24.851111
  Angles:   90.000000  90.000000  90.000000

Effective grid spacing dv^(1/3) = 0.1609

     iter     time        total  log10-change:
                         energy  eigst   dens
iter:   1 16:09:46  -291.039814  -0.60
iter:   2 16:12:51  -290.918767  -1.18  -1.47
iter:   3 16:16:11  -290.889165  -2.15  -1.70
iter:   4 16:18:54  -290.868951  -1.41  -1.96
Writing to output.gpw (mode='')

iter:   5 16:21:26  -290.869338c -2.37  -2.28
iter:   6 16:24:07  -290.869185c -2.25  -2.43
iter:   7 16:28:45  -290.869759c -1.61  -2.47
iter:   8 16:32:27  -290.869658c -2.31  -2.43
iter:   9 16:36:13  -290.869047c -2.89  -2.43
Writing to output.gpw (mode='')

iter:  10 16:39:32  -290.868470c -2.51  -2.54
iter:  11 16:42:32  -290.868165c -3.48  -2.84
iter:  12 16:45:15  -290.868196c -3.94  -3.05
iter:  13 16:48:48  -290.868221c -3.67  -3.07
iter:  14 16:51:54  -290.868139c -3.87  -3.09
Writing to output.gpw (mode='')

iter:  15 16:55:09  -290.868030c -3.99  -3.30
iter:  16 16:59:13  -290.868049c -4.55  -3.50
iter:  17 17:02:17  -290.868125c -4.51  -3.53
iter:  18 17:05:51  -290.868067c -4.70  -3.70
iter:  19 17:10:00  -290.868096c -5.46  -3.82
Writing to output.gpw (mode='')

iter:  20 17:13:00  -290.868100c -5.38  -4.00c
iter:  21 17:15:21  -290.868084c -5.47  -4.06c
iter:  22 17:18:47  -290.868088c -5.79  -4.21c
iter:  23 17:22:48  -290.868087c -5.90  -4.28c
iter:  24 17:25:34  -290.868093c -6.08  -4.42c
Writing to output.gpw (mode='')

iter:  25 17:28:12  -290.868091c -6.32  -4.48c
iter:  26 17:31:30  -290.868089c -6.31  -4.57c
iter:  27 17:34:15  -290.868088c -6.31  -4.72c
iter:  28 17:37:00  -290.868088c -6.83  -4.89c
iter:  29 17:39:40  -290.868089c -6.84  -4.90c
Writing to output.gpw (mode='')

iter:  30 17:43:10  -290.868090c -6.92  -5.00c
iter:  31 17:46:41  -290.868090c -7.10  -5.22c
iter:  32 17:49:57  -290.868090c -7.16  -5.22c
iter:  33 17:53:33  -290.868090c -7.19  -5.27c
iter:  34 17:57:47  -290.868090c -7.33  -5.31c
Writing to output.gpw (mode='')

iter:  35 18:02:29  -290.868090c -7.48c -5.44c

Converged after 35 iterations.

Dipole moment: (0.326354, -4.777266, 0.018915) |e|*Ang

Energy contributions relative to reference atoms: (reference = -13512.263335)

Kinetic:       +133.838498
Potential:     -127.377532
External:        +0.000000
XC:            -297.863669
Entropy (-ST):   -0.157365
Local:           +0.613296
--------------------------
Free energy:   -290.946772
Extrapolated:  -290.868090

Dipole-layer corrected work functions: 3.376033, 3.339672 eV

Showing only first 2 kpts
 Kpt  Band  Eigenvalues  Occupancy
  0    29     -3.56900    1.97111
  0    30     -3.50038    1.89069
  0    31     -3.22045    0.12039
  0    32     -3.06353    0.00554

  1    29     -3.41306    1.50208
  1    30     -3.37080    1.12871
  1    31     -3.31654    0.60886
  1    32     -3.29915    0.47223


Fermi level: -3.35785

Gap: 0.010 eV
Transition (v -> c):
  (s=0, k=7, n=30, [0.38, 0.38, 0.00]) -> (s=0, k=4, n=31, [0.38, -0.38, 0.00])

Forces in eV/Ang:
  0 Li    0.00484    0.00054   -0.27049
  1 Li   -0.00178   -0.00115   -0.28127
  2 Li    0.00068   -0.00165   -0.26851
  3 Li   -0.00150   -0.00264   -0.27647
  4 Li    0.00348   -0.00030   -0.27218
  5 Li    0.00094    0.00296   -0.27633
  6 Li   -0.00085    0.00182   -0.27502
  7 Li    0.00354    0.00127   -0.27742
  8 Li   -0.00007   -0.00191   -0.27629
  9 Li    0.00003    0.00327    0.24647
 10 Li   -0.05021   -0.00088    0.30010
 11 Li    0.02084   -0.00432    0.30612
 12 Li   -0.00403   -0.02202    0.28231
 13 Li   -0.04240   -0.00833    0.30919
 14 Li    0.02087   -0.01602    0.31519
 15 Li   -0.00437    0.02164    0.30648
 16 Li   -0.06476    0.01002    0.33192
 17 Li    0.05275    0.02252    0.33088
 18 Li    0.02381   -0.00822    0.00510
 19 Li    0.01532   -0.00220    0.01756
 20 Li   -0.02101    0.00354   -0.03388
 21 Li   -0.00930   -0.00354    0.01102
 22 Li   -0.00112    0.01441   -0.01169
 23 Li    0.01430   -0.00927    0.02204
 24 Li   -0.01091    0.01522    0.00388
 25 Li    0.00524   -0.01211    0.00340
 26 Li    0.01178    0.00585    0.00415
 27 Li    0.00939    0.02820   -0.03089
 28 Li   -0.00584   -0.00030   -0.01234
 29 Li   -0.00066   -0.01663    0.00003
 30 Li    0.01675   -0.04836    0.02697
 31 Li    0.00805    0.00503    0.00861
 32 Li   -0.01489    0.01905    0.00647
 33 Li    0.00023    0.02033   -0.02071
 34 Li   -0.00299   -0.00475    0.00494
 35 Li    0.00040   -0.00419    0.01560
 36 O    -0.07023    0.17206    0.04783
 37 O    -0.01058    0.04110   -0.09936
 38 C    -0.02735    0.05570    0.01208
 39 C     0.00652   -0.02067   -0.07105
 40 H     0.26597   -0.02959   -0.02993
 41 H    -0.00316   -0.22330    0.00222
 42 H    -0.01836   -0.09082   -0.04153
 43 H    -0.05142    0.02780   -0.10579
 44 H    -0.03334    0.06655    0.03903
 45 H    -0.00005    0.00186   -0.05240

System changes: positions 

Initializing position-dependent things.

Density initialized from wave functions
       .-----------------------.  
      /|                       |  
     / |                       |  
    /  |                       |  
   /   |                       |  
  /    |                       |  
 *     |                       |  
 |     |                       |  
 |     |                       |  
 |     |                   H   |  
 | C  H|                 O     |  
 |     |                 H H   |  
 |     |               H  C    |  
 | O H |                       |  
 |     |     Li      Li      Li|  
 |     |  Li      Li      LLi  |  
 |     |   Li      Li          |  
 |     |Li      Li      LLi    |  
 |     | Li      Li            |  
 |   LLi     LLi     LLi       |  
 |     |  Li      Li      Li   |  
 | Li  |   Li      Li          |  
 |     |Li      Li      Li     |  
 Li    | Li      Li            |  
 |    Li      Li      Li       |  
 |     |                       |  
 |     |                       |  
 |     |                       |  
 |     |                       |  
 |     |                       |  
 |     |                       |  
 |     .-----------------------.  
 |    /                       /   
 |   /                       /    
 |  /                       /     
 | /                       /      
 |/                       /       
 *-----------------------*        

Positions:
   0 Li     1.617037    1.617037   10.000000    ( 0.0000,  0.0000,  0.0000)
   1 Li     4.851111    1.617037   10.000000    ( 0.0000,  0.0000,  0.0000)
   2 Li     8.085185    1.617037   10.000000    ( 0.0000,  0.0000,  0.0000)
   3 Li     1.617037    4.851111   10.000000    ( 0.0000,  0.0000,  0.0000)
   4 Li     4.851111    4.851111   10.000000    ( 0.0000,  0.0000,  0.0000)
   5 Li     8.085185    4.851111   10.000000    ( 0.0000,  0.0000,  0.0000)
   6 Li     1.617037    8.085185   10.000000    ( 0.0000,  0.0000,  0.0000)
   7 Li     4.851111    8.085185   10.000000    ( 0.0000,  0.0000,  0.0000)
   8 Li     8.085185    8.085185   10.000000    ( 0.0000,  0.0000,  0.0000)
   9 Li     0.000000    0.000000   11.617037    ( 0.0000,  0.0000,  0.0000)
  10 Li     3.234074    0.000000   11.617037    ( 0.0000,  0.0000,  0.0000)
  11 Li     6.468148    0.000000   11.617037    ( 0.0000,  0.0000,  0.0000)
  12 Li     0.000000    3.234074   11.617037    ( 0.0000,  0.0000,  0.0000)
  13 Li     3.234074    3.234074   11.617037    ( 0.0000,  0.0000,  0.0000)
  14 Li     6.468148    3.234074   11.617037    ( 0.0000,  0.0000,  0.0000)
  15 Li     0.000000    6.468148   11.617037    ( 0.0000,  0.0000,  0.0000)
  16 Li     3.234074    6.468148   11.617037    ( 0.0000,  0.0000,  0.0000)
  17 Li     6.468148    6.468148   11.617037    ( 0.0000,  0.0000,  0.0000)
  18 Li     1.530522    1.605454   13.575387    ( 0.0000,  0.0000,  0.0000)
  19 Li     4.811540    1.607316   13.465076    ( 0.0000,  0.0000,  0.0000)
  20 Li     8.130590    1.593913   13.579240    ( 0.0000,  0.0000,  0.0000)
  21 Li     1.576844    4.837443   13.541410    ( 0.0000,  0.0000,  0.0000)
  22 Li     4.847275    4.848475   13.478459    ( 0.0000,  0.0000,  0.0000)
  23 Li     8.111427    4.839127   13.526260    ( 0.0000,  0.0000,  0.0000)
  24 Li     1.566551    8.115225   13.583618    ( 0.0000,  0.0000,  0.0000)
  25 Li     4.827281    8.098430   13.489440    ( 0.0000,  0.0000,  0.0000)
  26 Li     8.121232    8.130833   13.580549    ( 0.0000,  0.0000,  0.0000)
  27 Li    -0.089770    0.095745   15.926466    ( 0.0000,  0.0000,  0.0000)
  28 Li     3.219602    0.016353   15.502295    ( 0.0000,  0.0000,  0.0000)
  29 Li     6.387677    0.022349   15.458998    ( 0.0000,  0.0000,  0.0000)
  30 Li    -0.043242    3.218283   15.697341    ( 0.0000,  0.0000,  0.0000)
  31 Li     3.234247    3.229250   15.418720    ( 0.0000,  0.0000,  0.0000)
  32 Li     6.433280    3.213576   15.410158    ( 0.0000,  0.0000,  0.0000)
  33 Li    -0.003897    6.447791   15.558464    ( 0.0000,  0.0000,  0.0000)
  34 Li     3.243841    6.461607   15.462900    ( 0.0000,  0.0000,  0.0000)
  35 Li     6.466826    6.468334   15.429888    ( 0.0000,  0.0000,  0.0000)
  36 O      0.197703    1.878717   17.973391    ( 0.0000,  0.0000,  0.0000)
  37 O     -0.357224    1.508778   21.051774    ( 0.0000,  0.0000,  0.0000)
  38 C     -0.364250    2.821413   18.936425    ( 0.0000,  0.0000,  0.0000)
  39 C      0.149822    2.660333   20.369865    ( 0.0000,  0.0000,  0.0000)
  40 H     -0.216308    3.857382   18.601469    ( 0.0000,  0.0000,  0.0000)
  41 H     -1.443535    2.665453   18.915703    ( 0.0000,  0.0000,  0.0000)
  42 H     -0.192869    3.525881   20.947743    ( 0.0000,  0.0000,  0.0000)
  43 H      1.251148    2.668992   20.398705    ( 0.0000,  0.0000,  0.0000)
  44 H      1.159828    2.012383   17.911263    ( 0.0000,  0.0000,  0.0000)
  45 H     -0.007490    0.722107   20.616663    ( 0.0000,  0.0000,  0.0000)

Unit cell:
           periodic     x           y           z      points  spacing
  1. axis:    yes    9.702222    0.000000    0.000000    60     0.1617
  2. axis:    yes    0.000000    9.702222    0.000000    60     0.1617
  3. axis:    no     0.000000    0.000000   24.851111   156     0.1593

  Lengths:   9.702222   9.702222  24.851111
  Angles:   90.000000  90.000000  90.000000

Effective grid spacing dv^(1/3) = 0.1609

     iter     time        total  log10-change:
                         energy  eigst   dens
iter:   1 18:08:14  -291.053924  -0.59
iter:   2 18:12:38  -290.925544  -1.16  -1.46
iter:   3 18:19:10  -290.893537  -2.14  -1.68
iter:   4 18:25:10  -290.872714  -1.42  -1.95
