
  ___ ___ ___ _ _ _  
 |   |   |_  | | | | 
 | | | | | . | | | | 
 |__ |  _|___|_____|  22.8.0
 |___|_|             

User:   vazumah@r117.ib.bridges2.psc.edu
Date:   Fri Mar 10 18:36:09 2023
Arch:   x86_64
Pid:    51254
CWD:    /jet/home/vazumah/Calcs/LiMEAS/proton_donors/propan_1_ol_x/bridge/8.085_1.617/N2_y
Python: 3.11.0
gpaw:   /jet/home/vazumah/.conda/envs/GPAW_mpich/lib/python3.11/site-packages/gpaw
_gpaw:  /jet/home/vazumah/.conda/envs/GPAW_mpich/lib/python3.11/site-packages/
        _gpaw.cpython-311-x86_64-linux-gnu.so
ase:    /jet/home/vazumah/.conda/envs/GPAW_mpich/lib/python3.11/site-packages/ase (version 3.22.1)
numpy:  /jet/home/vazumah/.conda/envs/GPAW_mpich/lib/python3.11/site-packages/numpy (version 1.24.2)
scipy:  /jet/home/vazumah/.conda/envs/GPAW_mpich/lib/python3.11/site-packages/scipy (version 1.10.1)
libxc:  5.2.3
units:  Angstrom and eV
cores: 128
OpenMP: True
OMP_NUM_THREADS: 1

Input parameters:
  h: 0.16
  kpts: {size: [4, 4, 1]}
  occupations: {name: fermi-dirac,
                width: 0.05}
  poissonsolver: {dipolelayer: xy}
  xc: BEEF-vdW

System changes: positions, numbers, cell, pbc, initial_charges, initial_magmoms 

Initialize ...

species:
  Li:
    name: Lithium
    id: 830b4218f175192f93f959cfc0aad614
    Z: 3.0
    valence: 1
    core: 2
    charge: 0.0
    file: /jet/home/vazumah/datasets/gpaw-setups-0.9.20000/Li.PBE.gz
    compensation charges: {type: gauss,
                           rc: 0.33,
                           lmax: 2}
    cutoffs: {filter: 1.91,
              core: 2.55}
    valence states:
      #              energy  rcut
      - 2s(1.00)    -2.874   1.058
      - 2p(0.00)    -1.090   1.058
      -  s          24.337   1.058
  
    # Using partial waves for Li as LCAO basis

  O:
    name: Oxygen
    id: 32ecd46bf208036f09c70b0ec9a88b78
    Z: 8.0
    valence: 6
    core: 2
    charge: 0.0
    file: /jet/home/vazumah/datasets/gpaw-setups-0.9.20000/O.PBE.gz
    compensation charges: {type: gauss,
                           rc: 0.21,
                           lmax: 2}
    cutoffs: {filter: 1.17,
              core: 0.83}
    valence states:
      #              energy  rcut
      - 2s(2.00)   -23.961   0.688
      - 2p(4.00)    -9.029   0.598
      -  s           3.251   0.688
      -  p          18.182   0.598
      -  d           0.000   0.619
  
    # Using partial waves for O as LCAO basis

  C:
    name: Carbon
    id: 4aa54d4b901d75f77cc0ea3eec22967b
    Z: 6.0
    valence: 4
    core: 2
    charge: 0.0
    file: /jet/home/vazumah/datasets/gpaw-setups-0.9.20000/C.PBE.gz
    compensation charges: {type: gauss,
                           rc: 0.20,
                           lmax: 2}
    cutoffs: {filter: 1.14,
              core: 1.14}
    valence states:
      #              energy  rcut
      - 2s(2.00)   -13.751   0.635
      - 2p(2.00)    -5.284   0.635
      -  s          13.461   0.635
      -  p          21.927   0.635
      -  d           0.000   0.635
  
    # Using partial waves for C as LCAO basis

  H:
    name: Hydrogen
    id: d65de229564ff8ea4db303e23b6d1ecf
    Z: 1.0
    valence: 1
    core: 0
    charge: 0.0
    file: /jet/home/vazumah/datasets/gpaw-setups-0.9.20000/H.PBE.gz
    compensation charges: {type: gauss,
                           rc: 0.15,
                           lmax: 2}
    cutoffs: {filter: 0.85,
              core: 0.53}
    valence states:
      #              energy  rcut
      - 1s(1.00)    -6.494   0.476
      -  s          20.717   0.476
      -  p           0.000   0.476
  
    # Using partial waves for H as LCAO basis

  N:
    name: Nitrogen
    id: f7500608b86eaa90eef8b1d9a670dc53
    Z: 7.0
    valence: 5
    core: 2
    charge: 0.0
    file: /jet/home/vazumah/datasets/gpaw-setups-0.9.20000/N.PBE.gz
    compensation charges: {type: gauss,
                           rc: 0.18,
                           lmax: 2}
    cutoffs: {filter: 1.11,
              core: 0.96}
    valence states:
      #              energy  rcut
      - 2s(2.00)   -18.583   0.603
      - 2p(3.00)    -7.089   0.529
      -  s           8.629   0.603
      -  p          20.123   0.529
      -  d           0.000   0.577
  
    # Using partial waves for N as LCAO basis

Reference energy: -15487.462483  # eV

Spin-paired calculation

Convergence criteria:
 Maximum [total energy] change in last 3 cyles: 0.0005 eV / electron
 Maximum integral of absolute [dens]ity change: 0.0001 electrons / valence electron
 Maximum integral of absolute [eigenst]ate change: 4e-08 eV^2 / valence electron
 Maximum number of scf [iter]ations: 333
 (Square brackets indicate name in SCF output, whereas a 'c' in
 the SCF output indicates the quantity has converged.)

Symmetries present (total): 1

  ( 1  0  0)
  ( 0  1  0)
  ( 0  0  1)

16 k-points: 4 x 4 x 1 Monkhorst-Pack grid
8 k-points in the irreducible part of the Brillouin zone
       k-points in crystal coordinates                weights
   0:     0.12500000   -0.37500000    0.00000000          2/16
   1:     0.12500000   -0.12500000    0.00000000          2/16
   2:     0.12500000    0.12500000    0.00000000          2/16
   3:     0.12500000    0.37500000    0.00000000          2/16
   4:     0.37500000   -0.37500000    0.00000000          2/16
   5:     0.37500000   -0.12500000    0.00000000          2/16
   6:     0.37500000    0.12500000    0.00000000          2/16
   7:     0.37500000    0.37500000    0.00000000          2/16

Wave functions: Uniform real-space grid
  Kinetic energy operator: 6*3+1=19 point O(h^6) finite-difference Laplacian
  ScaLapack parameters: grid=1x1, blocksize=None
  Wavefunction extrapolation:
    Improved wavefunction reuse through dual PAW basis 

Occupation numbers: Fermi-Dirac:
  width: 0.0500  # eV
 

Eigensolver
   Davidson(niter=2) 

Densities:
  Coarse grid: 60*60*164 grid
  Fine grid: 120*120*328 grid
  Total Charge: 0.000000 

Density mixing:
  Method: separate
  Backend: pulay
  Linear mixing parameter: 0.05
  old densities: 5
  Damping of long wavelength oscillations: 50 

Hamiltonian:
  XC and Coulomb potentials evaluated on a 120*120*328 grid
  Using the BEEF-vdW Exchange-Correlation functional
  Interpolation: tri-quintic (5. degree polynomial)
  Poisson solver: FastPoissonSolver using
    Stencil: 6*3+1=19 point O(h^6) finite-difference Laplacian
    FFT axes: [0, 1]
    FST axes: [2]

Dipole correction along z-axis 

XC parameters: BEEF-vdW with 2 nearest neighbor stencil

Memory estimate:
  Process memory now: 125.00 MiB
  Calculator: 84.83 MiB
    Density: 22.60 MiB
      Arrays: 7.22 MiB
      Localized functions: 12.63 MiB
      Mixer: 2.75 MiB
    Hamiltonian: 5.72 MiB
      Arrays: 4.72 MiB
      XC: 0.00 MiB
      Poisson: 0.00 MiB
      vbar: 1.00 MiB
    Wavefunctions: 56.51 MiB
      Arrays psit_nG: 26.37 MiB
      Eigensolver: 29.47 MiB
      Projections: 0.01 MiB
      Projectors: 0.66 MiB

Total number of cores used: 128
Parallelization over k-points: 8
Domain decomposition: 2 x 2 x 4

Number of atoms: 50
Number of atomic orbitals: 176
Number of bands in calculation: 48
Number of valence electrons: 72
Bands to converge: occupied

... initialized

Initializing position-dependent things.

Density initialized from atomic densities
Creating initial wave functions:
  48 bands from LCAO basis set

       .-----------------------.  
      /|                       |  
     / |                       |  
    /  |                       |  
   /   |                       |  
  /    |                       |  
 *     |                       |  
 |     |                       |  
 |     |                       |  
 |     |                       |  
 |     |                       |  
 |     |                       |  
 |     |                       |  
 |     |H                 H    |  
 | H   |C                 C    |  
 |  CLi|HH   Li      LO   H    |  
 | H   |              HN       |  
 | Li  |  LLi     LLi     Li   |  
 |     |                       |  
 Li    |LLi     LLi     Li     |  
 |   Li|     Li      Li        |  
 |    Li  Li  Li  Li  Li  Li   |  
 | Li  |   Li      Li          |  
 |     |Li      Li      Li     |  
 Li    | Li      Li            |  
 |    Li      Li      Li       |  
 |     |                       |  
 |     |                       |  
 |     |                       |  
 |     |                       |  
 |     |                       |  
 |     |                       |  
 |     .-----------------------.  
 |    /                       /   
 |   /                       /    
 |  /                       /     
 | /                       /      
 |/                       /       
 *-----------------------*        

Positions:
   0 Li     1.617037    1.617037   10.000000    ( 0.0000,  0.0000,  0.0000)
   1 Li     4.851111    1.617037   10.000000    ( 0.0000,  0.0000,  0.0000)
   2 Li     8.085185    1.617037   10.000000    ( 0.0000,  0.0000,  0.0000)
   3 Li     1.617037    4.851111   10.000000    ( 0.0000,  0.0000,  0.0000)
   4 Li     4.851111    4.851111   10.000000    ( 0.0000,  0.0000,  0.0000)
   5 Li     8.085185    4.851111   10.000000    ( 0.0000,  0.0000,  0.0000)
   6 Li     1.617037    8.085185   10.000000    ( 0.0000,  0.0000,  0.0000)
   7 Li     4.851111    8.085185   10.000000    ( 0.0000,  0.0000,  0.0000)
   8 Li     8.085185    8.085185   10.000000    ( 0.0000,  0.0000,  0.0000)
   9 Li     0.000000    0.000000   11.617037    ( 0.0000,  0.0000,  0.0000)
  10 Li     3.234074    0.000000   11.617037    ( 0.0000,  0.0000,  0.0000)
  11 Li     6.468148    0.000000   11.617037    ( 0.0000,  0.0000,  0.0000)
  12 Li     0.000000    3.234074   11.617037    ( 0.0000,  0.0000,  0.0000)
  13 Li     3.234074    3.234074   11.617037    ( 0.0000,  0.0000,  0.0000)
  14 Li     6.468148    3.234074   11.617037    ( 0.0000,  0.0000,  0.0000)
  15 Li     0.000000    6.468148   11.617037    ( 0.0000,  0.0000,  0.0000)
  16 Li     3.234074    6.468148   11.617037    ( 0.0000,  0.0000,  0.0000)
  17 Li     6.468148    6.468148   11.617037    ( 0.0000,  0.0000,  0.0000)
  18 Li     1.617038    1.617038   13.469728    ( 0.0000,  0.0000,  0.0000)
  19 Li     4.851111    1.617038   13.469729    ( 0.0000,  0.0000,  0.0000)
  20 Li     8.085184    1.617038   13.469728    ( 0.0000,  0.0000,  0.0000)
  21 Li     1.617038    4.851111   13.469729    ( 0.0000,  0.0000,  0.0000)
  22 Li     4.851111    4.851111   13.469730    ( 0.0000,  0.0000,  0.0000)
  23 Li     8.085184    4.851111   13.469729    ( 0.0000,  0.0000,  0.0000)
  24 Li     1.617038    8.085184   13.469728    ( 0.0000,  0.0000,  0.0000)
  25 Li     4.851111    8.085184   13.469729    ( 0.0000,  0.0000,  0.0000)
  26 Li     8.085184    8.085184   13.469728    ( 0.0000,  0.0000,  0.0000)
  27 Li    -0.000000   -0.000000   15.445939    ( 0.0000,  0.0000,  0.0000)
  28 Li     3.234074    0.000000   15.445939    ( 0.0000,  0.0000,  0.0000)
  29 Li     6.468148    0.000000   15.445939    ( 0.0000,  0.0000,  0.0000)
  30 Li     0.000000    3.234074   15.445939    ( 0.0000,  0.0000,  0.0000)
  31 Li     3.234076    3.234076   15.445938    ( 0.0000,  0.0000,  0.0000)
  32 Li     6.468146    3.234076   15.445938    ( 0.0000,  0.0000,  0.0000)
  33 Li     0.000000    6.468148   15.445939    ( 0.0000,  0.0000,  0.0000)
  34 Li     3.234076    6.468146   15.445938    ( 0.0000,  0.0000,  0.0000)
  35 Li     6.468146    6.468146   15.445938    ( 0.0000,  0.0000,  0.0000)
  36 O      8.085185    1.617037   18.445939    ( 0.0000,  0.0000,  0.0000)
  37 C     10.519434    1.229416   18.445810    ( 0.0000,  0.0000,  0.0000)
  38 C      9.377245    2.239826   18.435257    ( 0.0000,  0.0000,  0.0000)
  39 C     11.899769    1.891829   18.452171    ( 0.0000,  0.0000,  0.0000)
  40 H     10.400821    0.586566   19.323111    ( 0.0000,  0.0000,  0.0000)
  41 H     10.425520    0.587658   17.560130    ( 0.0000,  0.0000,  0.0000)
  42 H      9.401053    2.859769   19.335148    ( 0.0000,  0.0000,  0.0000)
  43 H      9.470828    2.906729   17.567482    ( 0.0000,  0.0000,  0.0000)
  44 H     12.033306    2.517909   19.337849    ( 0.0000,  0.0000,  0.0000)
  45 H     12.697051    1.147054   18.452977    ( 0.0000,  0.0000,  0.0000)
  46 H     12.041318    2.527345   17.573910    ( 0.0000,  0.0000,  0.0000)
  47 H      8.036424    1.039479   17.674628    ( 0.0000,  0.0000,  0.0000)
  48 N      8.085000    1.617000   16.945939    ( 0.0000,  0.0000,  0.0000)
  49 N      8.085000    2.713622   16.945939    ( 0.0000,  0.0000,  0.0000)

Unit cell:
           periodic     x           y           z      points  spacing
  1. axis:    yes    9.702222    0.000000    0.000000    60     0.1617
  2. axis:    yes    0.000000    9.702222    0.000000    60     0.1617
  3. axis:    no     0.000000    0.000000   26.351111   164     0.1607

  Lengths:   9.702222   9.702222  26.351111
  Angles:   90.000000  90.000000  90.000000

Effective grid spacing dv^(1/3) = 0.1614

     iter     time        total  log10-change:
                         energy  eigst   dens
iter:   1 18:36:24  -583.539237
iter:   2 18:36:32  -113.125951  +2.67  -0.00
iter:   3 18:36:39  -130.500183  +3.15  -0.22
iter:   4 18:36:47  -246.747187  +3.05  -0.34
Writing to output.gpw (mode='')

iter:   5 18:36:54  -285.958505  +2.66  -0.41
iter:   6 18:37:01  -320.674257  +2.32  -0.65
iter:   7 18:37:09  -336.606368  +2.03  -0.64
iter:   8 18:37:16  -348.277112  +1.80  -0.59
iter:   9 18:37:24  -352.916562  +1.84  -0.57
Writing to output.gpw (mode='')

iter:  10 18:37:31  -382.327822  +2.05  -0.62
iter:  11 18:37:38  -464.010574  +2.51  -0.56
iter:  12 18:37:46  -456.789547  +2.04  -0.36
iter:  13 18:37:53  -325.001557  +1.32  -0.35
iter:  14 18:38:00  -325.160738  +1.01  -0.76
Writing to output.gpw (mode='')

iter:  15 18:38:08  -325.948178  +1.08  -0.77
iter:  16 18:38:15  -325.425615  +0.88  -0.79
iter:  17 18:38:22  -325.360782  +0.61  -0.89
iter:  18 18:38:30  -324.382327  +0.29  -0.97
iter:  19 18:38:37  -323.383390  +0.68  -0.97
Writing to output.gpw (mode='')

iter:  20 18:38:44  -323.629770  +0.28  -1.05
iter:  21 18:38:52  -323.289038  -0.05  -1.02
iter:  22 18:38:59  -322.934223  -0.40  -1.07
iter:  23 18:39:06  -322.661751  -0.33  -1.17
iter:  24 18:39:14  -322.772884  -0.29  -1.31
Writing to output.gpw (mode='')

iter:  25 18:39:27  -322.736778  -0.41  -1.34
iter:  26 18:39:35  -322.853992  -0.33  -1.52
iter:  27 18:39:42  -322.906287  -0.58  -1.47
iter:  28 18:39:49  -322.972361  -0.60  -1.42
iter:  29 18:39:57  -322.806476  -0.80  -1.39
Writing to output.gpw (mode='')

iter:  30 18:40:04  -322.963554  -0.68  -1.38
iter:  31 18:40:11  -322.786932  -0.74  -1.42
iter:  32 18:40:19  -322.662547  -0.69  -1.54
iter:  33 18:40:26  -322.676008  -1.65  -1.70
iter:  34 18:40:34  -322.669787c -1.18  -1.68
Writing to output.gpw (mode='')

iter:  35 18:40:41  -322.648791c -1.91  -1.65
iter:  36 18:40:48  -322.612741  -1.66  -1.72
iter:  37 18:40:56  -322.611864  -1.84  -2.05
iter:  38 18:41:03  -322.614484c -2.17  -2.11
iter:  39 18:41:10  -322.610776c -2.17  -2.23
Writing to output.gpw (mode='')

iter:  40 18:41:18  -322.610676c -1.99  -2.39
iter:  41 18:41:25  -322.609856c -2.28  -2.47
iter:  42 18:41:32  -322.610762c -2.52  -2.47
iter:  43 18:41:40  -322.610175c -2.69  -2.65
iter:  44 18:41:47  -322.609575c -2.95  -2.74
Writing to output.gpw (mode='')

iter:  45 18:41:54  -322.609971c -3.05  -2.77
iter:  46 18:42:01  -322.609679c -3.37  -2.96
iter:  47 18:42:09  -322.609938c -3.32  -2.97
iter:  48 18:42:16  -322.610078c -3.38  -3.13
iter:  49 18:42:23  -322.610142c -3.48  -3.31
Writing to output.gpw (mode='')

iter:  50 18:42:30  -322.610160c -3.78  -3.31
iter:  51 18:42:38  -322.610235c -3.77  -3.37
iter:  52 18:42:45  -322.610201c -3.86  -3.67
iter:  53 18:42:53  -322.610252c -3.94  -3.75
iter:  54 18:43:08  -322.610273c -3.97  -3.89
Writing to output.gpw (mode='')

iter:  55 18:43:22  -322.610297c -3.80  -3.92
iter:  56 18:43:32  -322.610319c -3.82  -3.96
iter:  57 18:43:39  -322.610337c -4.00  -3.99
iter:  58 18:43:46  -322.610349c -4.15  -3.97
iter:  59 18:43:54  -322.610363c -4.14  -3.95
Writing to output.gpw (mode='')

iter:  60 18:44:01  -322.610372c -4.36  -3.99
iter:  61 18:44:08  -322.610379c -4.46  -4.01c
iter:  62 18:44:21  -322.610384c -4.62  -4.04c
iter:  63 18:44:30  -322.610381c -4.64  -4.04c
iter:  64 18:44:37  -322.610400c -4.64  -4.11c
Writing to output.gpw (mode='')

iter:  65 18:44:44  -322.610402c -4.94  -4.11c
iter:  66 18:44:52  -322.610405c -4.93  -4.33c
iter:  67 18:44:59  -322.610402c -4.96  -4.40c
iter:  68 18:45:06  -322.610402c -4.76  -4.47c
iter:  69 18:45:14  -322.610401c -5.05  -4.56c
Writing to output.gpw (mode='')

iter:  70 18:45:21  -322.610405c -5.21  -4.59c
iter:  71 18:45:28  -322.610404c -5.42  -4.75c
iter:  72 18:45:35  -322.610409c -5.09  -4.76c
iter:  73 18:45:43  -322.610408c -5.40  -4.76c
iter:  74 18:45:50  -322.610406c -5.06  -4.82c
Writing to output.gpw (mode='')

iter:  75 18:45:57  -322.610406c -5.69  -5.03c
iter:  76 18:46:04  -322.610406c -5.47  -5.07c
iter:  77 18:46:12  -322.610407c -5.73  -5.17c
iter:  78 18:46:19  -322.610406c -5.72  -5.17c
iter:  79 18:46:26  -322.610407c -5.89  -5.21c
Writing to output.gpw (mode='')

iter:  80 18:46:33  -322.610406c -6.02  -5.23c
iter:  81 18:46:41  -322.610407c -5.95  -5.45c
iter:  82 18:46:48  -322.610407c -6.07  -5.50c
iter:  83 18:46:55  -322.610407c -6.19  -5.69c
iter:  84 18:47:02  -322.610407c -6.31  -5.71c
Writing to output.gpw (mode='')

iter:  85 18:47:10  -322.610407c -6.21  -5.66c
iter:  86 18:47:17  -322.610407c -6.30  -5.56c
iter:  87 18:47:24  -322.610407c -6.22  -5.53c
iter:  88 18:47:31  -322.610407c -6.47  -5.52c
iter:  89 18:47:39  -322.610407c -6.55  -5.48c
Writing to output.gpw (mode='')

iter:  90 18:47:46  -322.610407c -6.53  -5.48c
iter:  91 18:47:53  -322.610407c -6.49  -5.44c
iter:  92 18:48:00  -322.610407c -6.53  -5.38c
iter:  93 18:48:08  -322.610407c -6.77  -5.44c
iter:  94 18:48:15  -322.610407c -6.55  -5.49c
Writing to output.gpw (mode='')

iter:  95 18:48:22  -322.610407c -6.86  -5.46c
iter:  96 18:48:29  -322.610407c -7.03  -5.46c
iter:  97 18:48:37  -322.610407c -6.97  -5.47c
iter:  98 18:48:44  -322.610408c -7.13  -5.42c
iter:  99 18:48:51  -322.610407c -7.20  -5.28c
Writing to output.gpw (mode='')

iter: 100 18:48:58  -322.610407c -7.07  -5.39c
iter: 101 18:49:06  -322.610406c -7.23  -5.47c
iter: 102 18:49:13  -322.610406c -7.15  -5.46c
iter: 103 18:49:26  -322.610406c -7.39  -5.51c
iter: 104 18:49:34  -322.610406c -7.37  -5.63c
Writing to output.gpw (mode='')

iter: 105 18:49:41  -322.610406c -7.40c -5.64c

Converged after 105 iterations.

Dipole moment: (10.189065, -5.500511, 0.182005) |e|*Ang

Energy contributions relative to reference atoms: (reference = -15487.462483)

Kinetic:       +224.227553
Potential:     -197.649334
External:        +0.000000
XC:            -349.884691
Entropy (-ST):   -0.180090
Local:           +0.786110
--------------------------
Free energy:   -322.700451
Extrapolated:  -322.610406

Dipole-layer corrected work functions: 3.400653, 3.050777 eV

Showing only first 2 kpts
 Kpt  Band  Eigenvalues  Occupancy
  0    34     -3.46219    1.98249
  0    35     -3.37224    1.89867
  0    36     -3.17226    0.51111
  0    37     -2.97951    0.01443

  1    34     -3.25257    1.26225
  1    35     -3.22526    0.99546
  1    36     -3.17375    0.52258
  1    37     -3.15110    0.36716


Fermi level: -3.22572

No gap

Forces in eV/Ang:
  0 Li    0.01702    0.00381   -0.27292
  1 Li   -0.01681    0.00468   -0.27409
  2 Li   -0.00097   -0.00727   -0.28331
  3 Li    0.00919   -0.00077   -0.27497
  4 Li   -0.01176   -0.00333   -0.27996
  5 Li    0.00140    0.01545   -0.28046
  6 Li   -0.00007   -0.00324   -0.27507
  7 Li    0.00058    0.00027   -0.27451
  8 Li    0.00231   -0.00928   -0.26709
  9 Li   -0.00506   -0.00904    0.29041
 10 Li   -0.00083    0.01517    0.24466
 11 Li    0.00413   -0.00435    0.28516
 12 Li   -0.00982    0.00195    0.30830
 13 Li    0.00100   -0.00679    0.22799
 14 Li    0.01215   -0.00567    0.31824
 15 Li   -0.00123    0.01121    0.24241
 16 Li   -0.00062   -0.00740    0.27281
 17 Li   -0.00059    0.00999    0.25432
 18 Li   -0.01082    0.01142    0.03211
 19 Li    0.00173    0.00819    0.03883
 20 Li    0.01300   -0.02426   -0.19669
 21 Li   -0.03047   -0.03288    0.07818
 22 Li    0.02658   -0.03097    0.05701
 23 Li    0.00368    0.05635   -0.09267
 24 Li   -0.00203    0.01769    0.04498
 25 Li    0.00322    0.02239    0.05050
 26 Li   -0.00130   -0.00198    0.06554
 27 Li    0.02075   -0.14865   -0.18131
 28 Li    0.03941   -0.02384   -0.09478
 29 Li   -0.05416   -0.09082   -0.06379
 30 Li   -0.21701    0.04876   -0.20172
 31 Li    0.04468    0.04303   -0.14243
 32 Li    0.17276    0.07426    0.15198
 33 Li    0.03827    0.05042   -0.03701
 34 Li   -0.00966   -0.01153   -0.00599
 35 Li   -0.02647    0.05877   -0.02165
 36 O     1.84462   -0.20802   19.13400
 37 C     0.06016   -0.05452    0.29559
 38 C     3.06575   -0.33587    4.51412
 39 C    -0.14023   -0.01827    0.21007
 40 H     0.07400   -0.10740   -0.05082
 41 H     0.12204   -0.13195    0.05885
 42 H     0.09875    0.01608    0.00597
 43 H     0.83105    0.33471    1.38631
 44 H    -0.00793    0.02659    0.01634
 45 H    -0.00192   -0.06118   -0.01955
 46 H    -0.05071    0.01395   -0.00461
 47 H    -0.79002  -11.15801    3.96921
 48 N    -1.89758   -2.13228  -18.60723
 49 N    -3.22232   13.70768  -10.31591

System changes: positions 

Initializing position-dependent things.

Density initialized from wave functions
       .-----------------------.  
      /|                       |  
     / |                       |  
    /  |                       |  
   /   |                       |  
  /    |                       |  
 *     |                       |  
 |     |                       |  
 |     |                       |  
 |     |                       |  
 |     |                       |  
 |     |                       |  
 |     |                       |  
 |     LH      Li      Li H    |  
 | H   |C                 C    |  
 |  CLi|HH   Li      LO   H    |  
 | H   |              HN       |  
 |     |  LLi     LLi     LLi  |  
 |     |                       |  
 |     |Li      Li      Li     |  
 |   Li|     Li      Li        |  
 |    Li  Li  Li  Li  Li  Li   |  
 | Li  |   Li      Li          |  
 |     |Li      Li      Li     |  
 Li    | Li      Li            |  
 |    Li      Li      Li       |  
 |     |                       |  
 |     |                       |  
 |     |                       |  
 |     |                       |  
 |     |                       |  
 |     |                       |  
 |     .-----------------------.  
 |    /                       /   
 |   /                       /    
 |  /                       /     
 | /                       /      
 |/                       /       
 *-----------------------*        

Positions:
   0 Li     1.617037    1.617037   10.000000    ( 0.0000,  0.0000,  0.0000)
   1 Li     4.851111    1.617037   10.000000    ( 0.0000,  0.0000,  0.0000)
   2 Li     8.085185    1.617037   10.000000    ( 0.0000,  0.0000,  0.0000)
   3 Li     1.617037    4.851111   10.000000    ( 0.0000,  0.0000,  0.0000)
   4 Li     4.851111    4.851111   10.000000    ( 0.0000,  0.0000,  0.0000)
   5 Li     8.085185    4.851111   10.000000    ( 0.0000,  0.0000,  0.0000)
   6 Li     1.617037    8.085185   10.000000    ( 0.0000,  0.0000,  0.0000)
   7 Li     4.851111    8.085185   10.000000    ( 0.0000,  0.0000,  0.0000)
   8 Li     8.085185    8.085185   10.000000    ( 0.0000,  0.0000,  0.0000)
   9 Li     0.000000    0.000000   11.617037    ( 0.0000,  0.0000,  0.0000)
  10 Li     3.234074    0.000000   11.617037    ( 0.0000,  0.0000,  0.0000)
  11 Li     6.468148    0.000000   11.617037    ( 0.0000,  0.0000,  0.0000)
  12 Li     0.000000    3.234074   11.617037    ( 0.0000,  0.0000,  0.0000)
  13 Li     3.234074    3.234074   11.617037    ( 0.0000,  0.0000,  0.0000)
  14 Li     6.468148    3.234074   11.617037    ( 0.0000,  0.0000,  0.0000)
  15 Li     0.000000    6.468148   11.617037    ( 0.0000,  0.0000,  0.0000)
  16 Li     3.234074    6.468148   11.617037    ( 0.0000,  0.0000,  0.0000)
  17 Li     6.468148    6.468148   11.617037    ( 0.0000,  0.0000,  0.0000)
  18 Li     1.617016    1.617062   13.469795    ( 0.0000,  0.0000,  0.0000)
  19 Li     4.851115    1.617055   13.469810    ( 0.0000,  0.0000,  0.0000)
  20 Li     8.085211    1.616988   13.469319    ( 0.0000,  0.0000,  0.0000)
  21 Li     1.616975    4.851043   13.469892    ( 0.0000,  0.0000,  0.0000)
  22 Li     4.851166    4.851047   13.469849    ( 0.0000,  0.0000,  0.0000)
  23 Li     8.085191    4.851228   13.469537    ( 0.0000,  0.0000,  0.0000)
  24 Li     1.617034    8.085221   13.469821    ( 0.0000,  0.0000,  0.0000)
  25 Li     4.851118    8.085230   13.469835    ( 0.0000,  0.0000,  0.0000)
  26 Li     8.085181    8.085180   13.469864    ( 0.0000,  0.0000,  0.0000)
  27 Li     0.000043   -0.000309   15.445562    ( 0.0000,  0.0000,  0.0000)
  28 Li     3.234156   -0.000050   15.445742    ( 0.0000,  0.0000,  0.0000)
  29 Li     6.468036   -0.000189   15.445806    ( 0.0000,  0.0000,  0.0000)
  30 Li    -0.000452    3.234175   15.445519    ( 0.0000,  0.0000,  0.0000)
  31 Li     3.234169    3.234166   15.445642    ( 0.0000,  0.0000,  0.0000)
  32 Li     6.468505    3.234231   15.446254    ( 0.0000,  0.0000,  0.0000)
  33 Li     0.000080    6.468253   15.445862    ( 0.0000,  0.0000,  0.0000)
  34 Li     3.234056    6.468122   15.445926    ( 0.0000,  0.0000,  0.0000)
  35 Li     6.468090    6.468268   15.445893    ( 0.0000,  0.0000,  0.0000)
  36 O      8.089023    1.616604   18.485752    ( 0.0000,  0.0000,  0.0000)
  37 C     10.519559    1.229303   18.446425    ( 0.0000,  0.0000,  0.0000)
  38 C      9.383624    2.239127   18.444650    ( 0.0000,  0.0000,  0.0000)
  39 C     11.899477    1.891791   18.452608    ( 0.0000,  0.0000,  0.0000)
  40 H     10.400975    0.586343   19.323005    ( 0.0000,  0.0000,  0.0000)
  41 H     10.425774    0.587384   17.560253    ( 0.0000,  0.0000,  0.0000)
  42 H      9.401258    2.859802   19.335160    ( 0.0000,  0.0000,  0.0000)
  43 H      9.472557    2.907425   17.570367    ( 0.0000,  0.0000,  0.0000)
  44 H     12.033289    2.517964   19.337883    ( 0.0000,  0.0000,  0.0000)
  45 H     12.697047    1.146927   18.452936    ( 0.0000,  0.0000,  0.0000)
  46 H     12.041213    2.527374   17.573900    ( 0.0000,  0.0000,  0.0000)
  47 H      8.034780    1.016262   17.682887    ( 0.0000,  0.0000,  0.0000)
  48 N      8.081052    1.612563   16.907222    ( 0.0000,  0.0000,  0.0000)
  49 N      8.078295    2.742144   16.924475    ( 0.0000,  0.0000,  0.0000)

Unit cell:
           periodic     x           y           z      points  spacing
  1. axis:    yes    9.702222    0.000000    0.000000    60     0.1617
  2. axis:    yes    0.000000    9.702222    0.000000    60     0.1617
  3. axis:    no     0.000000    0.000000   26.351111   164     0.1607

  Lengths:   9.702222   9.702222  26.351111
  Angles:   90.000000  90.000000  90.000000

Effective grid spacing dv^(1/3) = 0.1614

     iter     time        total  log10-change:
                         energy  eigst   dens
iter:   1 18:49:50  -326.024364  -0.33
iter:   2 18:49:57  -325.265922  -0.41  -1.33
iter:   3 18:50:05  -325.098907  -0.94  -1.29
iter:   4 18:50:12  -324.910737  -0.78  -1.48
Writing to output.gpw (mode='')

iter:   5 18:50:19  -324.852308  -1.82  -1.71
iter:   6 18:50:27  -325.435121  -0.85  -1.96
iter:   7 18:50:34  -324.873387  -1.09  -1.42
iter:   8 18:50:41  -324.808172  -1.22  -1.68
iter:   9 18:50:49  -324.809924  -1.66  -2.32
Writing to output.gpw (mode='')

iter:  10 18:50:56  -324.821124c -1.88  -2.33
iter:  11 18:51:03  -324.817029c -1.67  -1.99
iter:  12 18:51:11  -324.805010c -2.26  -2.19
iter:  13 18:51:18  -324.804674c -2.77  -2.70
iter:  14 18:51:25  -324.804533c -3.09  -2.76
Writing to output.gpw (mode='')

iter:  15 18:51:33  -324.803893c -2.97  -2.77
iter:  16 18:51:43  -324.803722c -3.20  -2.75
iter:  17 18:51:50  -324.803887c -3.37  -2.87
iter:  18 18:51:58  -324.803611c -3.57  -2.99
iter:  19 18:52:05  -324.804036c -3.34  -2.85
Writing to output.gpw (mode='')

iter:  20 18:52:12  -324.803970c -3.80  -3.00
iter:  21 18:52:20  -324.804144c -3.69  -3.09
iter:  22 18:52:27  -324.803970c -4.24  -3.34
iter:  23 18:52:35  -324.803948c -4.42  -3.58
iter:  24 18:52:42  -324.804006c -4.34  -3.62
Writing to output.gpw (mode='')

iter:  25 18:52:50  -324.804003c -4.80  -3.79
iter:  26 18:52:57  -324.804005c -4.87  -3.81
iter:  27 18:53:04  -324.803974c -4.96  -3.86
iter:  28 18:53:12  -324.803989c -4.95  -4.00c
iter:  29 18:53:19  -324.803996c -5.31  -4.16c
Writing to output.gpw (mode='')

iter:  30 18:53:27  -324.803997c -5.28  -4.21c
iter:  31 18:53:34  -324.803998c -5.28  -4.37c
iter:  32 18:53:42  -324.804004c -5.44  -4.34c
iter:  33 18:53:49  -324.803992c -5.63  -4.41c
iter:  34 18:53:56  -324.803996c -5.67  -4.43c
Writing to output.gpw (mode='')

iter:  35 18:54:04  -324.804000c -5.87  -4.55c
iter:  36 18:54:11  -324.803998c -5.96  -4.72c
iter:  37 18:54:25  -324.803998c -5.94  -4.75c
iter:  38 18:54:33  -324.803998c -6.11  -4.77c
iter:  39 18:54:40  -324.803994c -6.41  -4.78c
Writing to output.gpw (mode='')

iter:  40 18:54:47  -324.803997c -6.58  -4.88c
iter:  41 18:54:55  -324.804001c -6.49  -5.02c
iter:  42 18:55:02  -324.803997c -6.66  -5.08c
iter:  43 18:55:10  -324.803997c -6.60  -5.10c
iter:  44 18:55:17  -324.803997c -6.75  -5.25c
Writing to output.gpw (mode='')

iter:  45 18:55:24  -324.803999c -6.67  -5.34c
iter:  46 18:55:32  -324.803997c -6.86  -5.41c
iter:  47 18:55:39  -324.803997c -7.01  -5.53c
iter:  48 18:55:47  -324.803998c -7.11  -5.56c
iter:  49 18:55:54  -324.803997c -7.03  -5.63c
Writing to output.gpw (mode='')

iter:  50 18:56:02  -324.803997c -7.21  -5.62c
iter:  51 18:56:09  -324.803998c -7.33  -5.62c
iter:  52 18:56:17  -324.803997c -7.47c -5.57c

Converged after 52 iterations.

Dipole moment: (10.137264, -5.347504, 0.113221) |e|*Ang

Energy contributions relative to reference atoms: (reference = -15487.462483)

Kinetic:       +211.484548
Potential:     -189.177333
External:        +0.000000
XC:            -347.810246
Entropy (-ST):   -0.182253
Local:           +0.790160
--------------------------
Free energy:   -324.895124
Extrapolated:  -324.803997

Dipole-layer corrected work functions: 3.404952, 3.187303 eV

Showing only first 2 kpts
 Kpt  Band  Eigenvalues  Occupancy
  0    34     -3.52728    1.98055
  0    35     -3.43749    1.88827
  0    36     -3.25460    0.60708
  0    37     -3.04503    0.01310

  1    34     -3.32424    1.27393
  1    35     -3.29051    0.94392
  1    36     -3.23859    0.48071
  1    37     -3.21820    0.34769


Fermi level: -3.29613

No gap
Writing to output.gpw (mode='')


Forces in eV/Ang:
  0 Li    0.01750    0.00373   -0.27386
  1 Li   -0.01769    0.00505   -0.27498
  2 Li   -0.00074   -0.00694   -0.28384
  3 Li    0.01015    0.00038   -0.27550
  4 Li   -0.01257   -0.00189   -0.28130
  5 Li    0.00115    0.01542   -0.28081
  6 Li    0.00109   -0.00357   -0.27619
  7 Li   -0.00058   -0.00043   -0.27506
  8 Li    0.00230   -0.00995   -0.26746
  9 Li   -0.00558   -0.00789    0.29278
 10 Li   -0.00145    0.01393    0.24413
 11 Li    0.00495   -0.00288    0.28767
 12 Li   -0.00965    0.00176    0.31083
 13 Li    0.00051   -0.00672    0.22768
 14 Li    0.01273   -0.00626    0.32240
 15 Li   -0.00203    0.01203    0.24193
 16 Li   -0.00035   -0.00785    0.26985
 17 Li   -0.00027    0.00947    0.25358
 18 Li   -0.00637    0.01074    0.02267
 19 Li   -0.00312    0.00806    0.03006
 20 Li    0.01414   -0.02403   -0.18880
 21 Li   -0.03022   -0.03331    0.07530
 22 Li    0.02603   -0.03266    0.05637
 23 Li    0.00441    0.05670   -0.09559
 24 Li   -0.00311    0.01660    0.04527
 25 Li    0.00543    0.02357    0.05237
 26 Li   -0.00148   -0.00482    0.06036
 27 Li   -0.00091   -0.11454   -0.13839
 28 Li    0.03738   -0.02631   -0.09254
 29 Li   -0.02374   -0.05643   -0.02465
 30 Li   -0.22493    0.00899   -0.13501
 31 Li    0.04335    0.04424   -0.13806
 32 Li    0.18315    0.05289    0.19654
 33 Li    0.03948    0.04638   -0.03777
 34 Li   -0.00858   -0.00981   -0.00805
 35 Li   -0.02913    0.05748   -0.02272
 36 O     1.97248   -0.59941   14.82366
 37 C     0.17847   -0.04216    0.31864
 38 C     2.24977   -0.54106    3.93435
 39 C    -0.09422   -0.06057    0.18743
 40 H     0.08512   -0.12091   -0.04059
 41 H     0.09834   -0.10880    0.06613
 42 H     0.22322    0.18351    0.20013
 43 H     0.69845    0.26592    1.38200
 44 H    -0.00745    0.02679    0.01742
 45 H     0.00964   -0.04750   -0.01632
 46 H    -0.05058    0.01638   -0.00196
 47 H    -0.60378   -7.34058    3.39342
 48 N    -1.80689   -0.18128  -15.29697
 49 N    -2.95662    8.53919   -8.57811

System changes: positions 

Initializing position-dependent things.

Density initialized from wave functions
       .-----------------------.  
      /|                       |  
     / |                       |  
    /  |                       |  
   /   |                       |  
  /    |                       |  
 *     |                       |  
 |     |                       |  
 |     |                       |  
 |     |                       |  
 |     |                       |  
 |     |                       |  
 |     |                       |  
 |     |H      Li      Li H    Li 
 | H   |C                 C    |  
 |  CLi|HH   Li      LO   H    |  
 | H   |             H N       |  
 |     |  LLi     LLi N   LLi  |  
 |     |                       |  
 |     |Li      Li      Li     |  
 |   Li|     Li      Li        |  
 |    Li  Li  Li  Li  Li  Li   |  
 | Li  |   Li      Li          |  
 |     |Li      Li      Li     |  
 Li    | Li      Li            |  
 |    Li      Li      Li       |  
 |     |                       |  
 |     |                       |  
 |     |                       |  
 |     |                       |  
 |     |                       |  
 |     |                       |  
 |     .-----------------------.  
 |    /                       /   
 |   /                       /    
 |  /                       /     
 | /                       /      
 |/                       /       
 *-----------------------*        

Positions:
   0 Li     1.617037    1.617037   10.000000    ( 0.0000,  0.0000,  0.0000)
   1 Li     4.851111    1.617037   10.000000    ( 0.0000,  0.0000,  0.0000)
   2 Li     8.085185    1.617037   10.000000    ( 0.0000,  0.0000,  0.0000)
   3 Li     1.617037    4.851111   10.000000    ( 0.0000,  0.0000,  0.0000)
   4 Li     4.851111    4.851111   10.000000    ( 0.0000,  0.0000,  0.0000)
   5 Li     8.085185    4.851111   10.000000    ( 0.0000,  0.0000,  0.0000)
   6 Li     1.617037    8.085185   10.000000    ( 0.0000,  0.0000,  0.0000)
   7 Li     4.851111    8.085185   10.000000    ( 0.0000,  0.0000,  0.0000)
   8 Li     8.085185    8.085185   10.000000    ( 0.0000,  0.0000,  0.0000)
   9 Li     0.000000    0.000000   11.617037    ( 0.0000,  0.0000,  0.0000)
  10 Li     3.234074    0.000000   11.617037    ( 0.0000,  0.0000,  0.0000)
  11 Li     6.468148    0.000000   11.617037    ( 0.0000,  0.0000,  0.0000)
  12 Li     0.000000    3.234074   11.617037    ( 0.0000,  0.0000,  0.0000)
  13 Li     3.234074    3.234074   11.617037    ( 0.0000,  0.0000,  0.0000)
  14 Li     6.468148    3.234074   11.617037    ( 0.0000,  0.0000,  0.0000)
  15 Li     0.000000    6.468148   11.617037    ( 0.0000,  0.0000,  0.0000)
  16 Li     3.234074    6.468148   11.617037    ( 0.0000,  0.0000,  0.0000)
  17 Li     6.468148    6.468148   11.617037    ( 0.0000,  0.0000,  0.0000)
  18 Li     1.617018    1.617098   13.469824    ( 0.0000,  0.0000,  0.0000)
  19 Li     4.851074    1.617085   13.469871    ( 0.0000,  0.0000,  0.0000)
  20 Li     8.085271    1.616898   13.468653    ( 0.0000,  0.0000,  0.0000)
  21 Li     1.616862    4.850914   13.470159    ( 0.0000,  0.0000,  0.0000)
  22 Li     4.851261    4.850913   13.470058    ( 0.0000,  0.0000,  0.0000)
  23 Li     8.085212    4.851444   13.469158    ( 0.0000,  0.0000,  0.0000)
  24 Li     1.617016    8.085277   13.469994    ( 0.0000,  0.0000,  0.0000)
  25 Li     4.851151    8.085326   13.470044    ( 0.0000,  0.0000,  0.0000)
  26 Li     8.085175    8.085145   13.470061    ( 0.0000,  0.0000,  0.0000)
  27 Li    -0.000090   -0.000538   15.445297    ( 0.0000,  0.0000,  0.0000)
  28 Li     3.234285   -0.000164   15.445406    ( 0.0000,  0.0000,  0.0000)
  29 Li     6.468128   -0.000196   15.445947    ( 0.0000,  0.0000,  0.0000)
  30 Li    -0.001348    3.233971   15.445409    ( 0.0000,  0.0000,  0.0000)
  31 Li     3.234325    3.234340   15.445147    ( 0.0000,  0.0000,  0.0000)
  32 Li     6.469259    3.234303   15.447263    ( 0.0000,  0.0000,  0.0000)
  33 Li     0.000236    6.468404   15.445715    ( 0.0000,  0.0000,  0.0000)
  34 Li     3.234030    6.468095   15.445883    ( 0.0000,  0.0000,  0.0000)
  35 Li     6.467964    6.468477   15.445801    ( 0.0000,  0.0000,  0.0000)
  36 O      8.097238    1.611996   18.515916    ( 0.0000,  0.0000,  0.0000)
  37 C     10.520942    1.229218   18.447766    ( 0.0000,  0.0000,  0.0000)
  38 C      9.387233    2.235855   18.456035    ( 0.0000,  0.0000,  0.0000)
  39 C     11.899397    1.891309   18.453180    ( 0.0000,  0.0000,  0.0000)
  40 H     10.401363    0.585806   19.322913    ( 0.0000,  0.0000,  0.0000)
  41 H     10.426003    0.587111   17.560546    ( 0.0000,  0.0000,  0.0000)
  42 H      9.402847    2.861498   19.337079    ( 0.0000,  0.0000,  0.0000)
  43 H      9.474400    2.908017   17.575560    ( 0.0000,  0.0000,  0.0000)
  44 H     12.033264    2.518067   19.337955    ( 0.0000,  0.0000,  0.0000)
  45 H     12.697152    1.146830   18.452894    ( 0.0000,  0.0000,  0.0000)
  46 H     12.041022    2.527451   17.573909    ( 0.0000,  0.0000,  0.0000)
  47 H      8.033615    1.011405   17.692253    ( 0.0000,  0.0000,  0.0000)
  48 N      8.074771    1.623564   16.869281    ( 0.0000,  0.0000,  0.0000)
  49 N      8.068721    2.743435   16.902488    ( 0.0000,  0.0000,  0.0000)

Unit cell:
           periodic     x           y           z      points  spacing
  1. axis:    yes    9.702222    0.000000    0.000000    60     0.1617
  2. axis:    yes    0.000000    9.702222    0.000000    60     0.1617
  3. axis:    no     0.000000    0.000000   26.351111   164     0.1607

  Lengths:   9.702222   9.702222  26.351111
  Angles:   90.000000  90.000000  90.000000

Effective grid spacing dv^(1/3) = 0.1614

     iter     time        total  log10-change:
                         energy  eigst   dens
iter:   1 18:56:26  -326.221922  -0.69
iter:   2 18:56:33  -326.198044  -0.96  -1.78
iter:   3 18:56:41  -326.169007  -1.54  -1.69
iter:   4 18:56:48  -326.135715  -1.61  -1.97
Writing to output.gpw (mode='')

iter:   5 18:56:55  -326.139083c -1.98  -2.14
iter:   6 18:57:03  -326.129405c -1.94  -2.04
iter:   7 18:57:10  -326.118990c -2.22  -2.13
iter:   8 18:57:17  -326.111759c -1.87  -2.30
iter:   9 18:57:25  -326.113216c -2.49  -2.59
Writing to output.gpw (mode='')

iter:  10 18:57:32  -326.111674c -2.86  -2.66
iter:  11 18:57:40  -326.112250c -2.72  -2.91
iter:  12 18:57:47  -326.111948c -3.34  -2.94
iter:  13 18:57:54  -326.112075c -3.30  -3.14
iter:  14 18:58:02  -326.112007c -3.50  -3.28
Writing to output.gpw (mode='')

iter:  15 18:58:09  -326.112162c -3.72  -3.17
iter:  16 18:58:17  -326.112118c -3.55  -3.37
iter:  17 18:58:24  -326.112185c -4.09  -3.38
iter:  18 18:58:32  -326.112200c -4.10  -3.45
iter:  19 18:58:39  -326.112202c -4.40  -3.60
Writing to output.gpw (mode='')

iter:  20 18:58:46  -326.112192c -4.38  -3.62
iter:  21 18:58:54  -326.112188c -4.49  -3.66
iter:  22 18:59:01  -326.112213c -4.60  -3.70
iter:  23 18:59:08  -326.112201c -5.04  -3.79
iter:  24 18:59:22  -326.112248c -4.63  -3.81
Writing to output.gpw (mode='')

iter:  25 18:59:30  -326.112224c -4.91  -3.73
iter:  26 18:59:38  -326.112239c -4.91  -4.01c
iter:  27 18:59:45  -326.112228c -5.36  -3.88
iter:  28 18:59:52  -326.112204c -5.23  -3.97
iter:  29 19:00:00  -326.112212c -5.32  -4.26c
Writing to output.gpw (mode='')

iter:  30 19:00:07  -326.112217c -5.70  -4.27c
iter:  31 19:00:14  -326.112216c -5.54  -4.47c
iter:  32 19:00:21  -326.112216c -5.87  -4.54c
iter:  33 19:00:29  -326.112213c -6.12  -4.70c
iter:  34 19:00:36  -326.112215c -5.85  -4.76c
Writing to output.gpw (mode='')

iter:  35 19:00:43  -326.112216c -6.11  -4.84c
iter:  36 19:00:51  -326.112216c -6.51  -4.94c
iter:  37 19:00:58  -326.112216c -6.34  -4.95c
iter:  38 19:01:05  -326.112217c -6.67  -5.00c
iter:  39 19:01:13  -326.112215c -6.44  -5.18c
Writing to output.gpw (mode='')

iter:  40 19:01:20  -326.112216c -6.99  -5.13c
iter:  41 19:01:27  -326.112216c -6.91  -5.15c
iter:  42 19:01:34  -326.112216c -6.65  -5.15c
iter:  43 19:01:42  -326.112216c -7.02  -5.12c
iter:  44 19:01:49  -326.112216c -7.07  -5.15c
Writing to output.gpw (mode='')

iter:  45 19:01:56  -326.112217c -7.23  -5.05c
iter:  46 19:02:04  -326.112217c -7.13  -5.02c
iter:  47 19:02:11  -326.112218c -7.30  -5.04c
iter:  48 19:02:18  -326.112218c -7.38  -5.04c
iter:  49 19:02:26  -326.112218c -7.32  -5.32c
Writing to output.gpw (mode='')

iter:  50 19:02:33  -326.112217c -7.39  -5.39c
iter:  51 19:02:40  -326.112217c -7.63c -5.52c

Converged after 51 iterations.

Dipole moment: (10.200858, -5.285803, 0.085530) |e|*Ang

Energy contributions relative to reference atoms: (reference = -15487.462483)

Kinetic:       +207.395319
Potential:     -187.051940
External:        +0.000000
XC:            -347.158378
Entropy (-ST):   -0.180002
Local:           +0.792783
--------------------------
Free energy:   -326.202218
Extrapolated:  -326.112217

Dipole-layer corrected work functions: 3.406887, 3.242469 eV

Showing only first 2 kpts
 Kpt  Band  Eigenvalues  Occupancy
  0    34     -3.55667    1.98087
  0    35     -3.46866    1.89366
  0    36     -3.28044    0.58440
  0    37     -3.07577    0.01368

  1    34     -3.35079    1.25533
  1    35     -3.31652    0.91865
  1    36     -3.27388    0.53159
  1    37     -3.24320    0.32778


Fermi level: -3.32468

No gap
Writing to output.gpw (mode='')


Forces in eV/Ang:
  0 Li    0.01857    0.00368   -0.27388
  1 Li   -0.01915    0.00553   -0.27512
  2 Li   -0.00063   -0.00726   -0.28345
  3 Li    0.00980    0.00093   -0.27518
  4 Li   -0.01195   -0.00113   -0.28162
  5 Li    0.00103    0.01692   -0.28057
  6 Li    0.00109   -0.00295   -0.27717
  7 Li   -0.00053   -0.00002   -0.27567
  8 Li    0.00242   -0.01166   -0.26776
  9 Li   -0.00543   -0.00782    0.29177
 10 Li   -0.00145    0.01409    0.24447
 11 Li    0.00464   -0.00286    0.28658
 12 Li   -0.01026    0.00167    0.31162
 13 Li    0.00014   -0.00740    0.22757
 14 Li    0.01406   -0.00649    0.32480
 15 Li   -0.00232    0.01437    0.24048
 16 Li   -0.00077   -0.00987    0.26858
 17 Li   -0.00013    0.01024    0.25242
 18 Li   -0.00820    0.01024    0.02342
 19 Li   -0.00138    0.00864    0.03204
 20 Li    0.01506   -0.02752   -0.19050
 21 Li   -0.03128   -0.03376    0.07458
 22 Li    0.02624   -0.03411    0.05857
 23 Li    0.00510    0.05498   -0.08934
 24 Li   -0.00252    0.01445    0.04469
 25 Li    0.00561    0.02300    0.05230
 26 Li   -0.00160   -0.00389    0.05855
 27 Li    0.00111   -0.11571   -0.14050
 28 Li    0.03685   -0.02444   -0.08965
 29 Li   -0.02162   -0.05874   -0.02829
 30 Li   -0.17496    0.00219   -0.13998
 31 Li    0.04338    0.04254   -0.13410
 32 Li    0.13510    0.06643    0.16106
 33 Li    0.03583    0.03955   -0.03707
 34 Li   -0.00718   -0.00866   -0.00846
 35 Li   -0.02677    0.05502   -0.02399
 36 O     2.02636   -0.96116   12.35759
 37 C     0.24937   -0.03541    0.32083
 38 C     1.73332   -0.54361    3.34351
 39 C    -0.04428   -0.05853    0.16232
 40 H     0.09449   -0.13929   -0.02749
 41 H     0.07973   -0.08364    0.07568
 42 H     0.28906    0.27705    0.33347
 43 H     0.65106    0.18053    1.45689
 44 H    -0.00595    0.02371    0.01937
 45 H     0.02345   -0.04399   -0.01438
 46 H    -0.05332    0.00553    0.01181
 47 H    -0.43132   -4.96521    3.04823
 48 N    -1.86553   -1.99626  -13.37943
 49 N    -2.79219    8.29819   -7.28045

System changes: positions 

Initializing position-dependent things.

Density initialized from wave functions
       .-----------------------.  
      /|                       |  
     / |                       |  
    /  |                       |  
   /   |                       |  
  /    |                       |  
 *     |                       |  
 |     |                       |  
 |     |                       |  
 |     |                       |  
 |     |                       |  
 |     |                       |  
 |     |                       |  
 |     |H      Li      Li H    Li 
 | H   |C             O   C    |  
 |  CLi|HH   Li      Li   H    |  
 | H   |              HN       |  
 |     |  LLi     LLi N   LLi  |  
 |     |                       |  
 |     |Li      Li      Li     |  
 |   Li|     Li      Li        |  
 |    Li  Li  Li  Li  Li  Li   |  
 | Li  |   Li      Li          |  
 |     |Li      Li      Li     |  
 Li    | Li      Li            |  
 |    Li      Li      Li       |  
 |     |                       |  
 |     |                       |  
 |     |                       |  
 |     |                       |  
 |     |                       |  
 |     |                       |  
 |     .-----------------------.  
 |    /                       /   
 |   /                       /    
 |  /                       /     
 | /                       /      
 |/                       /       
 *-----------------------*        

Positions:
   0 Li     1.617037    1.617037   10.000000    ( 0.0000,  0.0000,  0.0000)
   1 Li     4.851111    1.617037   10.000000    ( 0.0000,  0.0000,  0.0000)
   2 Li     8.085185    1.617037   10.000000    ( 0.0000,  0.0000,  0.0000)
   3 Li     1.617037    4.851111   10.000000    ( 0.0000,  0.0000,  0.0000)
   4 Li     4.851111    4.851111   10.000000    ( 0.0000,  0.0000,  0.0000)
   5 Li     8.085185    4.851111   10.000000    ( 0.0000,  0.0000,  0.0000)
   6 Li     1.617037    8.085185   10.000000    ( 0.0000,  0.0000,  0.0000)
   7 Li     4.851111    8.085185   10.000000    ( 0.0000,  0.0000,  0.0000)
   8 Li     8.085185    8.085185   10.000000    ( 0.0000,  0.0000,  0.0000)
   9 Li     0.000000    0.000000   11.617037    ( 0.0000,  0.0000,  0.0000)
  10 Li     3.234074    0.000000   11.617037    ( 0.0000,  0.0000,  0.0000)
  11 Li     6.468148    0.000000   11.617037    ( 0.0000,  0.0000,  0.0000)
  12 Li     0.000000    3.234074   11.617037    ( 0.0000,  0.0000,  0.0000)
  13 Li     3.234074    3.234074   11.617037    ( 0.0000,  0.0000,  0.0000)
  14 Li     6.468148    3.234074   11.617037    ( 0.0000,  0.0000,  0.0000)
  15 Li     0.000000    6.468148   11.617037    ( 0.0000,  0.0000,  0.0000)
  16 Li     3.234074    6.468148   11.617037    ( 0.0000,  0.0000,  0.0000)
  17 Li     6.468148    6.468148   11.617037    ( 0.0000,  0.0000,  0.0000)
  18 Li     1.616994    1.617143   13.469890    ( 0.0000,  0.0000,  0.0000)
  19 Li     4.851047    1.617131   13.469991    ( 0.0000,  0.0000,  0.0000)
  20 Li     8.085359    1.616743   13.467729    ( 0.0000,  0.0000,  0.0000)
  21 Li     1.616701    4.850739   13.470515    ( 0.0000,  0.0000,  0.0000)
  22 Li     4.851391    4.850723   13.470361    ( 0.0000,  0.0000,  0.0000)
  23 Li     8.085246    4.851715   13.468722    ( 0.0000,  0.0000,  0.0000)
  24 Li     1.617000    8.085332   13.470218    ( 0.0000,  0.0000,  0.0000)
  25 Li     4.851194    8.085446   13.470318    ( 0.0000,  0.0000,  0.0000)
  26 Li     8.085165    8.085113   13.470317    ( 0.0000,  0.0000,  0.0000)
  27 Li    -0.000203   -0.000925   15.444831    ( 0.0000,  0.0000,  0.0000)
  28 Li     3.234456   -0.000292   15.444981    ( 0.0000,  0.0000,  0.0000)
  29 Li     6.468210   -0.000300   15.446018    ( 0.0000,  0.0000,  0.0000)
  30 Li    -0.002025    3.233712   15.445073    ( 0.0000,  0.0000,  0.0000)
  31 Li     3.234536    3.234554   15.444516    ( 0.0000,  0.0000,  0.0000)
  32 Li     6.469759    3.234580   15.448161    ( 0.0000,  0.0000,  0.0000)
  33 Li     0.000406    6.468545   15.445527    ( 0.0000,  0.0000,  0.0000)
  34 Li     3.234008    6.468067   15.445826    ( 0.0000,  0.0000,  0.0000)
  35 Li     6.467825    6.468735   15.445667    ( 0.0000,  0.0000,  0.0000)
  36 O      8.108500    1.602984   18.540198    ( 0.0000,  0.0000,  0.0000)
  37 C     10.523263    1.229146   18.449533    ( 0.0000,  0.0000,  0.0000)
  38 C      9.388518    2.231880   18.466472    ( 0.0000,  0.0000,  0.0000)
  39 C     11.899700    1.890773   18.453738    ( 0.0000,  0.0000,  0.0000)
  40 H     10.401954    0.584929   19.322901    ( 0.0000,  0.0000,  0.0000)
  41 H     10.426170    0.586954   17.561020    ( 0.0000,  0.0000,  0.0000)
  42 H      9.405379    2.864365   19.340592    ( 0.0000,  0.0000,  0.0000)
  43 H      9.476659    2.908087   17.583270    ( 0.0000,  0.0000,  0.0000)
  44 H     12.033245    2.518172   19.338069    ( 0.0000,  0.0000,  0.0000)
  45 H     12.697409    1.146706   18.452850    ( 0.0000,  0.0000,  0.0000)
  46 H     12.040740    2.527438   17.574054    ( 0.0000,  0.0000,  0.0000)
  47 H      8.033419    1.021056   17.702471    ( 0.0000,  0.0000,  0.0000)
  48 N      8.065594    1.615846   16.831121    ( 0.0000,  0.0000,  0.0000)
  49 N      8.057037    2.753432   16.882638    ( 0.0000,  0.0000,  0.0000)

Unit cell:
           periodic     x           y           z      points  spacing
  1. axis:    yes    9.702222    0.000000    0.000000    60     0.1617
  2. axis:    yes    0.000000    9.702222    0.000000    60     0.1617
  3. axis:    no     0.000000    0.000000   26.351111   164     0.1607

  Lengths:   9.702222   9.702222  26.351111
  Angles:   90.000000  90.000000  90.000000

Effective grid spacing dv^(1/3) = 0.1614

     iter     time        total  log10-change:
                         energy  eigst   dens
iter:   1 19:02:49  -327.414282  -0.80
iter:   2 19:02:57  -327.474486  -1.05  -1.54
iter:   3 19:03:04  -327.233300  -1.07  -1.43
iter:   4 19:03:11  -327.218189  -1.72  -1.89
Writing to output.gpw (mode='')

iter:   5 19:03:19  -327.232709c -1.42  -2.18
iter:   6 19:03:26  -327.215168c -1.83  -1.94
iter:   7 19:03:34  -327.221149c -1.88  -2.21
iter:   8 19:03:41  -327.218698c -2.33  -2.26
iter:   9 19:03:48  -327.212360c -2.32  -2.28
Writing to output.gpw (mode='')

iter:  10 19:03:56  -327.211507c -2.92  -2.39
iter:  11 19:04:03  -327.211255c -3.17  -2.79
iter:  12 19:04:10  -327.211271c -2.97  -2.93
iter:  13 19:04:24  -327.211298c -3.20  -3.03
iter:  14 19:04:32  -327.211397c -3.68  -3.04
Writing to output.gpw (mode='')

iter:  15 19:04:39  -327.211421c -3.71  -3.19
iter:  16 19:04:47  -327.211476c -3.60  -3.35
iter:  17 19:04:54  -327.211488c -4.10  -3.32
iter:  18 19:05:01  -327.211521c -4.23  -3.58
iter:  19 19:05:09  -327.211476c -4.28  -3.65
Writing to output.gpw (mode='')

iter:  20 19:05:16  -327.211512c -4.62  -3.66
iter:  21 19:05:23  -327.211553c -4.51  -3.68
iter:  22 19:05:31  -327.211520c -4.52  -3.72
iter:  23 19:05:38  -327.211539c -4.66  -3.72
iter:  24 19:05:45  -327.211555c -4.65  -3.76
Writing to output.gpw (mode='')

iter:  25 19:05:53  -327.211573c -4.79  -3.82
iter:  26 19:06:00  -327.211572c -5.05  -4.04c
iter:  27 19:06:07  -327.211568c -5.10  -4.14c
iter:  28 19:06:15  -327.211563c -5.19  -4.25c
iter:  29 19:06:22  -327.211566c -5.31  -4.30c
Writing to output.gpw (mode='')

iter:  30 19:06:30  -327.211558c -5.56  -4.17c
iter:  31 19:06:37  -327.211564c -5.63  -4.34c
iter:  32 19:06:44  -327.211565c -5.71  -4.34c
iter:  33 19:06:52  -327.211562c -5.70  -4.39c
iter:  34 19:06:59  -327.211567c -6.07  -4.48c
Writing to output.gpw (mode='')

iter:  35 19:07:06  -327.211561c -5.86  -4.75c
iter:  36 19:07:14  -327.211565c -6.30  -4.83c
iter:  37 19:07:21  -327.211567c -6.17  -4.89c
iter:  38 19:07:29  -327.211567c -6.38  -4.89c
iter:  39 19:07:38  -327.211567c -6.51  -4.88c
Writing to output.gpw (mode='')

iter:  40 19:07:46  -327.211566c -6.71  -4.87c
iter:  41 19:07:53  -327.211565c -6.52  -4.86c
iter:  42 19:08:01  -327.211565c -6.68  -4.86c
iter:  43 19:08:08  -327.211567c -6.64  -4.87c
iter:  44 19:08:16  -327.211566c -6.91  -4.92c
Writing to output.gpw (mode='')

iter:  45 19:08:23  -327.211566c -7.21  -5.08c
iter:  46 19:08:31  -327.211566c -7.21  -5.09c
iter:  47 19:08:38  -327.211565c -7.07  -5.11c
iter:  48 19:08:45  -327.211567c -7.40c -5.12c

Converged after 48 iterations.

Dipole moment: (10.168150, -5.156504, 0.045154) |e|*Ang

Energy contributions relative to reference atoms: (reference = -15487.462483)

Kinetic:       +201.391734
Potential:     -183.023733
External:        +0.000000
XC:            -346.283070
Entropy (-ST):   -0.180166
Local:           +0.793585
--------------------------
Free energy:   -327.301650
Extrapolated:  -327.211567

Dipole-layer corrected work functions: 3.409482, 3.322680 eV

Showing only first 2 kpts
 Kpt  Band  Eigenvalues  Occupancy
  0    34     -3.59296    1.97883
  0    35     -3.50757    1.88854
  0    36     -3.32736    0.63109
  0    37     -3.11555    0.01325

  1    34     -3.39227    1.25611
  1    35     -3.35346    0.87447
  1    36     -3.31751    0.54917
  1    37     -3.27986    0.30260


Fermi level: -3.36608

No gap
Writing to output.gpw (mode='')


Forces in eV/Ang:
  0 Li    0.01892    0.00356   -0.27466
  1 Li   -0.01988    0.00577   -0.27578
  2 Li   -0.00048   -0.00669   -0.28344
  3 Li    0.01005    0.00230   -0.27537
  4 Li   -0.01193    0.00043   -0.28251
  5 Li    0.00080    0.01682   -0.28077
  6 Li    0.00221   -0.00268   -0.27844
  7 Li   -0.00162   -0.00015   -0.27627
  8 Li    0.00248   -0.01267   -0.26795
  9 Li   -0.00558   -0.00685    0.29292
 10 Li   -0.00199    0.01297    0.24454
 11 Li    0.00516   -0.00169    0.28800
 12 Li   -0.01046    0.00160    0.31310
 13 Li    0.00001   -0.00778    0.22767
 14 Li    0.01478   -0.00655    0.32742
 15 Li   -0.00286    0.01573    0.24009
 16 Li   -0.00060   -0.01112    0.26640
 17 Li   -0.00015    0.01010    0.25187
 18 Li   -0.00503    0.00941    0.01707
 19 Li   -0.00437    0.00830    0.02651
 20 Li    0.01581   -0.02721   -0.17759
 21 Li   -0.03053   -0.03446    0.07166
 22 Li    0.02504   -0.03529    0.05785
 23 Li    0.00567    0.05455   -0.08722
 24 Li   -0.00342    0.01249    0.04465
 25 Li    0.00772    0.02340    0.05356
 26 Li   -0.00181   -0.00593    0.05222
 27 Li   -0.01946   -0.09050   -0.11055
 28 Li    0.03527   -0.02572   -0.08744
 29 Li    0.00522   -0.03401    0.00177
 30 Li   -0.17989   -0.02781   -0.09645
 31 Li    0.04258    0.04287   -0.13047
 32 Li    0.13286    0.05958    0.17704
 33 Li    0.03578    0.03356   -0.03754
 34 Li   -0.00600   -0.00658   -0.00962
 35 Li   -0.02816    0.05220   -0.02539
 36 O     2.01886   -0.82757   10.59580
 37 C     0.26990   -0.03992    0.30439
 38 C     1.35948   -0.53240    2.91502
 39 C    -0.00542   -0.05038    0.14994
 40 H     0.11425   -0.15981   -0.01074
 41 H     0.06677   -0.05391    0.09651
 42 H     0.31705    0.30924    0.38566
 43 H     0.51367    0.11646    1.38986
 44 H     0.00121    0.02143    0.01883
 45 H     0.04452   -0.04267   -0.01151
 46 H    -0.05287    0.00132    0.01846
 47 H    -0.41145   -3.83792    2.79458
 48 N    -1.76055   -0.73602  -12.06591
 49 N    -2.51712    5.75876   -6.22923

System changes: positions 

Initializing position-dependent things.

Density initialized from wave functions
       .-----------------------.  
      /|                       |  
     / |                       |  
    /  |                       |  
   /   |                       |  
  /    |                       |  
 *     |                       |  
 |     |                       |  
 |     |                       |  
 |     |                       |  
 |     |                       |  
 |     |                       |  
 |     |                       |  
 |     |H      Li      Li H    Li 
 | H   |C             O   C    |  
 |  CLi|HH   Li      Li   H    |  
 | H   |              HN       |  
 |     |  LLi     LLi N   LLi  |  
 |     |                       |  
 |     |Li      Li      Li     |  
 |   Li|     Li      Li        |  
 |    Li  Li  Li  Li  Li  Li   |  
 | Li  |   Li      Li          |  
 |     |Li      Li      Li     |  
 Li    | Li      Li            |  
 |    Li      Li      Li       |  
 |     |                       |  
 |     |                       |  
 |     |                       |  
 |     |                       |  
 |     |                       |  
 |     |                       |  
 |     .-----------------------.  
 |    /                       /   
 |   /                       /    
 |  /                       /     
 | /                       /      
 |/                       /       
 *-----------------------*        

Positions:
   0 Li     1.617037    1.617037   10.000000    ( 0.0000,  0.0000,  0.0000)
   1 Li     4.851111    1.617037   10.000000    ( 0.0000,  0.0000,  0.0000)
   2 Li     8.085185    1.617037   10.000000    ( 0.0000,  0.0000,  0.0000)
   3 Li     1.617037    4.851111   10.000000    ( 0.0000,  0.0000,  0.0000)
   4 Li     4.851111    4.851111   10.000000    ( 0.0000,  0.0000,  0.0000)
   5 Li     8.085185    4.851111   10.000000    ( 0.0000,  0.0000,  0.0000)
   6 Li     1.617037    8.085185   10.000000    ( 0.0000,  0.0000,  0.0000)
   7 Li     4.851111    8.085185   10.000000    ( 0.0000,  0.0000,  0.0000)
   8 Li     8.085185    8.085185   10.000000    ( 0.0000,  0.0000,  0.0000)
   9 Li     0.000000    0.000000   11.617037    ( 0.0000,  0.0000,  0.0000)
  10 Li     3.234074    0.000000   11.617037    ( 0.0000,  0.0000,  0.0000)
  11 Li     6.468148    0.000000   11.617037    ( 0.0000,  0.0000,  0.0000)
  12 Li     0.000000    3.234074   11.617037    ( 0.0000,  0.0000,  0.0000)
  13 Li     3.234074    3.234074   11.617037    ( 0.0000,  0.0000,  0.0000)
  14 Li     6.468148    3.234074   11.617037    ( 0.0000,  0.0000,  0.0000)
  15 Li     0.000000    6.468148   11.617037    ( 0.0000,  0.0000,  0.0000)
  16 Li     3.234074    6.468148   11.617037    ( 0.0000,  0.0000,  0.0000)
  17 Li     6.468148    6.468148   11.617037    ( 0.0000,  0.0000,  0.0000)
  18 Li     1.616989    1.617187   13.469922    ( 0.0000,  0.0000,  0.0000)
  19 Li     4.850997    1.617179   13.470090    ( 0.0000,  0.0000,  0.0000)
  20 Li     8.085462    1.616572   13.466808    ( 0.0000,  0.0000,  0.0000)
  21 Li     1.616526    4.850535   13.470892    ( 0.0000,  0.0000,  0.0000)
  22 Li     4.851527    4.850502   13.470696    ( 0.0000,  0.0000,  0.0000)
  23 Li     8.085288    4.852016   13.468259    ( 0.0000,  0.0000,  0.0000)
  24 Li     1.616974    8.085378   13.470470    ( 0.0000,  0.0000,  0.0000)
  25 Li     4.851258    8.085583   13.470636    ( 0.0000,  0.0000,  0.0000)
  26 Li     8.085152    8.085063   13.470551    ( 0.0000,  0.0000,  0.0000)
  27 Li    -0.000493   -0.001184   15.444512    ( 0.0000,  0.0000,  0.0000)
  28 Li     3.234638   -0.000445   15.444519    ( 0.0000,  0.0000,  0.0000)
  29 Li     6.468508   -0.000246   15.446316    ( 0.0000,  0.0000,  0.0000)
  30 Li    -0.002836    3.233208   15.444980    ( 0.0000,  0.0000,  0.0000)
  31 Li     3.234770    3.234795   15.443830    ( 0.0000,  0.0000,  0.0000)
  32 Li     6.470285    3.234874   15.449231    ( 0.0000,  0.0000,  0.0000)
  33 Li     0.000594    6.468653   15.445311    ( 0.0000,  0.0000,  0.0000)
  34 Li     3.233991    6.468053   15.445755    ( 0.0000,  0.0000,  0.0000)
  35 Li     6.467661    6.468999   15.445504    ( 0.0000,  0.0000,  0.0000)
  36 O      8.120717    1.595553   18.561616    ( 0.0000,  0.0000,  0.0000)
  37 C     10.525735    1.228979   18.451278    ( 0.0000,  0.0000,  0.0000)
  38 C      9.388420    2.228116   18.475435    ( 0.0000,  0.0000,  0.0000)
  39 C     11.900315    1.890379   18.454305    ( 0.0000,  0.0000,  0.0000)
  40 H     10.402800    0.583763   19.323037    ( 0.0000,  0.0000,  0.0000)
  41 H     10.426292    0.587026   17.561757    ( 0.0000,  0.0000,  0.0000)
  42 H      9.408155    2.867431   19.344512    ( 0.0000,  0.0000,  0.0000)
  43 H      9.478102    2.907694   17.591207    ( 0.0000,  0.0000,  0.0000)
  44 H     12.033299    2.518266   19.338188    ( 0.0000,  0.0000,  0.0000)
  45 H     12.697891    1.146542   18.452822    ( 0.0000,  0.0000,  0.0000)
  46 H     12.040428    2.527375   17.574278    ( 0.0000,  0.0000,  0.0000)
  47 H      8.032815    1.032382   17.712996    ( 0.0000,  0.0000,  0.0000)
  48 N      8.056163    1.615980   16.792249    ( 0.0000,  0.0000,  0.0000)
  49 N      8.046056    2.751907   16.866283    ( 0.0000,  0.0000,  0.0000)

Unit cell:
           periodic     x           y           z      points  spacing
  1. axis:    yes    9.702222    0.000000    0.000000    60     0.1617
  2. axis:    yes    0.000000    9.702222    0.000000    60     0.1617
  3. axis:    no     0.000000    0.000000   26.351111   164     0.1607

  Lengths:   9.702222   9.702222  26.351111
  Angles:   90.000000  90.000000  90.000000

Effective grid spacing dv^(1/3) = 0.1614

     iter     time        total  log10-change:
                         energy  eigst   dens
iter:   1 19:08:54  -328.102346  -0.93
iter:   2 19:09:02  -328.109966  -1.25  -1.88
iter:   3 19:09:09  -328.074457c -1.97  -1.77
iter:   4 19:09:22  -328.069107  -2.06  -2.31
Writing to output.gpw (mode='')

iter:   5 19:09:31  -328.066496c -2.03  -2.37
iter:   6 19:09:38  -328.068540c -2.48  -2.25
iter:   7 19:09:45  -328.064567c -2.47  -2.39
iter:   8 19:09:53  -328.063084c -2.74  -2.70
iter:   9 19:10:00  -328.063122c -3.12  -2.95
Writing to output.gpw (mode='')

iter:  10 19:10:07  -328.063525c -3.52  -2.98
iter:  11 19:10:15  -328.063210c -3.35  -3.01
iter:  12 19:10:22  -328.063359c -3.49  -3.11
iter:  13 19:10:30  -328.063354c -3.93  -3.34
iter:  14 19:10:37  -328.063434c -3.79  -3.35
Writing to output.gpw (mode='')

iter:  15 19:10:44  -328.063410c -4.29  -3.50
iter:  16 19:10:52  -328.063387c -4.45  -3.57
iter:  17 19:10:59  -328.063398c -4.26  -3.61
iter:  18 19:11:07  -328.063391c -4.64  -3.58
iter:  19 19:11:14  -328.063386c -4.52  -3.59
Writing to output.gpw (mode='')

iter:  20 19:11:21  -328.063401c -4.38  -3.57
iter:  21 19:11:29  -328.063380c -4.58  -3.60
iter:  22 19:11:36  -328.063381c -4.91  -3.56
iter:  23 19:11:43  -328.063372c -5.04  -3.55
iter:  24 19:11:51  -328.063378c -5.33  -3.53
Writing to output.gpw (mode='')

iter:  25 19:11:58  -328.063397c -5.20  -3.54
iter:  26 19:12:05  -328.063412c -5.27  -3.59
iter:  27 19:12:13  -328.063392c -5.25  -3.64
iter:  28 19:12:20  -328.063486c -5.16  -3.69
iter:  29 19:12:27  -328.063437c -5.43  -3.74
Writing to output.gpw (mode='')

iter:  30 19:12:35  -328.063442c -5.55  -4.04c
iter:  31 19:12:42  -328.063458c -5.62  -4.08c
iter:  32 19:12:50  -328.063424c -5.55  -4.08c
iter:  33 19:13:01  -328.063433c -6.21  -4.31c
iter:  34 19:13:17  -328.063439c -5.99  -4.46c
Writing to output.gpw (mode='')

iter:  35 19:13:27  -328.063437c -6.07  -4.58c
iter:  36 19:13:35  -328.063436c -6.32  -4.68c
iter:  37 19:13:42  -328.063438c -6.46  -4.75c
iter:  38 19:13:50  -328.063433c -6.56  -4.93c
iter:  39 19:13:57  -328.063433c -6.51  -4.97c
Writing to output.gpw (mode='')

iter:  40 19:14:04  -328.063436c -6.71  -5.14c
iter:  41 19:14:12  -328.063437c -6.81  -5.32c
iter:  42 19:14:25  -328.063436c -6.96  -5.35c
iter:  43 19:14:32  -328.063436c -7.01  -5.41c
iter:  44 19:14:40  -328.063435c -6.89  -5.49c
Writing to output.gpw (mode='')

iter:  45 19:14:47  -328.063436c -7.13  -5.62c
iter:  46 19:14:54  -328.063436c -7.08  -5.76c
iter:  47 19:15:02  -328.063436c -7.48c -5.80c

Converged after 47 iterations.

Dipole moment: (10.188346, -5.080939, 0.022368) |e|*Ang

Energy contributions relative to reference atoms: (reference = -15487.462483)

Kinetic:       +198.488943
Potential:     -181.351413
External:        +0.000000
XC:            -345.907543
Entropy (-ST):   -0.178384
Local:           +0.795769
--------------------------
Free energy:   -328.152628
Extrapolated:  -328.063436

Dipole-layer corrected work functions: 3.411074, 3.368075 eV

Showing only first 2 kpts
 Kpt  Band  Eigenvalues  Occupancy
  0    34     -3.61499    1.97821
  0    35     -3.53261    1.89174
  0    36     -3.34863    0.61198
  0    37     -3.14154    0.01392

  1    34     -3.41478    1.24684
  1    35     -3.37420    0.84745
  1    36     -3.34944    0.61890
  1    37     -3.29872    0.27956


Fermi level: -3.38957

No gap
Writing to output.gpw (mode='')


Forces in eV/Ang:
  0 Li    0.01966    0.00355   -0.27503
  1 Li   -0.02082    0.00603   -0.27627
  2 Li   -0.00044   -0.00629   -0.28286
  3 Li    0.00973    0.00347   -0.27538
  4 Li   -0.01130    0.00158   -0.28289
  5 Li    0.00065    0.01739   -0.28071
  6 Li    0.00283   -0.00193   -0.27962
  7 Li   -0.00220    0.00037   -0.27702
  8 Li    0.00258   -0.01410   -0.26795
  9 Li   -0.00540   -0.00643    0.29233
 10 Li   -0.00237    0.01231    0.24493
 11 Li    0.00521   -0.00105    0.28774
 12 Li   -0.01106    0.00164    0.31377
 13 Li    0.00005   -0.00866    0.22769
 14 Li    0.01569   -0.00646    0.32890
 15 Li   -0.00316    0.01753    0.23937
 16 Li   -0.00060   -0.01300    0.26493
 17 Li   -0.00025    0.01062    0.25116
 18 Li   -0.00501    0.00867    0.01574
 19 Li   -0.00440    0.00814    0.02617
 20 Li    0.01653   -0.02845   -0.16818
 21 Li   -0.02999   -0.03530    0.06975
 22 Li    0.02408   -0.03635    0.05837
 23 Li    0.00581    0.05266   -0.08019
 24 Li   -0.00378    0.01012    0.04452
 25 Li    0.00891    0.02288    0.05399
 26 Li   -0.00194   -0.00633    0.04775
 27 Li   -0.02864   -0.08187   -0.10358
 28 Li    0.03459   -0.02486   -0.08498
 29 Li    0.01772   -0.02667    0.00928
 30 Li   -0.16146   -0.03978   -0.08856
 31 Li    0.04241    0.04190   -0.12744
 32 Li    0.10406    0.06801    0.15532
 33 Li    0.03324    0.02741   -0.03749
 34 Li   -0.00479   -0.00487   -0.01010
 35 Li   -0.02680    0.04896   -0.02664
 36 O     1.81901   -0.84876    9.13139
 37 C     0.27089   -0.02341    0.28594
 38 C     1.17680   -0.46571    2.61111
 39 C     0.02338   -0.04629    0.13753
 40 H     0.12626   -0.17158   -0.00095
 41 H     0.05779   -0.03774    0.10363
 42 H     0.33807    0.31109    0.39031
 43 H     0.44626    0.08100    1.32468
 44 H     0.00816    0.02122    0.02230
 45 H     0.06141   -0.04023   -0.00963
 46 H    -0.05100   -0.00202    0.02274
 47 H    -0.36897   -2.89416    2.57200
 48 N    -1.67666   -1.19270  -10.87109
 49 N    -2.30767    5.21769   -5.36734

System changes: positions 

Initializing position-dependent things.

Density initialized from wave functions
       .-----------------------.  
      /|                       |  
     / |                       |  
    /  |                       |  
   /   |                       |  
  /    |                       |  
 *     |                       |  
 |     |                       |  
 |     |                       |  
 |     |                       |  
 |     |                       |  
 |     |                       |  
 |     |                       |  
 |     |H      Li      Li H    Li 
 | H   |C             O   C    |  
 |  CLi|HH   Li      Li   H    |  
 | H   |              HN       |  
 |     |  LLi     LLi N   LLi  |  
 |     |                       |  
 |     |Li      Li      Li     |  
 |   Li|     Li      Li        |  
 |    Li  Li  Li  Li  Li  Li   |  
 | Li  |   Li      Li          |  
 |     |Li      Li      Li     |  
 Li    | Li      Li            |  
 |    Li      Li      Li       |  
 |     |                       |  
 |     |                       |  
 |     |                       |  
 |     |                       |  
 |     |                       |  
 |     |                       |  
 |     .-----------------------.  
 |    /                       /   
 |   /                       /    
 |  /                       /     
 | /                       /      
 |/                       /       
 *-----------------------*        

Positions:
   0 Li     1.617037    1.617037   10.000000    ( 0.0000,  0.0000,  0.0000)
   1 Li     4.851111    1.617037   10.000000    ( 0.0000,  0.0000,  0.0000)
   2 Li     8.085185    1.617037   10.000000    ( 0.0000,  0.0000,  0.0000)
   3 Li     1.617037    4.851111   10.000000    ( 0.0000,  0.0000,  0.0000)
   4 Li     4.851111    4.851111   10.000000    ( 0.0000,  0.0000,  0.0000)
   5 Li     8.085185    4.851111   10.000000    ( 0.0000,  0.0000,  0.0000)
   6 Li     1.617037    8.085185   10.000000    ( 0.0000,  0.0000,  0.0000)
   7 Li     4.851111    8.085185   10.000000    ( 0.0000,  0.0000,  0.0000)
   8 Li     8.085185    8.085185   10.000000    ( 0.0000,  0.0000,  0.0000)
   9 Li     0.000000    0.000000   11.617037    ( 0.0000,  0.0000,  0.0000)
  10 Li     3.234074    0.000000   11.617037    ( 0.0000,  0.0000,  0.0000)
  11 Li     6.468148    0.000000   11.617037    ( 0.0000,  0.0000,  0.0000)
  12 Li     0.000000    3.234074   11.617037    ( 0.0000,  0.0000,  0.0000)
  13 Li     3.234074    3.234074   11.617037    ( 0.0000,  0.0000,  0.0000)
  14 Li     6.468148    3.234074   11.617037    ( 0.0000,  0.0000,  0.0000)
  15 Li     0.000000    6.468148   11.617037    ( 0.0000,  0.0000,  0.0000)
  16 Li     3.234074    6.468148   11.617037    ( 0.0000,  0.0000,  0.0000)
  17 Li     6.468148    6.468148   11.617037    ( 0.0000,  0.0000,  0.0000)
  18 Li     1.616981    1.617231   13.469955    ( 0.0000,  0.0000,  0.0000)
  19 Li     4.850943    1.617231   13.470209    ( 0.0000,  0.0000,  0.0000)
  20 Li     8.085587    1.616366   13.465852    ( 0.0000,  0.0000,  0.0000)
  21 Li     1.616333    4.850290   13.471311    ( 0.0000,  0.0000,  0.0000)
  22 Li     4.851671    4.850239   13.471086    ( 0.0000,  0.0000,  0.0000)
  23 Li     8.085335    4.852342   13.467803    ( 0.0000,  0.0000,  0.0000)
  24 Li     1.616941    8.085406   13.470761    ( 0.0000,  0.0000,  0.0000)
  25 Li     4.851344    8.085734   13.471007    ( 0.0000,  0.0000,  0.0000)
  26 Li     8.085136    8.085002   13.470779    ( 0.0000,  0.0000,  0.0000)
  27 Li    -0.000915   -0.001425   15.444167    ( 0.0000,  0.0000,  0.0000)
  28 Li     3.234844   -0.000610   15.444006    ( 0.0000,  0.0000,  0.0000)
  29 Li     6.468958   -0.000137   15.446700    ( 0.0000,  0.0000,  0.0000)
  30 Li    -0.003643    3.232552   15.444879    ( 0.0000,  0.0000,  0.0000)
  31 Li     3.235039    3.235064   15.443060    ( 0.0000,  0.0000,  0.0000)
  32 Li     6.470620    3.235322   15.450207    ( 0.0000,  0.0000,  0.0000)
  33 Li     0.000786    6.468722   15.445062    ( 0.0000,  0.0000,  0.0000)
  34 Li     3.233983    6.468054   15.445671    ( 0.0000,  0.0000,  0.0000)
  35 Li     6.467486    6.469271   15.445305    ( 0.0000,  0.0000,  0.0000)
  36 O      8.131900    1.587856   18.579143    ( 0.0000,  0.0000,  0.0000)
  37 C     10.528288    1.228983   18.453036    ( 0.0000,  0.0000,  0.0000)
  38 C      9.388376    2.224864   18.484250    ( 0.0000,  0.0000,  0.0000)
  39 C     11.901203    1.890008   18.454894    ( 0.0000,  0.0000,  0.0000)
  40 H     10.403886    0.582335   19.323266    ( 0.0000,  0.0000,  0.0000)
  41 H     10.426397    0.587210   17.562654    ( 0.0000,  0.0000,  0.0000)
  42 H      9.411329    2.870561   19.348519    ( 0.0000,  0.0000,  0.0000)
  43 H      9.479257    2.907115   17.599396    ( 0.0000,  0.0000,  0.0000)
  44 H     12.033444    2.518382   19.338367    ( 0.0000,  0.0000,  0.0000)
  45 H     12.698608    1.146359   18.452804    ( 0.0000,  0.0000,  0.0000)
  46 H     12.040098    2.527286   17.574550    ( 0.0000,  0.0000,  0.0000)
  47 H      8.032036    1.047110   17.723905    ( 0.0000,  0.0000,  0.0000)
  48 N      8.046329    1.611370   16.753751    ( 0.0000,  0.0000,  0.0000)
  49 N      8.035199    2.751282   16.852822    ( 0.0000,  0.0000,  0.0000)

Unit cell:
           periodic     x           y           z      points  spacing
  1. axis:    yes    9.702222    0.000000    0.000000    60     0.1617
  2. axis:    yes    0.000000    9.702222    0.000000    60     0.1617
  3. axis:    no     0.000000    0.000000   26.351111   164     0.1607

  Lengths:   9.702222   9.702222  26.351111
  Angles:   90.000000  90.000000  90.000000

Effective grid spacing dv^(1/3) = 0.1614

     iter     time        total  log10-change:
                         energy  eigst   dens
iter:   1 19:15:11  -328.779993  -1.01
iter:   2 19:15:18  -328.780231  -1.68  -2.19
iter:   3 19:15:25  -328.781344c -2.09  -2.38
iter:   4 19:15:33  -328.780118c -2.27  -2.42
Writing to output.gpw (mode='')

iter:   5 19:15:40  -328.776926c -2.27  -2.49
iter:   6 19:15:47  -328.775912c -2.40  -2.62
iter:   7 19:15:55  -328.777188c -2.60  -2.75
iter:   8 19:16:02  -328.775736c -2.85  -2.73
iter:   9 19:16:10  -328.775946c -3.52  -2.88
Writing to output.gpw (mode='')

iter:  10 19:16:17  -328.775930c -3.32  -3.01
iter:  11 19:16:24  -328.776061c -3.67  -3.15
iter:  12 19:16:32  -328.775960c -3.82  -3.15
iter:  13 19:16:39  -328.775999c -3.95  -3.47
iter:  14 19:16:46  -328.776008c -3.96  -3.43
Writing to output.gpw (mode='')

iter:  15 19:16:54  -328.775996c -4.24  -3.66
iter:  16 19:17:01  -328.776076c -4.50  -3.67
iter:  17 19:17:09  -328.776046c -4.64  -3.67
iter:  18 19:17:16  -328.776054c -4.93  -3.85
iter:  19 19:17:23  -328.776043c -4.70  -3.91
Writing to output.gpw (mode='')

iter:  20 19:17:31  -328.776044c -5.13  -3.99
iter:  21 19:17:38  -328.776053c -5.12  -4.08c
iter:  22 19:17:45  -328.776050c -5.30  -4.17c
iter:  23 19:17:53  -328.776054c -5.23  -4.33c
iter:  24 19:18:00  -328.776055c -5.53  -4.45c
Writing to output.gpw (mode='')

iter:  25 19:18:07  -328.776065c -5.36  -4.47c
iter:  26 19:18:15  -328.776061c -5.61  -4.43c
iter:  27 19:18:22  -328.776058c -5.96  -4.55c
iter:  28 19:18:29  -328.776058c -6.00  -4.62c
iter:  29 19:18:37  -328.776057c -6.06  -4.76c
Writing to output.gpw (mode='')

iter:  30 19:18:44  -328.776060c -6.29  -4.85c
iter:  31 19:18:51  -328.776057c -6.48  -4.85c
iter:  32 19:18:59  -328.776059c -6.28  -4.99c
iter:  33 19:19:06  -328.776060c -6.36  -5.35c
iter:  34 19:19:14  -328.776060c -6.76  -5.37c
Writing to output.gpw (mode='')

iter:  35 19:19:27  -328.776060c -6.86  -5.47c
iter:  36 19:19:34  -328.776060c -6.86  -5.43c
iter:  37 19:19:42  -328.776060c -6.73  -5.55c
iter:  38 19:19:49  -328.776060c -7.13  -5.68c
iter:  39 19:19:56  -328.776060c -7.26  -5.59c
Writing to output.gpw (mode='')

iter:  40 19:20:04  -328.776060c -7.29  -5.53c
iter:  41 19:20:11  -328.776060c -7.30  -5.65c
iter:  42 19:20:18  -328.776060c -7.33  -5.75c
iter:  43 19:20:26  -328.776060c -7.55c -5.76c

Converged after 43 iterations.

Dipole moment: (10.201601, -5.001336, 0.000302) |e|*Ang

Energy contributions relative to reference atoms: (reference = -15487.462483)

Kinetic:       +195.471560
Potential:     -179.436188
External:        +0.000000
XC:            -345.520520
Entropy (-ST):   -0.177191
Local:           +0.797683
--------------------------
Free energy:   -328.864656
Extrapolated:  -328.776060

Dipole-layer corrected work functions: 3.412501, 3.411920 eV

Showing only first 2 kpts
 Kpt  Band  Eigenvalues  Occupancy
  0    34     -3.63530    1.97718
  0    35     -3.55562    1.89251
  0    36     -3.36999    0.60125
  0    37     -3.16695    0.01471

  1    34     -3.43790    1.25141
  1    35     -3.39423    0.82212
  1    36     -3.37887    0.67839
  1    37     -3.31689    0.25876


Fermi level: -3.41221

No gap
Writing to output.gpw (mode='')


Forces in eV/Ang:
  0 Li    0.02025    0.00357   -0.27553
  1 Li   -0.02148    0.00615   -0.27692
  2 Li   -0.00043   -0.00556   -0.28227
  3 Li    0.00958    0.00477   -0.27556
  4 Li   -0.01083    0.00279   -0.28324
  5 Li    0.00049    0.01754   -0.28069
  6 Li    0.00373   -0.00120   -0.28077
  7 Li   -0.00307    0.00083   -0.27778
  8 Li    0.00266   -0.01521   -0.26785
  9 Li   -0.00523   -0.00586    0.29216
 10 Li   -0.00289    0.01134    0.24522
 11 Li    0.00546   -0.00017    0.28814
 12 Li   -0.01153    0.00168    0.31453
 13 Li    0.00021   -0.00956    0.22776
 14 Li    0.01626   -0.00626    0.32998
 15 Li   -0.00336    0.01871    0.23898
 16 Li   -0.00049   -0.01455    0.26360
 17 Li   -0.00044    0.01091    0.25064
 18 Li   -0.00398    0.00784    0.01330
 19 Li   -0.00549    0.00761    0.02417
 20 Li    0.01695   -0.02867   -0.15431
 21 Li   -0.02877   -0.03625    0.06728
 22 Li    0.02263   -0.03717    0.05794
 23 Li    0.00561    0.05105   -0.07410
 24 Li   -0.00472    0.00810    0.04473
 25 Li    0.01053    0.02249    0.05450
 26 Li   -0.00204   -0.00787    0.04191
 27 Li   -0.04380   -0.06730   -0.09150
 28 Li    0.03366   -0.02464   -0.08293
 29 Li    0.03565   -0.01295    0.02350
 30 Li   -0.16052   -0.05407   -0.07223
 31 Li    0.04176    0.04142   -0.12478
 32 Li    0.08769    0.06982    0.14447
 33 Li    0.03146    0.02227   -0.03754
 34 Li   -0.00368   -0.00314   -0.01060
 35 Li   -0.02607    0.04555   -0.02752
 36 O     1.68251   -0.82753    8.00864
 37 C     0.25775   -0.01993    0.27459
 38 C     1.05663   -0.38781    2.31238
 39 C     0.04460   -0.04028    0.12818
 40 H     0.14067   -0.17896    0.00355
 41 H     0.04936   -0.02095    0.11020
 42 H     0.34844    0.30752    0.40015
 43 H     0.37310    0.04804    1.24047
 44 H     0.01670    0.02116    0.02521
 45 H     0.07702   -0.03805   -0.00757
 46 H    -0.04757   -0.00353    0.02531
 47 H    -0.36411   -2.30917    2.30309
 48 N    -1.51175   -1.03894   -9.75461
 49 N    -2.11691    4.37051   -4.82808

System changes: positions 

Initializing position-dependent things.

Density initialized from wave functions
       .-----------------------.  
      /|                       |  
     / |                       |  
    /  |                       |  
   /   |                       |  
  /    |                       |  
 *     |                       |  
 |     |                       |  
 |     |                       |  
 |     |                       |  
 |     |                       |  
 |     |                       |  
 |     |                       |  
 |     |H      Li         H    Li 
 | H   |C             O   C    |  
 |  CLi|HH   Li      Li   H    |  
 | H   |              HN       |  
 |     |  LLi     LLi N   LLi  |  
 |     |                       |  
 |     |Li      LLi     Li     |  
 |   Li|     Li      Li        |  
 |    Li  Li  Li  Li  Li  Li   |  
 | Li  |   Li      Li          |  
 |     |Li      Li      Li     |  
 Li    | Li      Li            |  
 |    Li      Li      Li       |  
 |     |                       |  
 |     |                       |  
 |     |                       |  
 |     |                       |  
 |     |                       |  
 |     |                       |  
 |     .-----------------------.  
 |    /                       /   
 |   /                       /    
 |  /                       /     
 | /                       /      
 |/                       /       
 *-----------------------*        

Positions:
   0 Li     1.617037    1.617037   10.000000    ( 0.0000,  0.0000,  0.0000)
   1 Li     4.851111    1.617037   10.000000    ( 0.0000,  0.0000,  0.0000)
   2 Li     8.085185    1.617037   10.000000    ( 0.0000,  0.0000,  0.0000)
   3 Li     1.617037    4.851111   10.000000    ( 0.0000,  0.0000,  0.0000)
   4 Li     4.851111    4.851111   10.000000    ( 0.0000,  0.0000,  0.0000)
   5 Li     8.085185    4.851111   10.000000    ( 0.0000,  0.0000,  0.0000)
   6 Li     1.617037    8.085185   10.000000    ( 0.0000,  0.0000,  0.0000)
   7 Li     4.851111    8.085185   10.000000    ( 0.0000,  0.0000,  0.0000)
   8 Li     8.085185    8.085185   10.000000    ( 0.0000,  0.0000,  0.0000)
   9 Li     0.000000    0.000000   11.617037    ( 0.0000,  0.0000,  0.0000)
  10 Li     3.234074    0.000000   11.617037    ( 0.0000,  0.0000,  0.0000)
  11 Li     6.468148    0.000000   11.617037    ( 0.0000,  0.0000,  0.0000)
[...]

Converged after 24 iterations.

Dipole moment: (7.520545, -4.149080, -0.097620) |e|*Ang

Energy contributions relative to reference atoms: (reference = -15487.462483)

Kinetic:       +166.505546
Potential:     -159.322305
External:        +0.000000
XC:            -343.343886
Entropy (-ST):   -0.160544
Local:           +0.819846
--------------------------
Free energy:   -335.501343
Extrapolated:  -335.421071

Dipole-layer corrected work functions: 3.414325, 3.601984 eV

Showing only first 2 kpts
 Kpt  Band  Eigenvalues  Occupancy
  0    34     -3.72081    1.97196
  0    35     -3.53054    1.22014
  0    36     -3.49524    0.87154
  0    37     -3.39839    0.20034

  1    34     -3.82917    1.99675
  1    35     -3.45107    0.48404
  1    36     -3.39834    0.20018
  1    37     -3.37618    0.13327


Fermi level: -3.50815

No gap
Writing to output.gpw (mode='')


Forces in eV/Ang:
  0 Li   -0.00554   -0.01109   -0.29385
  1 Li    0.01307    0.01097   -0.29266
  2 Li   -0.00065    0.00020   -0.25178
  3 Li    0.01749    0.01822   -0.28628
  4 Li   -0.00724    0.00888   -0.29163
  5 Li   -0.01028   -0.00769   -0.29318
  6 Li    0.01012   -0.01070   -0.28977
  7 Li   -0.01501   -0.01813   -0.28725
  8 Li    0.01072    0.00540   -0.29399
  9 Li   -0.04939    0.02392    0.31514
 10 Li    0.01647    0.01067    0.28498
 11 Li    0.02700    0.03533    0.24562
 12 Li   -0.05263   -0.02267    0.26501
 13 Li   -0.01262   -0.00737    0.28296
 14 Li    0.01772   -0.01074    0.29476
 15 Li   -0.02194   -0.01684    0.26503
 16 Li   -0.00324   -0.00000    0.25809
 17 Li    0.01079    0.00526    0.24904
 18 Li   -0.00442    0.01173    0.00409
 19 Li    0.00189    0.00288    0.00134
 20 Li    0.01746   -0.01869    0.03707
 21 Li   -0.00431    0.01031    0.00035
 22 Li    0.00774   -0.00872   -0.00152
 23 Li   -0.00107   -0.00232   -0.00387
 24 Li    0.00379   -0.00403   -0.00030
 25 Li   -0.00908    0.00170    0.00576
 26 Li   -0.00685    0.00314    0.00361
 27 Li    0.00733   -0.00337   -0.01239
 28 Li   -0.00830   -0.00046    0.00878
 29 Li    0.00184    0.01795   -0.01288
 30 Li   -0.00791   -0.00280   -0.00837
 31 Li    0.00760   -0.00262   -0.00341
 32 Li    0.01361   -0.01737   -0.00798
 33 Li   -0.00171    0.00316    0.00389
 34 Li   -0.00068   -0.00198    0.00609
 35 Li    0.00358   -0.01732   -0.00428
 36 O    -0.02206   -0.02834    0.01302
 37 C     0.00971    0.00746    0.00857
 38 C    -0.00977   -0.00030    0.00589
 39 C     0.01616    0.00976    0.00760
 40 H     0.01147   -0.00324   -0.00052
 41 H    -0.00749    0.01319    0.00798
 42 H    -0.00683    0.01745   -0.00410
 43 H     0.02699   -0.00483   -0.00262
 44 H    -0.02040   -0.00949    0.03319
 45 H     0.00278   -0.01789    0.02242
 46 H    -0.00130    0.00822    0.00125
 47 H    -0.01182   -0.00482   -0.00500
 48 N     0.03650   -0.01725   -0.01144
 49 N     0.01181    0.05605    0.00705

System changes: positions 

Initializing position-dependent things.

Density initialized from wave functions
       .-----------------------.  
      /|                       |  
     / |                       |  
    /  |                       |  
   /   |                       |  
  /    |                       |  
 *     |                       |  
 |     |                       |  
 |     |                       |  
 |     |                       |  
 |     |                       |  
 |     |                       |  
 |     |                   H   |  
 |     LiH     Li              |  
 |  H  |C             O   CH   |  
 |   Li|HH   Li      LH        |  
 | H   |                       |  
 |     |  LLi     LLi     Li   |  
 |     |             N N       |  
 |     |Li      LiLi    Li     |  
 |   Li|     Li      Li        |  
 |    Li  Li  Li  Li  Li  Li   |  
 | Li  |   Li      Li          |  
 |     |Li      Li      Li     |  
 Li    | Li      Li            |  
 |    Li      Li      Li       |  
 |     |                       |  
 |     |                       |  
 |     |                       |  
 |     |                       |  
 |     |                       |  
 |     |                       |  
 |     .-----------------------.  
 |    /                       /   
 |   /                       /    
 |  /                       /     
 | /                       /      
 |/                       /       
 *-----------------------*        

Positions:
   0 Li     1.617037    1.617037   10.000000    ( 0.0000,  0.0000,  0.0000)
   1 Li     4.851111    1.617037   10.000000    ( 0.0000,  0.0000,  0.0000)
   2 Li     8.085185    1.617037   10.000000    ( 0.0000,  0.0000,  0.0000)
   3 Li     1.617037    4.851111   10.000000    ( 0.0000,  0.0000,  0.0000)
   4 Li     4.851111    4.851111   10.000000    ( 0.0000,  0.0000,  0.0000)
   5 Li     8.085185    4.851111   10.000000    ( 0.0000,  0.0000,  0.0000)
   6 Li     1.617037    8.085185   10.000000    ( 0.0000,  0.0000,  0.0000)
   7 Li     4.851111    8.085185   10.000000    ( 0.0000,  0.0000,  0.0000)
   8 Li     8.085185    8.085185   10.000000    ( 0.0000,  0.0000,  0.0000)
   9 Li     0.000000    0.000000   11.617037    ( 0.0000,  0.0000,  0.0000)
  10 Li     3.234074    0.000000   11.617037    ( 0.0000,  0.0000,  0.0000)
  11 Li     6.468148    0.000000   11.617037    ( 0.0000,  0.0000,  0.0000)
  12 Li     0.000000    3.234074   11.617037    ( 0.0000,  0.0000,  0.0000)
  13 Li     3.234074    3.234074   11.617037    ( 0.0000,  0.0000,  0.0000)
  14 Li     6.468148    3.234074   11.617037    ( 0.0000,  0.0000,  0.0000)
  15 Li     0.000000    6.468148   11.617037    ( 0.0000,  0.0000,  0.0000)
  16 Li     3.234074    6.468148   11.617037    ( 0.0000,  0.0000,  0.0000)
  17 Li     6.468148    6.468148   11.617037    ( 0.0000,  0.0000,  0.0000)
  18 Li     1.593397    1.565555   13.464720    ( 0.0000,  0.0000,  0.0000)
  19 Li     4.857096    1.675299   13.483323    ( 0.0000,  0.0000,  0.0000)
  20 Li     8.043867    1.634643   13.535670    ( 0.0000,  0.0000,  0.0000)
  21 Li     1.540281    4.787007   13.468674    ( 0.0000,  0.0000,  0.0000)
  22 Li     4.808650    4.910051   13.474224    ( 0.0000,  0.0000,  0.0000)
  23 Li     8.017946    4.856846   13.500186    ( 0.0000,  0.0000,  0.0000)
  24 Li     1.649981    8.036574   13.462710    ( 0.0000,  0.0000,  0.0000)
  25 Li     4.929023    8.137663   13.459900    ( 0.0000,  0.0000,  0.0000)
  26 Li     8.118189    8.078654   13.470810    ( 0.0000,  0.0000,  0.0000)
  27 Li     0.059707   -0.126219   15.396600    ( 0.0000,  0.0000,  0.0000)
  28 Li     3.385972   -0.076992   15.353084    ( 0.0000,  0.0000,  0.0000)
  29 Li     6.677298    0.245014   15.501394    ( 0.0000,  0.0000,  0.0000)
  30 Li    -0.300377    3.003598   15.486893    ( 0.0000,  0.0000,  0.0000)
  31 Li     3.072255    3.304792   15.364729    ( 0.0000,  0.0000,  0.0000)
  32 Li     6.304628    3.386479   15.501504    ( 0.0000,  0.0000,  0.0000)
  33 Li     0.057759    6.322861   15.414759    ( 0.0000,  0.0000,  0.0000)
  34 Li     3.238431    6.468459   15.410073    ( 0.0000,  0.0000,  0.0000)
  35 Li     6.407488    6.657870   15.447759    ( 0.0000,  0.0000,  0.0000)
  36 O      8.218273    1.688605   19.008413    ( 0.0000,  0.0000,  0.0000)
  37 C     10.639057    1.225354   18.779634    ( 0.0000,  0.0000,  0.0000)
  38 C      9.530161    2.258164   18.982545    ( 0.0000,  0.0000,  0.0000)
  39 C     12.022738    1.868277   18.688109    ( 0.0000,  0.0000,  0.0000)
  40 H     10.601121    0.503460   19.600493    ( 0.0000,  0.0000,  0.0000)
  41 H     10.437924    0.661300   17.860256    ( 0.0000,  0.0000,  0.0000)
  42 H      9.657186    2.758087   19.946869    ( 0.0000,  0.0000,  0.0000)
  43 H      9.590506    3.040700   18.206803    ( 0.0000,  0.0000,  0.0000)
  44 H     12.288913    2.401051   19.603852    ( 0.0000,  0.0000,  0.0000)
  45 H     12.799628    1.124735   18.496275    ( 0.0000,  0.0000,  0.0000)
  46 H     12.057358    2.595258   17.869549    ( 0.0000,  0.0000,  0.0000)
  47 H      8.019926    1.390627   18.111006    ( 0.0000,  0.0000,  0.0000)
  48 N      8.482664    1.181985   15.558751    ( 0.0000,  0.0000,  0.0000)
  49 N      7.586503    2.074621   15.561943    ( 0.0000,  0.0000,  0.0000)

Unit cell:
           periodic     x           y           z      points  spacing
  1. axis:    yes    9.702222    0.000000    0.000000    60     0.1617
  2. axis:    yes    0.000000    9.702222    0.000000    60     0.1617
  3. axis:    no     0.000000    0.000000   26.351111   164     0.1607

  Lengths:   9.702222   9.702222  26.351111
  Angles:   90.000000  90.000000  90.000000

Effective grid spacing dv^(1/3) = 0.1614

     iter     time        total  log10-change:
                         energy  eigst   dens
iter:   1 01:53:28  -335.421732  -2.79
iter:   2 01:53:36  -335.421617  -3.64  -2.99
iter:   3 01:53:43  -335.421583c -4.23  -3.07
iter:   4 01:53:51  -335.421461c -4.22  -3.16
Writing to output.gpw (mode='')

iter:   5 01:53:58  -335.421458c -4.15  -3.30
iter:   6 01:54:06  -335.421454c -4.31  -3.52
iter:   7 01:54:13  -335.421436c -4.92  -3.59
iter:   8 01:54:27  -335.421449c -4.58  -3.73
iter:   9 01:54:35  -335.421440c -5.27  -3.73
Writing to output.gpw (mode='')

iter:  10 01:54:42  -335.421432c -5.30  -3.93
iter:  11 01:54:50  -335.421430c -5.75  -4.08c
iter:  12 01:54:57  -335.421432c -6.19  -4.15c
iter:  13 01:55:04  -335.421428c -6.06  -4.34c
iter:  14 01:55:12  -335.421429c -6.73  -4.59c
Writing to output.gpw (mode='')

iter:  15 01:55:19  -335.421430c -7.05  -4.64c
iter:  16 01:55:27  -335.421433c -6.84  -4.67c
iter:  17 01:55:34  -335.421432c -7.19  -4.79c
iter:  18 01:55:42  -335.421432c -7.30  -4.90c
iter:  19 01:55:49  -335.421430c -7.45c -5.04c

Converged after 19 iterations.

Dipole moment: (7.529792, -4.143736, -0.098002) |e|*Ang

Energy contributions relative to reference atoms: (reference = -15487.462483)

Kinetic:       +166.394042
Potential:     -159.237806
External:        +0.000000
XC:            -343.316997
Entropy (-ST):   -0.160540
Local:           +0.819601
--------------------------
Free energy:   -335.501701
Extrapolated:  -335.421430

Dipole-layer corrected work functions: 3.414319, 3.602713 eV

Showing only first 2 kpts
 Kpt  Band  Eigenvalues  Occupancy
  0    34     -3.72111    1.97193
  0    35     -3.53077    1.21892
  0    36     -3.49562    0.87177
  0    37     -3.39873    0.20028

  1    34     -3.82960    1.99675
  1    35     -3.45156    0.48499
  1    36     -3.39890    0.20089
  1    37     -3.37652    0.13322


Fermi level: -3.50852

No gap
Writing to output.gpw (mode='')


Forces in eV/Ang:
  0 Li   -0.00564   -0.01111   -0.29390
  1 Li    0.01305    0.01108   -0.29263
  2 Li   -0.00068    0.00030   -0.25172
  3 Li    0.01754    0.01821   -0.28643
  4 Li   -0.00736    0.00901   -0.29169
  5 Li   -0.01035   -0.00763   -0.29309
  6 Li    0.01010   -0.01065   -0.28961
  7 Li   -0.01494   -0.01812   -0.28733
  8 Li    0.01071    0.00552   -0.29410
  9 Li   -0.04942    0.02349    0.31539
 10 Li    0.01698    0.01053    0.28518
 11 Li    0.02672    0.03437    0.24594
 12 Li   -0.05149   -0.02249    0.26523
 13 Li   -0.01228   -0.00789    0.28338
 14 Li    0.01765   -0.01110    0.29410
 15 Li   -0.02173   -0.01767    0.26502
 16 Li   -0.00324   -0.00015    0.25797
 17 Li    0.01085    0.00390    0.24895
 18 Li   -0.00536    0.01276    0.00431
 19 Li    0.00016    0.00347   -0.00027
 20 Li    0.01904   -0.02020    0.03874
 21 Li   -0.00554    0.00945    0.00019
 22 Li    0.00723   -0.00773   -0.00112
 23 Li   -0.00130    0.00008   -0.00534
 24 Li    0.00446   -0.00490   -0.00091
 25 Li   -0.00869    0.00337    0.00594
 26 Li   -0.00655    0.00569    0.00493
 27 Li    0.00435   -0.00055   -0.01222
 28 Li   -0.00774   -0.00086    0.00863
 29 Li    0.00022    0.01406   -0.01178
 30 Li   -0.00582   -0.00520   -0.00717
 31 Li    0.00701   -0.00285   -0.00318
 32 Li    0.01305   -0.01609   -0.00801
 33 Li   -0.00119    0.00245    0.00335
 34 Li   -0.00086   -0.00206    0.00597
 35 Li    0.00349   -0.01609   -0.00406
 36 O    -0.01398   -0.02659   -0.01448
 37 C    -0.00049    0.00480    0.01155
 38 C    -0.01739    0.00286    0.00122
 39 C     0.01432    0.01036    0.00884
 40 H     0.01220   -0.00848    0.00717
 41 H    -0.00887    0.01354    0.00370
 42 H    -0.01745    0.00506   -0.02303
 43 H     0.02483   -0.00987    0.00753
 44 H    -0.01469   -0.00529    0.03376
 45 H     0.00189   -0.01679    0.02256
 46 H     0.00257    0.01476   -0.00106
 47 H     0.00341    0.01113    0.03339
 48 N     0.02902   -0.00072   -0.01243
 49 N     0.02279    0.04096    0.01042

Timing:                                      incl.     excl.
-------------------------------------------------------------------
Density initialized from wave functions:     4.853     4.850   0.0% |
 Symmetrize density:                         0.003     0.003   0.0% |
Forces:                                     43.731    43.731   0.2% |
Hamiltonian:                               586.965     0.013   0.0% |
 Atomic:                                     0.022     0.022   0.0% |
  XC Correction:                             0.000     0.000   0.0% |
 Calculate atomic Hamiltonians:              0.038     0.038   0.0% |
 Communicate:                                7.971     7.971   0.0% |
 Hartree integrate/restrict:                 1.992     1.992   0.0% |
 Initialize Hamiltonian:                     0.000     0.000   0.0% |
 Poisson:                                   28.722    10.630   0.0% |
  Communicate from 1D:                       2.847     2.847   0.0% |
  Communicate from 2D:                       2.693     2.693   0.0% |
  Communicate to 1D:                         1.933     1.933   0.0% |
  Communicate to 2D:                         3.223     3.223   0.0% |
  FFT 1D:                                    3.995     3.995   0.0% |
  FFT 2D:                                    3.401     3.401   0.0% |
 XC 3D grid:                               547.761    85.553   0.3% |
  VdW-DF integral:                         462.208     3.854   0.0% |
   Convolution:                             43.971    43.971   0.2% |
   FFT:                                     17.979    17.979   0.1% |
   gather:                                 158.632   158.632   0.6% |
   hmm1:                                    14.947    14.947   0.1% |
   hmm2:                                    19.660    19.660   0.1% |
   iFFT:                                    18.939    18.939   0.1% |
   potential:                              180.381     5.063   0.0% |
    collect:                                29.422    29.422   0.1% |
    p1:                                     81.322    81.322   0.3% |
    p2:                                     30.487    30.487   0.1% |
    sum:                                    34.087    34.087   0.1% |
   splines:                                  3.844     3.844   0.0% |
 vbar:                                       0.445     0.445   0.0% |
LCAO initialization:                         1.172     0.185   0.0% |
 LCAO eigensolver:                           0.236     0.000   0.0% |
  Calculate projections:                     0.000     0.000   0.0% |
  DenseAtomicCorrection:                     0.000     0.000   0.0% |
  Distribute overlap matrix:                 0.220     0.220   0.0% |
  Orbital Layouts:                           0.014     0.014   0.0% |
  Potential matrix:                          0.001     0.001   0.0% |
  Sum over cells:                            0.001     0.001   0.0% |
 LCAO to grid:                               0.626     0.626   0.0% |
 Set positions (LCAO WFS):                   0.126     0.079   0.0% |
  Basic WFS set positions:                   0.001     0.001   0.0% |
  Basis functions set positions:             0.000     0.000   0.0% |
  P tci:                                     0.000     0.000   0.0% |
  ST tci:                                    0.013     0.013   0.0% |
  mktci:                                     0.032     0.032   0.0% |
Redistribute:                                0.062     0.062   0.0% |
SCF-cycle:                               25619.433   440.594   1.7% ||
 Davidson:                                6878.410  2034.194   7.7% |--|
  Apply hamiltonian:                       435.671   435.671   1.7% ||
  Subspace diag:                          1285.544     0.381   0.0% |
   calc_h_matrix:                          644.138   201.394   0.8% |
    Apply hamiltonian:                     442.744   442.744   1.7% ||
   diagonalize:                             68.241    68.241   0.3% |
   rotate_psi:                             572.784   572.784   2.2% ||
  calc. matrices:                         2197.111  1137.886   4.3% |-|
   Apply hamiltonian:                     1059.225  1059.225   4.0% |-|
  diagonalize:                              20.287    20.287   0.1% |
  rotate_psi:                              905.603   905.603   3.4% ||
 Density:                                  134.427     0.084   0.0% |
  Atomic density matrices:                  17.771    17.771   0.1% |
  Mix:                                      56.468    56.468   0.2% |
  Multipole moments:                         6.369     6.369   0.0% |
  Pseudo density:                           53.735    53.657   0.2% |
   Symmetrize density:                       0.078     0.078   0.0% |
 Hamiltonian:                            18145.909     0.415   0.0% |
  Atomic:                                    1.006     0.998   0.0% |
   XC Correction:                            0.008     0.008   0.0% |
  Calculate atomic Hamiltonians:             1.280     1.280   0.0% |
  Communicate:                             257.493   257.493   1.0% |
  Hartree integrate/restrict:               62.753    62.753   0.2% |
  Poisson:                                 865.435   319.247   1.2% |
   Communicate from 1D:                     84.745    84.745   0.3% |
   Communicate from 2D:                     86.754    86.754   0.3% |
   Communicate to 1D:                       48.766    48.766   0.2% |
   Communicate to 2D:                      103.985   103.985   0.4% |
   FFT 1D:                                 113.158   113.158   0.4% |
   FFT 2D:                                 108.780   108.780   0.4% |
  XC 3D grid:                            16943.427  2618.582   9.9% |---|
   VdW-DF integral:                      14324.846   121.414   0.5% |
    Convolution:                          1348.257  1348.257   5.1% |-|
    FFT:                                   562.365   562.365   2.1% ||
    gather:                               5040.873  5040.873  19.1% |-------|
    hmm1:                                  462.963   462.963   1.8% ||
    hmm2:                                  615.743   615.743   2.3% ||
    iFFT:                                  592.840   592.840   2.2% ||
    potential:                            5580.360   158.286   0.6% |
     collect:                              871.050   871.050   3.3% ||
     p1:                                  2553.625  2553.625   9.7% |---|
     p2:                                   930.139   930.139   3.5% ||
     sum:                                 1067.260  1067.260   4.0% |-|
    splines:                                 0.031     0.031   0.0% |
  vbar:                                     14.100    14.100   0.1% |
 Orthonormalize:                            20.093     0.014   0.0% |
  calc_s_matrix:                             2.931     2.931   0.0% |
  inverse-cholesky:                          5.997     5.997   0.0% |
  projections:                               0.002     0.002   0.0% |
  rotate_psi_s:                             11.149    11.149   0.0% |
Set symmetry:                                0.002     0.002   0.0% |
Other:                                     125.003   125.003   0.5% |
-------------------------------------------------------------------
Total:                                             26381.221 100.0%

Memory usage: 1.12 GiB
Date: Sat Mar 11 01:55:50 2023
