
  ___ ___ ___ _ _ _  
 |   |   |_  | | | | 
 | | | | | . | | | | 
 |__ |  _|___|_____|  22.8.0
 |___|_|             

User:   vazumah@c15.hercules
Date:   Wed Mar  8 10:02:11 2023
Arch:   x86_64
Pid:    6176
CWD:    /home/vazumah/Python_projects/LiNRR/Li_adsorb_studies/proton_donors/on_pure_surface/Li_BCC100/adsorbates/methanol_y/bridge/8.085_1.617
Python: 3.10.8
gpaw:   /home/vazumah/.conda/envs/GPAW/lib/python3.10/site-packages/gpaw
_gpaw:  /home/vazumah/.conda/envs/GPAW/lib/python3.10/site-packages/
        _gpaw.cpython-310-x86_64-linux-gnu.so
ase:    /home/vazumah/.conda/envs/GPAW/lib/python3.10/site-packages/ase (version 3.22.1)
numpy:  /home/vazumah/.conda/envs/GPAW/lib/python3.10/site-packages/numpy (version 1.24.1)
scipy:  /home/vazumah/.conda/envs/GPAW/lib/python3.10/site-packages/scipy (version 1.10.0)
libxc:  5.2.3
units:  Angstrom and eV
cores: 24
OpenMP: True
OMP_NUM_THREADS: 1

Input parameters:
  h: 0.16
  kpts: {size: [4, 4, 1]}
  occupations: {name: fermi-dirac,
                width: 0.05}
  poissonsolver: {dipolelayer: xy}
  xc: BEEF-vdW

System changes: positions, numbers, cell, pbc, initial_charges, initial_magmoms 

Initialize ...

species:
  Li:
    name: Lithium
    id: 830b4218f175192f93f959cfc0aad614
    Z: 3.0
    valence: 1
    core: 2
    charge: 0.0
    file: /home/vazumah/.conda/envs/GPAW/share/gpaw/Li.PBE.gz
    compensation charges: {type: gauss,
                           rc: 0.33,
                           lmax: 2}
    cutoffs: {filter: 1.91,
              core: 2.55}
    valence states:
      #              energy  rcut
      - 2s(1.00)    -2.874   1.058
      - 2p(0.00)    -1.090   1.058
      -  s          24.337   1.058
  
    # Using partial waves for Li as LCAO basis

  O:
    name: Oxygen
    id: 32ecd46bf208036f09c70b0ec9a88b78
    Z: 8.0
    valence: 6
    core: 2
    charge: 0.0
    file: /home/vazumah/.conda/envs/GPAW/share/gpaw/O.PBE.gz
    compensation charges: {type: gauss,
                           rc: 0.21,
                           lmax: 2}
    cutoffs: {filter: 1.17,
              core: 0.83}
    valence states:
      #              energy  rcut
      - 2s(2.00)   -23.961   0.688
      - 2p(4.00)    -9.029   0.598
      -  s           3.251   0.688
      -  p          18.182   0.598
      -  d           0.000   0.619
  
    # Using partial waves for O as LCAO basis

  C:
    name: Carbon
    id: 4aa54d4b901d75f77cc0ea3eec22967b
    Z: 6.0
    valence: 4
    core: 2
    charge: 0.0
    file: /home/vazumah/.conda/envs/GPAW/share/gpaw/C.PBE.gz
    compensation charges: {type: gauss,
                           rc: 0.20,
                           lmax: 2}
    cutoffs: {filter: 1.14,
              core: 1.14}
    valence states:
      #              energy  rcut
      - 2s(2.00)   -13.751   0.635
      - 2p(2.00)    -5.284   0.635
      -  s          13.461   0.635
      -  p          21.927   0.635
      -  d           0.000   0.635
  
    # Using partial waves for C as LCAO basis

  H:
    name: Hydrogen
    id: d65de229564ff8ea4db303e23b6d1ecf
    Z: 1.0
    valence: 1
    core: 0
    charge: 0.0
    file: /home/vazumah/.conda/envs/GPAW/share/gpaw/H.PBE.gz
    compensation charges: {type: gauss,
                           rc: 0.15,
                           lmax: 2}
    cutoffs: {filter: 0.85,
              core: 0.53}
    valence states:
      #              energy  rcut
      - 1s(1.00)    -6.494   0.476
      -  s          20.717   0.476
      -  p           0.000   0.476
  
    # Using partial waves for H as LCAO basis

Reference energy: -10418.802594  # eV

Spin-paired calculation

Convergence criteria:
 Maximum [total energy] change in last 3 cyles: 0.0005 eV / electron
 Maximum integral of absolute [dens]ity change: 0.0001 electrons / valence electron
 Maximum integral of absolute [eigenst]ate change: 4e-08 eV^2 / valence electron
 Maximum number of scf [iter]ations: 333
 (Square brackets indicate name in SCF output, whereas a 'c' in
 the SCF output indicates the quantity has converged.)

Symmetries present (total): 1

  ( 1  0  0)
  ( 0  1  0)
  ( 0  0  1)

16 k-points: 4 x 4 x 1 Monkhorst-Pack grid
8 k-points in the irreducible part of the Brillouin zone
       k-points in crystal coordinates                weights
   0:     0.12500000   -0.37500000    0.00000000          2/16
   1:     0.12500000   -0.12500000    0.00000000          2/16
   2:     0.12500000    0.12500000    0.00000000          2/16
   3:     0.12500000    0.37500000    0.00000000          2/16
   4:     0.37500000   -0.37500000    0.00000000          2/16
   5:     0.37500000   -0.12500000    0.00000000          2/16
   6:     0.37500000    0.12500000    0.00000000          2/16
   7:     0.37500000    0.37500000    0.00000000          2/16

Wave functions: Uniform real-space grid
  Kinetic energy operator: 6*3+1=19 point O(h^6) finite-difference Laplacian
  ScaLapack parameters: grid=1x1, blocksize=None
  Wavefunction extrapolation:
    Improved wavefunction reuse through dual PAW basis 

Occupation numbers: Fermi-Dirac:
  width: 0.0500  # eV
 

Eigensolver
   Davidson(niter=2) 

Densities:
  Coarse grid: 60*60*156 grid
  Fine grid: 120*120*312 grid
  Total Charge: 0.000000 

Density mixing:
  Method: separate
  Backend: pulay
  Linear mixing parameter: 0.05
  old densities: 5
  Damping of long wavelength oscillations: 50 

Hamiltonian:
  XC and Coulomb potentials evaluated on a 120*120*312 grid
  Using the BEEF-vdW Exchange-Correlation functional
  Interpolation: tri-quintic (5. degree polynomial)
  Poisson solver: FastPoissonSolver using
    Stencil: 6*3+1=19 point O(h^6) finite-difference Laplacian
    FFT axes: [0, 1]
    FST axes: [2]

Dipole correction along z-axis 

XC parameters: BEEF-vdW with 2 nearest neighbor stencil

Memory estimate:
  Process memory now: 216.37 MiB
  Calculator: 353.93 MiB
    Density: 116.65 MiB
      Arrays: 36.75 MiB
      Localized functions: 65.89 MiB
      Mixer: 14.01 MiB
    Hamiltonian: 29.24 MiB
      Arrays: 24.03 MiB
      XC: 0.00 MiB
      Poisson: 0.00 MiB
      vbar: 5.20 MiB
    Wavefunctions: 208.04 MiB
      Arrays psit_nG: 95.25 MiB
      Eigensolver: 109.44 MiB
      Projections: 0.04 MiB
      Projectors: 3.32 MiB

Total number of cores used: 24
Parallelization over k-points: 8
Domain decomposition: 1 x 1 x 3

Number of atoms: 42
Number of atomic orbitals: 156
Number of bands in calculation: 34
Number of valence electrons: 50
Bands to converge: occupied

... initialized

Initializing position-dependent things.

Density initialized from atomic densities
Creating initial wave functions:
  34 bands from LCAO basis set

       .-----------------------.  
      /|                       |  
     / |                       |  
    /  |                       |  
   /   |                       |  
  /    |                       |  
 *     |                       |  
 |     |                       |  
 |     |                  H    |  
 |     |                       |  
 |     |                 H   H |  
 |     |                       |  
 |     |                       |  
 |     |                       |  
 |   Li|     Li     HLO        |  
 |     |  Li      Li C    Li   |  
 | Li  |   Li      Li          |  
 |     |Li      Li      Li     |  
 Li    | Li      Li            |  
 |   LLi     LLi     LLi       |  
 |     |  Li      Li      Li   |  
 | Li  |   Li      Li          |  
 |     |Li      Li      Li     |  
 Li    | Li      Li            |  
 |    Li      Li      Li       |  
 |     |                       |  
 |     |                       |  
 |     |                       |  
 |     |                       |  
 |     |                       |  
 |     |                       |  
 |     .-----------------------.  
 |    /                       /   
 |   /                       /    
 |  /                       /     
 | /                       /      
 |/                       /       
 *-----------------------*        

Positions:
   0 Li     1.617037    1.617037   10.000000    ( 0.0000,  0.0000,  0.0000)
   1 Li     4.851111    1.617037   10.000000    ( 0.0000,  0.0000,  0.0000)
   2 Li     8.085185    1.617037   10.000000    ( 0.0000,  0.0000,  0.0000)
   3 Li     1.617037    4.851111   10.000000    ( 0.0000,  0.0000,  0.0000)
   4 Li     4.851111    4.851111   10.000000    ( 0.0000,  0.0000,  0.0000)
   5 Li     8.085185    4.851111   10.000000    ( 0.0000,  0.0000,  0.0000)
   6 Li     1.617037    8.085185   10.000000    ( 0.0000,  0.0000,  0.0000)
   7 Li     4.851111    8.085185   10.000000    ( 0.0000,  0.0000,  0.0000)
   8 Li     8.085185    8.085185   10.000000    ( 0.0000,  0.0000,  0.0000)
   9 Li     0.000000    0.000000   11.617037    ( 0.0000,  0.0000,  0.0000)
  10 Li     3.234074    0.000000   11.617037    ( 0.0000,  0.0000,  0.0000)
  11 Li     6.468148    0.000000   11.617037    ( 0.0000,  0.0000,  0.0000)
  12 Li     0.000000    3.234074   11.617037    ( 0.0000,  0.0000,  0.0000)
  13 Li     3.234074    3.234074   11.617037    ( 0.0000,  0.0000,  0.0000)
  14 Li     6.468148    3.234074   11.617037    ( 0.0000,  0.0000,  0.0000)
  15 Li     0.000000    6.468148   11.617037    ( 0.0000,  0.0000,  0.0000)
  16 Li     3.234074    6.468148   11.617037    ( 0.0000,  0.0000,  0.0000)
  17 Li     6.468148    6.468148   11.617037    ( 0.0000,  0.0000,  0.0000)
  18 Li     1.617038    1.617038   13.469728    ( 0.0000,  0.0000,  0.0000)
  19 Li     4.851111    1.617038   13.469729    ( 0.0000,  0.0000,  0.0000)
  20 Li     8.085184    1.617038   13.469728    ( 0.0000,  0.0000,  0.0000)
  21 Li     1.617038    4.851111   13.469729    ( 0.0000,  0.0000,  0.0000)
  22 Li     4.851111    4.851111   13.469730    ( 0.0000,  0.0000,  0.0000)
  23 Li     8.085184    4.851111   13.469729    ( 0.0000,  0.0000,  0.0000)
  24 Li     1.617038    8.085184   13.469728    ( 0.0000,  0.0000,  0.0000)
  25 Li     4.851111    8.085184   13.469729    ( 0.0000,  0.0000,  0.0000)
  26 Li     8.085184    8.085184   13.469728    ( 0.0000,  0.0000,  0.0000)
  27 Li    -0.000000   -0.000000   15.445939    ( 0.0000,  0.0000,  0.0000)
  28 Li     3.234074    0.000000   15.445939    ( 0.0000,  0.0000,  0.0000)
  29 Li     6.468148    0.000000   15.445939    ( 0.0000,  0.0000,  0.0000)
  30 Li     0.000000    3.234074   15.445939    ( 0.0000,  0.0000,  0.0000)
  31 Li     3.234076    3.234076   15.445938    ( 0.0000,  0.0000,  0.0000)
  32 Li     6.468146    3.234076   15.445938    ( 0.0000,  0.0000,  0.0000)
  33 Li     0.000000    6.468148   15.445939    ( 0.0000,  0.0000,  0.0000)
  34 Li     3.234076    6.468146   15.445938    ( 0.0000,  0.0000,  0.0000)
  35 Li     6.468146    6.468146   15.445938    ( 0.0000,  0.0000,  0.0000)
  36 O      8.085185    1.617037   17.445939    ( 0.0000,  0.0000,  0.0000)
  37 C      8.070112    0.187074   17.451439    ( 0.0000,  0.0000,  0.0000)
  38 H      7.320158   -0.217197   16.764289    ( 0.0000,  0.0000,  0.0000)
  39 H      7.891702   -0.216438   18.453228    ( 0.0000,  0.0000,  0.0000)
  40 H      9.055826   -0.132369   17.118510    ( 0.0000,  0.0000,  0.0000)
  41 H      7.222056    1.928692   17.736944    ( 0.0000,  0.0000,  0.0000)

Unit cell:
           periodic     x           y           z      points  spacing
  1. axis:    yes    9.702222    0.000000    0.000000    60     0.1617
  2. axis:    yes    0.000000    9.702222    0.000000    60     0.1617
  3. axis:    no     0.000000    0.000000   24.851111   156     0.1593

  Lengths:   9.702222   9.702222  24.851111
  Angles:   90.000000  90.000000  90.000000

Effective grid spacing dv^(1/3) = 0.1609

     iter     time        total  log10-change:
                         energy  eigst   dens
iter:   1 10:05:14  -308.000791
iter:   2 10:07:30  -234.345187  +2.05  -0.21
iter:   3 10:09:49  -225.019721  +2.88  -0.39
iter:   4 10:12:11  -233.238542  +2.34  -0.48
Writing to output.gpw (mode='')

iter:   5 10:14:28  -238.310141  +2.15  -0.60
iter:   6 10:16:49  -244.529833  +1.83  -0.80
iter:   7 10:19:20  -247.561648  +1.42  -0.83
iter:   8 10:21:45  -248.184515  +0.80  -0.86
iter:   9 10:24:17  -251.330140  +1.11  -0.84
Writing to output.gpw (mode='')

iter:  10 10:26:44  -250.601305  +0.58  -0.80
iter:  11 10:29:04  -249.514909  +1.09  -0.81
iter:  12 10:31:31  -249.293218  +0.57  -0.75
iter:  13 10:33:55  -248.093775  +0.05  -0.78
iter:  14 10:36:32  -246.262475  +1.03  -0.85
Writing to output.gpw (mode='')

iter:  15 10:38:57  -246.103872  +0.57  -1.06
iter:  16 10:41:20  -246.261620  +0.38  -1.31
iter:  17 10:43:41  -246.218478  -0.04  -1.34
iter:  18 10:46:01  -246.221762  -0.20  -1.50
iter:  19 10:48:29  -246.228166c -0.61  -1.65
Writing to output.gpw (mode='')

iter:  20 10:50:50  -246.257056  -0.71  -1.66
iter:  21 10:53:08  -246.302228  -0.44  -1.62
iter:  22 10:55:31  -246.392520  -0.37  -1.54
iter:  23 10:57:57  -246.440577  -0.45  -1.47
iter:  24 11:00:15  -246.314146  -0.89  -1.44
Writing to output.gpw (mode='')

iter:  25 11:02:44  -246.263446  -0.75  -1.56
iter:  26 11:05:09  -246.268335  -1.03  -1.73
iter:  27 11:07:35  -246.271902c -0.85  -1.80
iter:  28 11:10:00  -246.270078c -1.00  -1.90
iter:  29 11:12:24  -246.274649c -1.31  -2.09
Writing to output.gpw (mode='')

iter:  30 11:14:54  -246.278101c -1.47  -2.13
iter:  31 11:17:10  -246.280494c -1.76  -2.36
iter:  32 11:19:36  -246.282719c -1.72  -2.34
iter:  33 11:22:03  -246.284816c -1.72  -2.41
iter:  34 11:24:25  -246.286673c -1.82  -2.56
Writing to output.gpw (mode='')

iter:  35 11:26:50  -246.288614c -1.79  -2.60
iter:  36 11:29:11  -246.289963c -2.17  -2.67
iter:  37 11:31:29  -246.291405c -2.01  -2.75
iter:  38 11:33:59  -246.292707c -2.04  -2.79
iter:  39 11:36:21  -246.293808c -2.16  -2.83
Writing to output.gpw (mode='')

iter:  40 11:38:54  -246.294720c -2.25  -2.92
iter:  41 11:41:19  -246.295579c -2.23  -3.02
iter:  42 11:43:38  -246.296284c -2.22  -3.15
iter:  43 11:46:02  -246.296831c -2.35  -3.20
iter:  44 11:48:25  -246.297540c -2.15  -3.21
Writing to output.gpw (mode='')

iter:  45 11:50:42  -246.298019c -2.39  -3.30
iter:  46 11:52:58  -246.298356c -2.55  -3.42
iter:  47 11:55:24  -246.298634c -2.64  -3.37
iter:  48 11:57:40  -246.299003c -2.58  -3.35
iter:  49 12:00:04  -246.299256c -2.67  -3.04
Writing to output.gpw (mode='')

iter:  50 12:02:28  -246.299452c -2.81  -3.26
iter:  51 12:04:49  -246.299613c -3.04  -3.33
iter:  52 12:07:11  -246.299761c -2.89  -3.19
iter:  53 12:09:32  -246.299892c -2.94  -3.31
iter:  54 12:11:52  -246.300003c -3.11  -3.30
Writing to output.gpw (mode='')

iter:  55 12:14:19  -246.300131c -2.80  -3.22
iter:  56 12:16:41  -246.300253c -3.11  -3.25
iter:  57 12:19:06  -246.300320c -3.19  -3.10
iter:  58 12:21:26  -246.300387c -3.07  -3.14
iter:  59 12:23:55  -246.300442c -3.34  -3.17
Writing to output.gpw (mode='')

iter:  60 12:26:21  -246.300483c -3.26  -3.13
iter:  61 12:28:44  -246.300562c -3.25  -3.20
iter:  62 12:30:58  -246.300540c -3.26  -3.05
iter:  63 12:33:10  -246.300567c -3.68  -3.29
iter:  64 12:35:32  -246.300564c -3.34  -3.22
Writing to output.gpw (mode='')

iter:  65 12:37:59  -246.300572c -3.49  -3.45
iter:  66 12:40:23  -246.300577c -3.62  -3.51
iter:  67 12:42:36  -246.300579c -3.74  -3.56
iter:  68 12:44:54  -246.300579c -4.02  -3.77
iter:  69 12:47:13  -246.300578c -4.06  -3.81
Writing to output.gpw (mode='')

iter:  70 12:49:33  -246.300577c -4.16  -3.83
iter:  71 12:51:57  -246.300572c -4.04  -4.04c
iter:  72 12:54:26  -246.300568c -4.09  -4.13c
iter:  73 12:56:50  -246.300564c -4.02  -4.18c
iter:  74 12:59:07  -246.300560c -4.33  -4.31c
Writing to output.gpw (mode='')

iter:  75 13:01:33  -246.300556c -4.40  -4.37c
iter:  76 13:03:53  -246.300551c -4.22  -4.45c
iter:  77 13:06:17  -246.300546c -4.30  -4.58c
iter:  78 13:08:36  -246.300541c -4.57  -4.63c
iter:  79 13:11:00  -246.300537c -4.48  -4.66c
Writing to output.gpw (mode='')

iter:  80 13:13:17  -246.300532c -4.51  -4.66c
iter:  81 13:15:44  -246.300529c -4.65  -4.65c
iter:  82 13:18:06  -246.300525c -4.92  -4.61c
iter:  83 13:20:23  -246.300522c -4.93  -4.68c
iter:  84 13:22:40  -246.300519c -4.92  -4.67c
Writing to output.gpw (mode='')

iter:  85 13:25:07  -246.300516c -4.91  -4.62c
iter:  86 13:27:27  -246.300513c -4.75  -4.61c
iter:  87 13:29:51  -246.300511c -5.01  -4.57c
iter:  88 13:32:07  -246.300508c -4.99  -4.56c
iter:  89 13:34:28  -246.300506c -5.05  -4.54c
Writing to output.gpw (mode='')

iter:  90 13:36:49  -246.300504c -5.07  -4.57c
iter:  91 13:39:19  -246.300502c -5.23  -4.47c
iter:  92 13:41:45  -246.300500c -5.11  -4.60c
iter:  93 13:44:01  -246.300499c -5.34  -4.69c
iter:  94 13:46:28  -246.300497c -5.35  -4.74c
Writing to output.gpw (mode='')

iter:  95 13:48:48  -246.300496c -5.37  -4.78c
iter:  96 13:51:06  -246.300494c -5.42  -4.96c
iter:  97 13:53:27  -246.300493c -5.34  -4.99c
iter:  98 13:55:47  -246.300492c -5.50  -5.23c
iter:  99 13:58:10  -246.300491c -5.39  -5.30c
Writing to output.gpw (mode='')

iter: 100 14:00:31  -246.300490c -5.30  -5.36c
iter: 101 14:02:49  -246.300489c -5.52  -5.40c
iter: 102 14:05:07  -246.300488c -5.45  -5.45c
iter: 103 14:07:31  -246.300488c -5.58  -5.61c
iter: 104 14:09:49  -246.300487c -5.64  -5.70c
Writing to output.gpw (mode='')

iter: 105 14:12:15  -246.300486c -5.66  -5.74c
iter: 106 14:14:32  -246.300486c -5.78  -5.85c
iter: 107 14:16:52  -246.300485c -5.74  -5.99c
iter: 108 14:19:14  -246.300485c -5.87  -6.02c
iter: 109 14:21:38  -246.300485c -5.82  -5.99c
Writing to output.gpw (mode='')

iter: 110 14:24:00  -246.300484c -5.89  -5.94c
iter: 111 14:26:17  -246.300484c -5.99  -5.81c
iter: 112 14:28:45  -246.300484c -6.05  -5.77c
iter: 113 14:31:08  -246.300483c -5.99  -5.77c
iter: 114 14:33:31  -246.300483c -5.98  -5.70c
Writing to output.gpw (mode='')

iter: 115 14:35:51  -246.300483c -6.03  -5.69c
iter: 116 14:38:10  -246.300483c -6.10  -5.66c
iter: 117 14:40:30  -246.300482c -6.17  -5.68c
iter: 118 14:43:03  -246.300482c -6.16  -5.64c
iter: 119 14:45:34  -246.300482c -6.24  -5.63c
Writing to output.gpw (mode='')

iter: 120 14:47:57  -246.300482c -6.29  -5.64c
iter: 121 14:50:20  -246.300482c -6.32  -5.68c
iter: 122 14:52:42  -246.300482c -6.26  -5.64c
iter: 123 14:55:03  -246.300482c -6.43  -5.83c
iter: 124 14:57:34  -246.300481c -6.32  -5.83c
Writing to output.gpw (mode='')

iter: 125 14:59:55  -246.300481c -6.19  -5.88c
iter: 126 15:02:06  -246.300481c -6.49  -6.03c
iter: 127 15:04:23  -246.300481c -6.33  -6.13c
iter: 128 15:06:50  -246.300481c -6.52  -6.22c
iter: 129 15:09:09  -246.300481c -6.64  -6.42c
Writing to output.gpw (mode='')

iter: 130 15:11:30  -246.300481c -6.52  -6.46c
iter: 131 15:13:50  -246.300481c -6.56  -6.47c
iter: 132 15:16:04  -246.300481c -6.53  -6.54c
iter: 133 15:18:42  -246.300481c -6.68  -6.56c
iter: 134 15:21:06  -246.300481c -6.74  -6.71c
Writing to output.gpw (mode='')

iter: 135 15:23:30  -246.300481c -6.80  -7.01c
iter: 136 15:25:52  -246.300481c -6.79  -7.02c
iter: 137 15:28:09  -246.300481c -6.87  -7.05c
iter: 138 15:30:30  -246.300480c -6.87  -7.01c
iter: 139 15:33:04  -246.300480c -6.93  -6.94c
Writing to output.gpw (mode='')

iter: 140 15:35:33  -246.300480c -6.93  -6.85c
iter: 141 15:37:55  -246.300480c -7.03  -6.83c
iter: 142 15:40:13  -246.300480c -6.99  -6.80c
iter: 143 15:42:38  -246.300480c -7.07  -6.71c
iter: 144 15:45:11  -246.300480c -7.06  -6.65c
Writing to output.gpw (mode='')

iter: 145 15:47:42  -246.300480c -7.11  -6.64c
iter: 146 15:50:02  -246.300480c -7.20  -6.55c
iter: 147 15:52:18  -246.300480c -7.31  -6.62c
iter: 148 15:54:41  -246.300480c -7.30  -6.53c
iter: 149 15:57:04  -246.300480c -7.42c -6.64c

Converged after 149 iterations.

Dipole moment: (-1.559434, -6.218689, 0.202354) |e|*Ang

Energy contributions relative to reference atoms: (reference = -10418.802594)

Kinetic:       +112.922255
Potential:     -102.124542
External:        +0.000000
XC:            -257.221636
Entropy (-ST):   -0.143878
Local:           +0.195382
--------------------------
Free energy:   -246.372419
Extrapolated:  -246.300480

Dipole-layer corrected work functions: 3.374965, 2.985971 eV

Showing only first 2 kpts
 Kpt  Band  Eigenvalues  Occupancy
  0    23     -3.43573    1.98794
  0    24     -3.36243    1.94880
  0    25     -2.99311    0.04608
  0    26     -2.93047    0.01339

  1    23     -3.22331    1.40403
  1    24     -3.17516    0.94699
  1    25     -3.12980    0.53263
  1    26     -3.11595    0.43156


Fermi level: -3.18047

No gap
Writing to output.gpw (mode='')


Forces in eV/Ang:
  0 Li    0.01483   -0.00073   -0.26922
  1 Li   -0.01189    0.00160   -0.27090
  2 Li   -0.00325    0.00772   -0.27475
  3 Li   -0.00447    0.00344   -0.27624
  4 Li    0.00253   -0.00264   -0.27787
  5 Li    0.00094    0.00921   -0.27183
  6 Li    0.00224   -0.00033   -0.27124
  7 Li   -0.00570    0.00374   -0.27008
  8 Li    0.00357   -0.01893   -0.27132
  9 Li   -0.01068   -0.00212    0.29789
 10 Li    0.00165    0.00517    0.24075
 11 Li    0.00804   -0.00114    0.29904
 12 Li   -0.00160    0.01472    0.27404
 13 Li    0.00544   -0.02156    0.25807
 14 Li   -0.00367    0.01631    0.26719
 15 Li    0.00702   -0.00829    0.23863
 16 Li   -0.00449    0.01322    0.27239
 17 Li   -0.00191   -0.01120    0.24927
 18 Li   -0.02283   -0.00989    0.04848
 19 Li    0.02661   -0.01222    0.07239
 20 Li   -0.00129    0.01783   -0.13259
 21 Li    0.00337   -0.01240    0.03733
 22 Li   -0.00490   -0.00411    0.02883
 23 Li    0.00274    0.00884    0.04150
 24 Li   -0.02262    0.01819    0.06258
 25 Li    0.02097    0.01228    0.05318
 26 Li    0.00123   -0.01945   -0.01199
 27 Li    0.26070   -0.01399   -0.57544
 28 Li    0.01178    0.01318   -0.00317
 29 Li   -0.66729    0.12055   -1.02622
 30 Li   -0.00895   -0.00496    0.05339
 31 Li    0.02384   -0.02892   -0.00137
 32 Li   -0.05384    0.06623   -0.13047
 33 Li    0.01382   -0.04157   -0.05579
 34 Li   -0.00323    0.01833   -0.01113
 35 Li   -0.01010   -0.04992   -0.05027
 36 O     0.45136   -0.07190   -0.10087
 37 C    -0.09364    0.62713    0.37802
 38 H     0.44024   -0.41320    0.84777
 39 H    -0.00371   -0.11733   -0.10594
 40 H     0.04719   -0.24267    0.42164
 41 H    -0.43641    0.15159    0.22680

System changes: positions 

Initializing position-dependent things.

Density initialized from wave functions
       .-----------------------.  
      /|                       |  
     / |                       |  
    /  |                       |  
   /   |                       |  
  /    |                       |  
 *     |                       |  
 |     |                       |  
 |     |                  H    |  
 |     |                       |  
 |     |                 H   H |  
 |     |                       |  
 |     Li                      |  
 |     |                       |  
 |   Li|     Li     HLO        |  
 |     |  Li      Li C    Li   |  
 |     |   Li      Li      Li  |  
 |     |Li      Li      Li     |  
 |     | Li      Li            |  
 |   LLi     LLi     LLi       |  
 |     |  Li      Li      Li   |  
 | Li  |   Li      Li          |  
 |     |Li      Li      Li     |  
 Li    | Li      Li            |  
 |    Li      Li      Li       |  
 |     |                       |  
 |     |                       |  
 |     |                       |  
 |     |                       |  
 |     |                       |  
 |     |                       |  
 |     .-----------------------.  
 |    /                       /   
 |   /                       /    
 |  /                       /     
 | /                       /      
 |/                       /       
 *-----------------------*        

Positions:
   0 Li     1.617037    1.617037   10.000000    ( 0.0000,  0.0000,  0.0000)
   1 Li     4.851111    1.617037   10.000000    ( 0.0000,  0.0000,  0.0000)
   2 Li     8.085185    1.617037   10.000000    ( 0.0000,  0.0000,  0.0000)
   3 Li     1.617037    4.851111   10.000000    ( 0.0000,  0.0000,  0.0000)
   4 Li     4.851111    4.851111   10.000000    ( 0.0000,  0.0000,  0.0000)
   5 Li     8.085185    4.851111   10.000000    ( 0.0000,  0.0000,  0.0000)
   6 Li     1.617037    8.085185   10.000000    ( 0.0000,  0.0000,  0.0000)
   7 Li     4.851111    8.085185   10.000000    ( 0.0000,  0.0000,  0.0000)
   8 Li     8.085185    8.085185   10.000000    ( 0.0000,  0.0000,  0.0000)
   9 Li     0.000000    0.000000   11.617037    ( 0.0000,  0.0000,  0.0000)
  10 Li     3.234074    0.000000   11.617037    ( 0.0000,  0.0000,  0.0000)
  11 Li     6.468148    0.000000   11.617037    ( 0.0000,  0.0000,  0.0000)
  12 Li     0.000000    3.234074   11.617037    ( 0.0000,  0.0000,  0.0000)
  13 Li     3.234074    3.234074   11.617037    ( 0.0000,  0.0000,  0.0000)
  14 Li     6.468148    3.234074   11.617037    ( 0.0000,  0.0000,  0.0000)
  15 Li     0.000000    6.468148   11.617037    ( 0.0000,  0.0000,  0.0000)
  16 Li     3.234074    6.468148   11.617037    ( 0.0000,  0.0000,  0.0000)
  17 Li     6.468148    6.468148   11.617037    ( 0.0000,  0.0000,  0.0000)
  18 Li     1.616712    1.616897   13.470420    ( 0.0000,  0.0000,  0.0000)
  19 Li     4.851491    1.616864   13.470764    ( 0.0000,  0.0000,  0.0000)
  20 Li     8.085165    1.617293   13.467834    ( 0.0000,  0.0000,  0.0000)
  21 Li     1.617087    4.850934   13.470263    ( 0.0000,  0.0000,  0.0000)
  22 Li     4.851041    4.851052   13.470142    ( 0.0000,  0.0000,  0.0000)
  23 Li     8.085223    4.851237   13.470322    ( 0.0000,  0.0000,  0.0000)
  24 Li     1.616715    8.085444   13.470622    ( 0.0000,  0.0000,  0.0000)
  25 Li     4.851411    8.085359   13.470489    ( 0.0000,  0.0000,  0.0000)
  26 Li     8.085201    8.084906   13.469557    ( 0.0000,  0.0000,  0.0000)
  27 Li     0.003724   -0.000200   15.437719    ( 0.0000,  0.0000,  0.0000)
  28 Li     3.234242    0.000188   15.445894    ( 0.0000,  0.0000,  0.0000)
  29 Li     6.458616    0.001722   15.431279    ( 0.0000,  0.0000,  0.0000)
  30 Li    -0.000128    3.234003   15.446702    ( 0.0000,  0.0000,  0.0000)
  31 Li     3.234417    3.233663   15.445918    ( 0.0000,  0.0000,  0.0000)
  32 Li     6.467376    3.235023   15.444074    ( 0.0000,  0.0000,  0.0000)
  33 Li     0.000197    6.467554   15.445142    ( 0.0000,  0.0000,  0.0000)
  34 Li     3.234030    6.468407   15.445779    ( 0.0000,  0.0000,  0.0000)
  35 Li     6.468001    6.467432   15.445220    ( 0.0000,  0.0000,  0.0000)
  36 O      8.091633    1.616010   17.444498    ( 0.0000,  0.0000,  0.0000)
  37 C      8.068774    0.196033   17.456839    ( 0.0000,  0.0000,  0.0000)
  38 H      7.326447   -0.223100   16.776400    ( 0.0000,  0.0000,  0.0000)
  39 H      7.891649   -0.218114   18.451714    ( 0.0000,  0.0000,  0.0000)
  40 H      9.056500   -0.135836   17.124534    ( 0.0000,  0.0000,  0.0000)
  41 H      7.215822    1.930858   17.740184    ( 0.0000,  0.0000,  0.0000)

Unit cell:
           periodic     x           y           z      points  spacing
  1. axis:    yes    9.702222    0.000000    0.000000    60     0.1617
  2. axis:    yes    0.000000    9.702222    0.000000    60     0.1617
  3. axis:    no     0.000000    0.000000   24.851111   156     0.1593

  Lengths:   9.702222   9.702222  24.851111
  Angles:   90.000000  90.000000  90.000000

Effective grid spacing dv^(1/3) = 0.1609

     iter     time        total  log10-change:
                         energy  eigst   dens
iter:   1 15:59:59  -246.366132  -1.40
iter:   2 16:02:22  -246.357978  -1.95  -1.97
iter:   3 16:04:37  -246.356162c -2.81  -2.16
iter:   4 16:06:56  -246.353418c -1.78  -2.32
Writing to output.gpw (mode='')

iter:   5 16:09:27  -246.352724c -2.90  -2.42
iter:   6 16:12:01  -246.352793c -2.28  -2.60
iter:   7 16:14:24  -246.352399c -2.54  -2.64
iter:   8 16:16:49  -246.352305c -3.23  -2.85
iter:   9 16:19:08  -246.352148c -3.36  -2.92
Writing to output.gpw (mode='')

iter:  10 16:21:29  -246.352174c -4.00  -3.25
iter:  11 16:23:54  -246.352154c -4.06  -3.26
iter:  12 16:26:09  -246.352163c -4.12  -3.42
iter:  13 16:28:27  -246.352165c -4.66  -3.54
iter:  14 16:30:53  -246.352163c -4.92  -3.56
Writing to output.gpw (mode='')

iter:  15 16:33:20  -246.352159c -4.64  -3.63
iter:  16 16:35:49  -246.352160c -5.34  -3.87
iter:  17 16:38:15  -246.352161c -5.32  -3.93
iter:  18 16:40:31  -246.352160c -5.73  -4.01c
iter:  19 16:42:47  -246.352159c -5.55  -4.07c
Writing to output.gpw (mode='')

iter:  20 16:45:17  -246.352159c -5.85  -4.31c
iter:  21 16:47:41  -246.352160c -5.88  -4.38c
iter:  22 16:50:10  -246.352160c -5.92  -4.48c
iter:  23 16:52:30  -246.352160c -6.35  -4.58c
iter:  24 16:54:54  -246.352160c -6.42  -4.61c
Writing to output.gpw (mode='')

iter:  25 16:57:22  -246.352161c -6.47  -4.69c
iter:  26 16:59:44  -246.352161c -6.50  -4.81c
iter:  27 17:01:58  -246.352161c -6.68  -5.08c
iter:  28 17:04:15  -246.352161c -6.82  -5.11c
iter:  29 17:06:34  -246.352161c -7.08  -5.23c
Writing to output.gpw (mode='')

iter:  30 17:08:49  -246.352161c -6.72  -5.36c
iter:  31 17:11:11  -246.352161c -7.25  -5.37c
iter:  32 17:13:31  -246.352161c -7.23  -5.43c
iter:  33 17:15:56  -246.352161c -7.35  -5.43c
iter:  34 17:18:15  -246.352161c -7.50c -5.33c

Converged after 34 iterations.

Dipole moment: (-1.617536, -6.184049, 0.198337) |e|*Ang

Energy contributions relative to reference atoms: (reference = -10418.802594)

Kinetic:       +112.683967
Potential:     -101.997103
External:        +0.000000
XC:            -257.162211
Entropy (-ST):   -0.143858
Local:           +0.195115
--------------------------
Free energy:   -246.424090
Extrapolated:  -246.352161

Dipole-layer corrected work functions: 3.374836, 2.993565 eV

Showing only first 2 kpts
 Kpt  Band  Eigenvalues  Occupancy
  0    23     -3.44000    1.98807
  0    24     -3.36636    1.94900
  0    25     -2.99682    0.04606
  0    26     -2.93471    0.01352

  1    23     -3.22618    1.39673
  1    24     -3.17952    0.95324
  1    25     -3.13302    0.52862
  1    26     -3.11993    0.43326


Fermi level: -3.18420

No gap
Writing to output.gpw (mode='')


Forces in eV/Ang:
  0 Li    0.01466   -0.00095   -0.26925
  1 Li   -0.01158    0.00140   -0.27121
  2 Li   -0.00342    0.00764   -0.27543
  3 Li   -0.00463    0.00355   -0.27613
  4 Li    0.00277   -0.00265   -0.27781
  5 Li    0.00102    0.00915   -0.27181
  6 Li    0.00215   -0.00030   -0.27145
  7 Li   -0.00562    0.00395   -0.27038
  8 Li    0.00358   -0.01879   -0.27193
  9 Li   -0.01008   -0.00241    0.29849
 10 Li    0.00218    0.00518    0.24228
 11 Li    0.00723   -0.00137    0.29987
 12 Li   -0.00116    0.01486    0.27421
 13 Li    0.00560   -0.02123    0.25869
 14 Li   -0.00425    0.01636    0.26769
 15 Li    0.00754   -0.00809    0.23915
 16 Li   -0.00484    0.01288    0.27280
 17 Li   -0.00214   -0.01113    0.25020
 18 Li   -0.02035   -0.00759    0.04457
 19 Li    0.02214   -0.00828    0.06555
 20 Li   -0.00069    0.01936   -0.13199
 21 Li    0.00322   -0.01259    0.03700
 22 Li   -0.00548   -0.00355    0.02723
 23 Li    0.00316    0.00864    0.04016
 24 Li   -0.02005    0.01603    0.05850
 25 Li    0.01696    0.00835    0.04725
 26 Li    0.00117   -0.02052   -0.01471
 27 Li    0.24147   -0.01461   -0.53521
 28 Li    0.01047    0.01313   -0.00322
 29 Li   -0.58616    0.10325   -0.89957
 30 Li   -0.00933   -0.00535    0.05319
 31 Li    0.02412   -0.02889   -0.00090
 32 Li   -0.05385    0.06539   -0.12781
 33 Li    0.01404   -0.04134   -0.05456
 34 Li   -0.00310    0.01820   -0.01122
 35 Li   -0.01023   -0.04829   -0.04905
 36 O    -0.16515    0.29688    0.11483
 37 C     0.24602    0.27412    0.28337
 38 H     0.24667   -0.38021    0.60895
 39 H    -0.01529   -0.07019    0.03140
 40 H    -0.05959   -0.18059    0.43666
 41 H     0.13899    0.00389    0.02324

System changes: positions 

Initializing position-dependent things.

Density initialized from wave functions
       .-----------------------.  
      /|                       |  
     / |                       |  
    /  |                       |  
   /   |                       |  
  /    |                       |  
 *     |                       |  
 |     |                       |  
 |     |                  H    |  
 |     |                       |  
 |     |                 H   H |  
 |     |                       |  
 |     Li                      |  
 |     |                       |  
 |   Li|     Li     HLO        |  
 |     |  Li      Li C    Li   |  
 |     |   Li      Li      Li  |  
 |     |Li      Li      Li     |  
 |     | Li      Li            |  
 |   LLi     LLi     LLi       |  
 |     |  Li      Li      Li   |  
 | Li  |   Li      Li          |  
 |     |Li      Li      Li     |  
 Li    | Li      Li            |  
 |    Li      Li      Li       |  
 |     |                       |  
 |     |                       |  
 |     |                       |  
 |     |                       |  
 |     |                       |  
 |     |                       |  
 |     .-----------------------.  
 |    /                       /   
 |   /                       /    
 |  /                       /     
 | /                       /      
 |/                       /       
 *-----------------------*        

Positions:
   0 Li     1.617037    1.617037   10.000000    ( 0.0000,  0.0000,  0.0000)
   1 Li     4.851111    1.617037   10.000000    ( 0.0000,  0.0000,  0.0000)
   2 Li     8.085185    1.617037   10.000000    ( 0.0000,  0.0000,  0.0000)
   3 Li     1.617037    4.851111   10.000000    ( 0.0000,  0.0000,  0.0000)
   4 Li     4.851111    4.851111   10.000000    ( 0.0000,  0.0000,  0.0000)
   5 Li     8.085185    4.851111   10.000000    ( 0.0000,  0.0000,  0.0000)
   6 Li     1.617037    8.085185   10.000000    ( 0.0000,  0.0000,  0.0000)
   7 Li     4.851111    8.085185   10.000000    ( 0.0000,  0.0000,  0.0000)
   8 Li     8.085185    8.085185   10.000000    ( 0.0000,  0.0000,  0.0000)
   9 Li     0.000000    0.000000   11.617037    ( 0.0000,  0.0000,  0.0000)
  10 Li     3.234074    0.000000   11.617037    ( 0.0000,  0.0000,  0.0000)
  11 Li     6.468148    0.000000   11.617037    ( 0.0000,  0.0000,  0.0000)
  12 Li     0.000000    3.234074   11.617037    ( 0.0000,  0.0000,  0.0000)
  13 Li     3.234074    3.234074   11.617037    ( 0.0000,  0.0000,  0.0000)
  14 Li     6.468148    3.234074   11.617037    ( 0.0000,  0.0000,  0.0000)
  15 Li     0.000000    6.468148   11.617037    ( 0.0000,  0.0000,  0.0000)
  16 Li     3.234074    6.468148   11.617037    ( 0.0000,  0.0000,  0.0000)
  17 Li     6.468148    6.468148   11.617037    ( 0.0000,  0.0000,  0.0000)
  18 Li     1.615962    1.616599   13.472043    ( 0.0000,  0.0000,  0.0000)
  19 Li     4.852330    1.616521   13.473164    ( 0.0000,  0.0000,  0.0000)
  20 Li     8.085133    1.617956   13.463170    ( 0.0000,  0.0000,  0.0000)
  21 Li     1.617202    4.850492   13.471572    ( 0.0000,  0.0000,  0.0000)
  22 Li     4.850855    4.850920   13.471123    ( 0.0000,  0.0000,  0.0000)
  23 Li     8.085329    4.851544   13.471756    ( 0.0000,  0.0000,  0.0000)
  24 Li     1.615974    8.086037   13.472738    ( 0.0000,  0.0000,  0.0000)
  25 Li     4.852061    8.085704   13.472232    ( 0.0000,  0.0000,  0.0000)
  26 Li     8.085244    8.084196   13.469073    ( 0.0000,  0.0000,  0.0000)
  27 Li     0.012490   -0.000707   15.418321    ( 0.0000,  0.0000,  0.0000)
  28 Li     3.234628    0.000652   15.445781    ( 0.0000,  0.0000,  0.0000)
  29 Li     6.436893    0.005587   15.397914    ( 0.0000,  0.0000,  0.0000)
  30 Li    -0.000452    3.233819   15.448580    ( 0.0000,  0.0000,  0.0000)
  31 Li     3.235264    3.232644   15.445881    ( 0.0000,  0.0000,  0.0000)
  32 Li     6.465477    3.237340   15.439532    ( 0.0000,  0.0000,  0.0000)
  33 Li     0.000690    6.466093   15.443201    ( 0.0000,  0.0000,  0.0000)
  34 Li     3.233919    6.469051   15.445384    ( 0.0000,  0.0000,  0.0000)
  35 Li     6.467642    6.465708   15.443474    ( 0.0000,  0.0000,  0.0000)
  36 O      8.093758    1.621726   17.445767    ( 0.0000,  0.0000,  0.0000)
  37 C      8.073072    0.210255   17.468055    ( 0.0000,  0.0000,  0.0000)
  38 H      7.337644   -0.236937   16.800960    ( 0.0000,  0.0000,  0.0000)
  39 H      7.891259   -0.221197   18.451050    ( 0.0000,  0.0000,  0.0000)
  40 H      9.055776   -0.143007   17.139743    ( 0.0000,  0.0000,  0.0000)
  41 H      7.213304    1.932900   17.743629    ( 0.0000,  0.0000,  0.0000)

Unit cell:
           periodic     x           y           z      points  spacing
  1. axis:    yes    9.702222    0.000000    0.000000    60     0.1617
  2. axis:    yes    0.000000    9.702222    0.000000    60     0.1617
  3. axis:    no     0.000000    0.000000   24.851111   156     0.1593

  Lengths:   9.702222   9.702222  24.851111
  Angles:   90.000000  90.000000  90.000000

Effective grid spacing dv^(1/3) = 0.1609

     iter     time        total  log10-change:
                         energy  eigst   dens
iter:   1 17:21:12  -246.451442  -1.10
iter:   2 17:23:37  -246.444722  -1.66  -1.95
iter:   3 17:26:00  -246.442522c -2.38  -2.05
iter:   4 17:28:23  -246.434411c -1.89  -2.15
Writing to output.gpw (mode='')

iter:   5 17:30:55  -246.434416c -2.85  -2.48
iter:   6 17:33:28  -246.433754c -2.59  -2.58
iter:   7 17:35:58  -246.434384c -1.92  -2.67
iter:   8 17:38:20  -246.433583c -3.13  -2.56
iter:   9 17:40:50  -246.433520c -3.22  -2.82
Writing to output.gpw (mode='')

iter:  10 17:43:15  -246.433450c -3.53  -2.91
iter:  11 17:45:40  -246.433433c -3.32  -3.04
iter:  12 17:48:07  -246.433426c -4.30  -3.14
iter:  13 17:50:33  -246.433447c -3.66  -3.21
iter:  14 17:52:56  -246.433415c -4.09  -3.23
Writing to output.gpw (mode='')

iter:  15 17:55:34  -246.433414c -4.27  -3.58
iter:  16 17:57:57  -246.433414c -5.20  -3.63
iter:  17 18:00:24  -246.433423c -4.54  -3.70
iter:  18 18:02:45  -246.433416c -4.91  -3.67
iter:  19 18:05:08  -246.433415c -5.24  -3.99
Writing to output.gpw (mode='')

iter:  20 18:07:37  -246.433414c -5.36  -4.07c
iter:  21 18:09:55  -246.433414c -5.42  -4.21c
iter:  22 18:12:13  -246.433415c -5.63  -4.29c
iter:  23 18:14:32  -246.433414c -5.96  -4.35c
iter:  24 18:16:54  -246.433415c -6.06  -4.57c
Writing to output.gpw (mode='')

iter:  25 18:19:22  -246.433415c -6.23  -4.64c
iter:  26 18:21:38  -246.433415c -6.21  -4.85c
iter:  27 18:23:54  -246.433415c -6.39  -4.97c
iter:  28 18:26:20  -246.433415c -6.38  -4.96c
iter:  29 18:28:43  -246.433415c -6.65  -4.90c
Writing to output.gpw (mode='')

iter:  30 18:31:03  -246.433415c -6.74  -5.09c
iter:  31 18:33:25  -246.433415c -6.86  -5.17c
iter:  32 18:35:48  -246.433415c -6.64  -5.14c
iter:  33 18:38:13  -246.433415c -6.97  -5.13c
iter:  34 18:40:38  -246.433416c -6.99  -5.13c
Writing to output.gpw (mode='')

iter:  35 18:42:58  -246.433416c -7.20  -5.07c
iter:  36 18:45:18  -246.433416c -7.16  -5.05c
iter:  37 18:47:27  -246.433416c -7.24  -5.08c
iter:  38 18:49:44  -246.433415c -7.18  -5.14c
iter:  39 18:52:02  -246.433415c -7.26  -5.24c
Writing to output.gpw (mode='')

iter:  40 18:54:26  -246.433416c -7.35  -5.34c
iter:  41 18:56:46  -246.433416c -7.66c -5.47c

Converged after 41 iterations.

Dipole moment: (-1.749945, -6.086765, 0.193491) |e|*Ang

Energy contributions relative to reference atoms: (reference = -10418.802594)

Kinetic:       +112.863716
Potential:     -102.192527
External:        +0.000000
XC:            -257.227515
Entropy (-ST):   -0.143907
Local:           +0.194864
--------------------------
Free energy:   -246.505369
Extrapolated:  -246.433416

Dipole-layer corrected work functions: 3.374924, 3.002967 eV

Showing only first 2 kpts
 Kpt  Band  Eigenvalues  Occupancy
  0    23     -3.44599    1.98836
  0    24     -3.37158    1.94947
  0    25     -3.00151    0.04601
  0    26     -2.94074    0.01387

  1    23     -3.22893    1.37979
  1    24     -3.18504    0.96096
  1    25     -3.13742    0.52598
  1    26     -3.12516    0.43659


Fermi level: -3.18895

No gap
Writing to output.gpw (mode='')


Forces in eV/Ang:
  0 Li    0.01446   -0.00138   -0.26938
  1 Li   -0.01119    0.00097   -0.27190
  2 Li   -0.00367    0.00748   -0.27685
  3 Li   -0.00488    0.00349   -0.27598
  4 Li    0.00330   -0.00269   -0.27759
  5 Li    0.00105    0.00903   -0.27170
  6 Li    0.00205    0.00006   -0.27188
  7 Li   -0.00537    0.00449   -0.27117
  8 Li    0.00347   -0.01854   -0.27328
  9 Li   -0.00848   -0.00314    0.29951
 10 Li    0.00299    0.00523    0.24551
 11 Li    0.00542   -0.00195    0.30173
 12 Li    0.00013    0.01555    0.27438
 13 Li    0.00579   -0.02044    0.25940
 14 Li   -0.00573    0.01651    0.26868
 15 Li    0.00843   -0.00788    0.24049
 16 Li   -0.00539    0.01191    0.27419
 17 Li   -0.00268   -0.01087    0.25205
 18 Li   -0.01477   -0.00202    0.03626
 19 Li    0.01106    0.00126    0.04909
 20 Li    0.00083    0.02247   -0.12949
 21 Li    0.00300   -0.01301    0.03561
 22 Li   -0.00664   -0.00269    0.02434
 23 Li    0.00387    0.00805    0.03683
 24 Li   -0.01426    0.01064    0.04913
 25 Li    0.00748   -0.00065    0.03348
 26 Li    0.00112   -0.02265   -0.01976
 27 Li    0.20424   -0.01643   -0.45775
 28 Li    0.00694    0.01285   -0.00354
 29 Li   -0.43723    0.07133   -0.67551
 30 Li   -0.01087   -0.00591    0.05282
 31 Li    0.02378   -0.02866   -0.00095
 32 Li   -0.05133    0.06259   -0.12349
 33 Li    0.01452   -0.04056   -0.05191
 34 Li   -0.00260    0.01803   -0.01093
 35 Li   -0.01036   -0.04383   -0.04601
 36 O    -0.34902    0.45559    0.19472
 37 C     0.34300   -0.16095    0.20034
 38 H     0.02563   -0.25964    0.26092
 39 H     0.00278    0.03626    0.25247
 40 H    -0.01026   -0.06327    0.37545
 41 H     0.29839   -0.00927   -0.03851

System changes: positions 

Initializing position-dependent things.

Density initialized from wave functions
       .-----------------------.  
      /|                       |  
     / |                       |  
    /  |                       |  
   /   |                       |  
  /    |                       |  
 *     |                       |  
 |     |                       |  
 |     |                  H    |  
 |     |                       |  
 |     |                 H   H |  
 |     |                       |  
 |     Li                      |  
 |     |                       |  
 |   Li|     Li     HLO        |  
 |     |  Li      Li C    Li   |  
 |     |   Li      Li      Li  |  
 |     |Li      Li      Li     |  
 |     | Li      Li            |  
 |   LLi     LLi     LLi       |  
 |     |  Li      Li      Li   |  
 | Li  |   Li      Li          |  
 |     |Li      Li      Li     |  
 Li    | Li      Li            |  
 |    Li      Li      Li       |  
 |     |                       |  
 |     |                       |  
 |     |                       |  
 |     |                       |  
 |     |                       |  
 |     |                       |  
 |     .-----------------------.  
 |    /                       /   
 |   /                       /    
 |  /                       /     
 | /                       /      
 |/                       /       
 *-----------------------*        

Positions:
   0 Li     1.617037    1.617037   10.000000    ( 0.0000,  0.0000,  0.0000)
   1 Li     4.851111    1.617037   10.000000    ( 0.0000,  0.0000,  0.0000)
   2 Li     8.085185    1.617037   10.000000    ( 0.0000,  0.0000,  0.0000)
   3 Li     1.617037    4.851111   10.000000    ( 0.0000,  0.0000,  0.0000)
   4 Li     4.851111    4.851111   10.000000    ( 0.0000,  0.0000,  0.0000)
   5 Li     8.085185    4.851111   10.000000    ( 0.0000,  0.0000,  0.0000)
   6 Li     1.617037    8.085185   10.000000    ( 0.0000,  0.0000,  0.0000)
   7 Li     4.851111    8.085185   10.000000    ( 0.0000,  0.0000,  0.0000)
   8 Li     8.085185    8.085185   10.000000    ( 0.0000,  0.0000,  0.0000)
   9 Li     0.000000    0.000000   11.617037    ( 0.0000,  0.0000,  0.0000)
  10 Li     3.234074    0.000000   11.617037    ( 0.0000,  0.0000,  0.0000)
  11 Li     6.468148    0.000000   11.617037    ( 0.0000,  0.0000,  0.0000)
  12 Li     0.000000    3.234074   11.617037    ( 0.0000,  0.0000,  0.0000)
  13 Li     3.234074    3.234074   11.617037    ( 0.0000,  0.0000,  0.0000)
  14 Li     6.468148    3.234074   11.617037    ( 0.0000,  0.0000,  0.0000)
  15 Li     0.000000    6.468148   11.617037    ( 0.0000,  0.0000,  0.0000)
  16 Li     3.234074    6.468148   11.617037    ( 0.0000,  0.0000,  0.0000)
  17 Li     6.468148    6.468148   11.617037    ( 0.0000,  0.0000,  0.0000)
  18 Li     1.615222    1.616364   13.473710    ( 0.0000,  0.0000,  0.0000)
  19 Li     4.853074    1.616303   13.475557    ( 0.0000,  0.0000,  0.0000)
  20 Li     8.085124    1.618749   13.458015    ( 0.0000,  0.0000,  0.0000)
  21 Li     1.617327    4.849993   13.473007    ( 0.0000,  0.0000,  0.0000)
  22 Li     4.850628    4.850787   13.472168    ( 0.0000,  0.0000,  0.0000)
  23 Li     8.085459    4.851877   13.473297    ( 0.0000,  0.0000,  0.0000)
  24 Li     1.615248    8.086606   13.474936    ( 0.0000,  0.0000,  0.0000)
  25 Li     4.852622    8.085935   13.473939    ( 0.0000,  0.0000,  0.0000)
  26 Li     8.085290    8.083368   13.468448    ( 0.0000,  0.0000,  0.0000)
  27 Li     0.021628   -0.001304   15.398015    ( 0.0000,  0.0000,  0.0000)
  28 Li     3.234998    0.001164   15.445649    ( 0.0000,  0.0000,  0.0000)
  29 Li     6.415206    0.009354   15.364515    ( 0.0000,  0.0000,  0.0000)
  30 Li    -0.000840    3.233605   15.450668    ( 0.0000,  0.0000,  0.0000)
  31 Li     3.236202    3.231512   15.445837    ( 0.0000,  0.0000,  0.0000)
  32 Li     6.463405    3.239875   15.434540    ( 0.0000,  0.0000,  0.0000)
  33 Li     0.001247    6.464478   15.441083    ( 0.0000,  0.0000,  0.0000)
  34 Li     3.233804    6.469766   15.444950    ( 0.0000,  0.0000,  0.0000)
  35 Li     6.467239    6.463863   15.441580    ( 0.0000,  0.0000,  0.0000)
  36 O      8.093857    1.630327   17.448254    ( 0.0000,  0.0000,  0.0000)
  37 C      8.079036    0.218916   17.479231    ( 0.0000,  0.0000,  0.0000)
  38 H      7.346496   -0.250261   16.822512    ( 0.0000,  0.0000,  0.0000)
  39 H      7.891167   -0.222810   18.454035    ( 0.0000,  0.0000,  0.0000)
  40 H      9.056025   -0.149006   17.155578    ( 0.0000,  0.0000,  0.0000)
  41 H      7.212398    1.935184   17.746701    ( 0.0000,  0.0000,  0.0000)

Unit cell:
           periodic     x           y           z      points  spacing
  1. axis:    yes    9.702222    0.000000    0.000000    60     0.1617
  2. axis:    yes    0.000000    9.702222    0.000000    60     0.1617
  3. axis:    no     0.000000    0.000000   24.851111   156     0.1593

  Lengths:   9.702222   9.702222  24.851111
  Angles:   90.000000  90.000000  90.000000

Effective grid spacing dv^(1/3) = 0.1609

     iter     time        total  log10-change:
                         energy  eigst   dens
iter:   1 18:59:35  -246.511534  -1.11
iter:   2 19:01:54  -246.503788  -1.65  -1.93
iter:   3 19:04:18  -246.501285c -2.40  -2.04
iter:   4 19:06:39  -246.492154c -1.76  -2.14
Writing to output.gpw (mode='')

iter:   5 19:09:00  -246.492663c -3.20  -2.47
iter:   6 19:11:12  -246.491745c -2.75  -2.57
iter:   7 19:13:31  -246.492180c -1.92  -2.69
iter:   8 19:15:55  -246.491642c -2.99  -2.55
iter:   9 19:18:13  -246.491457c -3.19  -2.68
Writing to output.gpw (mode='')

iter:  10 19:20:39  -246.491263c -3.28  -2.83
iter:  11 19:22:55  -246.491245c -3.26  -3.02
iter:  12 19:25:17  -246.491244c -3.69  -3.08
iter:  13 19:27:38  -246.491211c -4.25  -3.10
iter:  14 19:29:53  -246.491208c -3.96  -3.26
Writing to output.gpw (mode='')

iter:  15 19:32:13  -246.491211c -4.53  -3.46
iter:  16 19:34:36  -246.491214c -4.69  -3.54
iter:  17 19:37:01  -246.491219c -4.51  -3.64
iter:  18 19:39:20  -246.491218c -4.87  -3.72
iter:  19 19:41:39  -246.491217c -5.23  -3.70
Writing to output.gpw (mode='')

iter:  20 19:43:57  -246.491215c -5.15  -3.76
iter:  21 19:46:18  -246.491215c -5.47  -3.99
iter:  22 19:48:31  -246.491211c -5.42  -4.04c
iter:  23 19:50:51  -246.491211c -5.81  -4.29c
iter:  24 19:53:07  -246.491212c -5.97  -4.35c
Writing to output.gpw (mode='')

iter:  25 19:55:30  -246.491211c -6.11  -4.54c
iter:  26 19:57:49  -246.491211c -6.42  -4.57c
iter:  27 20:00:00  -246.491211c -6.41  -4.73c
iter:  28 20:02:14  -246.491211c -6.77  -4.95c
iter:  29 20:04:34  -246.491211c -6.74  -4.96c
Writing to output.gpw (mode='')

iter:  30 20:07:06  -246.491212c -6.94  -5.00c
iter:  31 20:09:31  -246.491212c -6.94  -5.16c
iter:  32 20:11:51  -246.491212c -6.88  -5.27c
iter:  33 20:14:07  -246.491212c -7.12  -5.34c
iter:  34 20:16:19  -246.491212c -7.21  -5.37c
Writing to output.gpw (mode='')

iter:  35 20:18:34  -246.491212c -7.46c -5.40c

Converged after 35 iterations.

Dipole moment: (-1.882685, -6.022010, 0.189268) |e|*Ang

Energy contributions relative to reference atoms: (reference = -10418.802594)

Kinetic:       +112.877290
Potential:     -102.243330
External:        +0.000000
XC:            -257.247432
Entropy (-ST):   -0.143943
Local:           +0.194232
--------------------------
Free energy:   -246.563184
Extrapolated:  -246.491212

Dipole-layer corrected work functions: 3.375095, 3.011257 eV

Showing only first 2 kpts
 Kpt  Band  Eigenvalues  Occupancy
  0    23     -3.45156    1.98867
  0    24     -3.37627    1.94992
  0    25     -3.00548    0.04578
  0    26     -2.94640    0.01427

  1    23     -3.23141    1.36469
  1    24     -3.18978    0.96607
  1    25     -3.14163    0.52583
  1    26     -3.12958    0.43787


Fermi level: -3.19318

No gap

Forces in eV/Ang:
  0 Li    0.01427   -0.00182   -0.26956
  1 Li   -0.01086    0.00054   -0.27259
  2 Li   -0.00384    0.00733   -0.27830
  3 Li   -0.00511    0.00341   -0.27590
  4 Li    0.00385   -0.00269   -0.27742
  5 Li    0.00106    0.00892   -0.27154
  6 Li    0.00201    0.00047   -0.27235
  7 Li   -0.00514    0.00499   -0.27201
  8 Li    0.00334   -0.01832   -0.27464
  9 Li   -0.00672   -0.00395    0.30050
 10 Li    0.00373    0.00529    0.24879
 11 Li    0.00352   -0.00257    0.30356
 12 Li    0.00159    0.01647    0.27451
 13 Li    0.00587   -0.01959    0.25994
 14 Li   -0.00728    0.01681    0.26971
 15 Li    0.00933   -0.00778    0.24191
 16 Li   -0.00593    0.01086    0.27563
 17 Li   -0.00327   -0.01073    0.25377
 18 Li   -0.00884    0.00395    0.02762
 19 Li   -0.00100    0.01159    0.03130
 20 Li    0.00232    0.02512   -0.12576
 21 Li    0.00278   -0.01345    0.03394
 22 Li   -0.00785   -0.00191    0.02142
 23 Li    0.00460    0.00749    0.03294
 24 Li   -0.00811    0.00478    0.03924
 25 Li   -0.00245   -0.01021    0.01921
 26 Li    0.00088   -0.02458   -0.02435
 27 Li    0.16990   -0.01794   -0.38960
 28 Li    0.00306    0.01233   -0.00370
 29 Li   -0.32436    0.04763   -0.50878
 30 Li   -0.01336   -0.00755    0.05387
 31 Li    0.02301   -0.02818   -0.00120
 32 Li   -0.04717    0.05815   -0.11767
 33 Li    0.01499   -0.03955   -0.04926
 34 Li   -0.00204    0.01787   -0.01041
 35 Li   -0.01052   -0.03900   -0.04304
 36 O    -0.34173    0.36520    0.19889
 37 C     0.26610   -0.37350    0.12229
 38 H    -0.08066   -0.12298    0.04106
 39 H     0.02553    0.12530    0.41428
 40 H     0.08891    0.02401    0.30914
 41 H     0.28052    0.01495   -0.03661

System changes: positions 

Initializing position-dependent things.

Density initialized from wave functions
       .-----------------------.  
      /|                       |  
     / |                       |  
    /  |                       |  
   /   |                       |  
  /    |                       |  
 *     |                       |  
 |     |                       |  
 |     |                  H    |  
 |     |                       |  
 |     |                 H   H |  
 |     |                       |  
 |     Li                      |  
 |     |                       |  
 |   Li|     Li     HLO        |  
 |     |  Li      Li C    Li   |  
 |     |   Li      Li      Li  |  
 |     |Li      Li      Li     |  
 |     | Li      Li            |  
 |   LLi     LLi     LLi       |  
 |     |  Li      Li      Li   |  
 | Li  |   Li      Li          |  
 |     |Li      Li      Li     |  
 Li    | Li      Li            |  
 |    Li      Li      Li       |  
 |     |                       |  
 |     |                       |  
 |     |                       |  
 |     |                       |  
 |     |                       |  
 |     |                       |  
 |     .-----------------------.  
 |    /                       /   
 |   /                       /    
 |  /                       /     
 | /                       /      
 |/                       /       
 *-----------------------*        

Positions:
   0 Li     1.617037    1.617037   10.000000    ( 0.0000,  0.0000,  0.0000)
   1 Li     4.851111    1.617037   10.000000    ( 0.0000,  0.0000,  0.0000)
   2 Li     8.085185    1.617037   10.000000    ( 0.0000,  0.0000,  0.0000)
   3 Li     1.617037    4.851111   10.000000    ( 0.0000,  0.0000,  0.0000)
   4 Li     4.851111    4.851111   10.000000    ( 0.0000,  0.0000,  0.0000)
   5 Li     8.085185    4.851111   10.000000    ( 0.0000,  0.0000,  0.0000)
   6 Li     1.617037    8.085185   10.000000    ( 0.0000,  0.0000,  0.0000)
   7 Li     4.851111    8.085185   10.000000    ( 0.0000,  0.0000,  0.0000)
   8 Li     8.085185    8.085185   10.000000    ( 0.0000,  0.0000,  0.0000)
   9 Li     0.000000    0.000000   11.617037    ( 0.0000,  0.0000,  0.0000)
  10 Li     3.234074    0.000000   11.617037    ( 0.0000,  0.0000,  0.0000)
  11 Li     6.468148    0.000000   11.617037    ( 0.0000,  0.0000,  0.0000)
  12 Li     0.000000    3.234074   11.617037    ( 0.0000,  0.0000,  0.0000)
  13 Li     3.234074    3.234074   11.617037    ( 0.0000,  0.0000,  0.0000)
  14 Li     6.468148    3.234074   11.617037    ( 0.0000,  0.0000,  0.0000)
  15 Li     0.000000    6.468148   11.617037    ( 0.0000,  0.0000,  0.0000)
  16 Li     3.234074    6.468148   11.617037    ( 0.0000,  0.0000,  0.0000)
  17 Li     6.468148    6.468148   11.617037    ( 0.0000,  0.0000,  0.0000)
  18 Li     1.614523    1.616226   13.475381    ( 0.0000,  0.0000,  0.0000)
  19 Li     4.853650    1.616276   13.477847    ( 0.0000,  0.0000,  0.0000)
  20 Li     8.085145    1.619687   13.452358    ( 0.0000,  0.0000,  0.0000)
  21 Li     1.617462    4.849428   13.474569    ( 0.0000,  0.0000,  0.0000)
  22 Li     4.850350    4.850655   13.473267    ( 0.0000,  0.0000,  0.0000)
  23 Li     8.085620    4.852234   13.474931    ( 0.0000,  0.0000,  0.0000)
  24 Li     1.614570    8.087116   13.477173    ( 0.0000,  0.0000,  0.0000)
  25 Li     4.853039    8.085991   13.475538    ( 0.0000,  0.0000,  0.0000)
  26 Li     8.085336    8.082407   13.467654    ( 0.0000,  0.0000,  0.0000)
  27 Li     0.031054   -0.002001   15.376903    ( 0.0000,  0.0000,  0.0000)
  28 Li     3.235328    0.001723   15.445499    ( 0.0000,  0.0000,  0.0000)
  29 Li     6.393577    0.013019   15.331067    ( 0.0000,  0.0000,  0.0000)
  30 Li    -0.001322    3.233335   15.453008    ( 0.0000,  0.0000,  0.0000)
  31 Li     3.237230    3.230262   15.445784    ( 0.0000,  0.0000,  0.0000)
  32 Li     6.461183    3.242604   15.429110    ( 0.0000,  0.0000,  0.0000)
  33 Li     0.001876    6.462702   15.438785    ( 0.0000,  0.0000,  0.0000)
  34 Li     3.233688    6.470557   15.444477    ( 0.0000,  0.0000,  0.0000)
  35 Li     6.466789    6.461912   15.439537    ( 0.0000,  0.0000,  0.0000)
  36 O      8.093164    1.638889   17.451458    ( 0.0000,  0.0000,  0.0000)
  37 C      8.084754    0.223351   17.489949    ( 0.0000,  0.0000,  0.0000)
  38 H      7.353717   -0.262256   16.841437    ( 0.0000,  0.0000,  0.0000)
  39 H      7.891514   -0.222683   18.460950    ( 0.0000,  0.0000,  0.0000)
  40 H      9.058151   -0.153751   17.171838    ( 0.0000,  0.0000,  0.0000)
  41 H      7.211909    1.938015   17.749840    ( 0.0000,  0.0000,  0.0000)

Unit cell:
           periodic     x           y           z      points  spacing
  1. axis:    yes    9.702222    0.000000    0.000000    60     0.1617
  2. axis:    yes    0.000000    9.702222    0.000000    60     0.1617
  3. axis:    no     0.000000    0.000000   24.851111   156     0.1593

  Lengths:   9.702222   9.702222  24.851111
  Angles:   90.000000  90.000000  90.000000

Effective grid spacing dv^(1/3) = 0.1609

     iter     time        total  log10-change:
                         energy  eigst   dens
iter:   1 20:21:24  -246.558515  -1.10
iter:   2 20:23:44  -246.548543  -1.62  -1.89
iter:   3 20:26:03  -246.545572c -2.39  -2.01
iter:   4 20:28:23  -246.535234c -1.75  -2.12
Writing to output.gpw (mode='')

iter:   5 20:30:43  -246.536363c -3.19  -2.47
iter:   6 20:33:07  -246.535032c -2.77  -2.52
iter:   7 20:35:28  -246.535262c -1.91  -2.68
iter:   8 20:37:44  -246.534838c -2.96  -2.57
iter:   9 20:39:59  -246.534692c -3.23  -2.68
Writing to output.gpw (mode='')

iter:  10 20:42:29  -246.534451c -3.21  -2.80
iter:  11 20:44:52  -246.534433c -3.39  -3.02
iter:  12 20:47:18  -246.534432c -3.49  -3.08
iter:  13 20:49:43  -246.534406c -4.28  -3.11
iter:  14 20:52:06  -246.534393c -4.32  -3.20
Writing to output.gpw (mode='')

iter:  15 20:54:33  -246.534405c -3.83  -3.32
iter:  16 20:56:58  -246.534401c -4.77  -3.48
iter:  17 20:59:12  -246.534400c -4.26  -3.55
iter:  18 21:01:40  -246.534405c -4.55  -3.62
iter:  19 21:04:08  -246.534405c -4.69  -3.70
Writing to output.gpw (mode='')

iter:  20 21:06:34  -246.534395c -5.20  -3.64
iter:  21 21:09:02  -246.534395c -5.16  -4.24c
iter:  22 21:11:23  -246.534396c -5.69  -4.39c
iter:  23 21:13:48  -246.534396c -6.18  -4.45c
iter:  24 21:16:15  -246.534396c -5.70  -4.50c
Writing to output.gpw (mode='')

iter:  25 21:18:35  -246.534395c -6.18  -4.52c
iter:  26 21:20:56  -246.534396c -6.27  -4.60c
iter:  27 21:23:20  -246.534396c -6.67  -4.84c
iter:  28 21:25:37  -246.534396c -6.59  -4.87c
iter:  29 21:27:56  -246.534396c -6.56  -5.03c
Writing to output.gpw (mode='')

iter:  30 21:30:22  -246.534396c -6.91  -5.15c
iter:  31 21:32:44  -246.534396c -6.93  -5.23c
iter:  32 21:35:13  -246.534396c -6.94  -5.26c
iter:  33 21:37:43  -246.534396c -7.01  -5.28c
iter:  34 21:40:11  -246.534396c -7.22  -5.40c
Writing to output.gpw (mode='')

iter:  35 21:42:29  -246.534397c -7.16  -5.55c
iter:  36 21:44:55  -246.534396c -7.29  -5.70c
iter:  37 21:47:30  -246.534397c -7.44c -5.68c

Converged after 37 iterations.

Dipole moment: (-2.012918, -6.006959, 0.185298) |e|*Ang

Energy contributions relative to reference atoms: (reference = -10418.802594)

Kinetic:       +112.744944
Potential:     -102.173242
External:        +0.000000
XC:            -257.227454
Entropy (-ST):   -0.143954
Local:           +0.193333
--------------------------
Free energy:   -246.606374
Extrapolated:  -246.534397

Dipole-layer corrected work functions: 3.375319, 3.019114 eV

Showing only first 2 kpts
 Kpt  Band  Eigenvalues  Occupancy
  0    23     -3.45702    1.98898
  0    24     -3.38072    1.95032
  0    25     -3.00913    0.04543
  0    26     -2.95201    0.01472

  1    23     -3.23385    1.35078
  1    24     -3.19429    0.97074
  1    25     -3.14582    0.52698
  1    26     -3.13349    0.43699


Fermi level: -3.19722

No gap
Writing to output.gpw (mode='')


Forces in eV/Ang:
  0 Li    0.01412   -0.00227   -0.26974
  1 Li   -0.01058    0.00010   -0.27328
  2 Li   -0.00401    0.00722   -0.27976
  3 Li   -0.00528    0.00332   -0.27586
  4 Li    0.00437   -0.00264   -0.27729
  5 Li    0.00104    0.00878   -0.27138
  6 Li    0.00207    0.00088   -0.27286
  7 Li   -0.00498    0.00547   -0.27286
  8 Li    0.00317   -0.01811   -0.27601
  9 Li   -0.00481   -0.00482    0.30152
 10 Li    0.00446    0.00535    0.25212
 11 Li    0.00148   -0.00322    0.30537
 12 Li    0.00321    0.01755    0.27456
 13 Li    0.00585   -0.01861    0.26032
 14 Li   -0.00893    0.01726    0.27075
 15 Li    0.01033   -0.00774    0.24339
 16 Li   -0.00651    0.00966    0.27697
 17 Li   -0.00397   -0.01073    0.25541
 18 Li   -0.00253    0.01027    0.01859
 19 Li   -0.01389    0.02270    0.01236
 20 Li    0.00369    0.02733   -0.12098
 21 Li    0.00257   -0.01392    0.03209
 22 Li   -0.00916   -0.00112    0.01831
 23 Li    0.00539    0.00693    0.02871
 24 Li   -0.00154   -0.00151    0.02876
 25 Li   -0.01275   -0.02032    0.00452
 26 Li    0.00041   -0.02630   -0.02873
 27 Li    0.13795   -0.01911   -0.32907
 28 Li   -0.00104    0.01164   -0.00375
 29 Li   -0.23633    0.02887   -0.38038
 30 Li   -0.01640   -0.01005    0.05575
 31 Li    0.02199   -0.02753   -0.00149
 32 Li   -0.04212    0.05248   -0.11065
 33 Li    0.01545   -0.03840   -0.04659
 34 Li   -0.00145    0.01770   -0.00977
 35 Li   -0.01081   -0.03411   -0.04025
 36 O    -0.28948    0.14826    0.16656
 37 C     0.15715   -0.42183    0.10125
 38 H    -0.13270   -0.00013   -0.10010
 39 H     0.04848    0.19687    0.50187
 40 H     0.16883    0.09347    0.25000
 41 H     0.21782    0.03738   -0.01736

System changes: positions 

Initializing position-dependent things.

Density initialized from wave functions
       .-----------------------.  
      /|                       |  
     / |                       |  
    /  |                       |  
   /   |                       |  
  /    |                       |  
 *     |                       |  
 |     |                       |  
 |     |                  H    |  
 |     |                       |  
 |     |                 H   H |  
 |     |                       |  
 |     Li                      |  
 |     |                       |  
 |   Li|     Li     HLO        |  
 |     |  Li      Li C    Li   |  
 |     |   Li      Li      Li  |  
 |     |Li      Li      Li     |  
 |     | Li      Li            |  
 |   LLi     LLi     LLi       |  
 |     |  Li      Li      Li   |  
 | Li  |   Li      Li          |  
 |     |Li      Li      Li     |  
 Li    | Li      Li            |  
 |    Li      Li      Li       |  
 |     |                       |  
 |     |                       |  
 |     |                       |  
 |     |                       |  
 |     |                       |  
 |     |                       |  
 |     .-----------------------.  
 |    /                       /   
 |   /                       /    
 |  /                       /     
 | /                       /      
 |/                       /       
 *-----------------------*        

Positions:
   0 Li     1.617037    1.617037   10.000000    ( 0.0000,  0.0000,  0.0000)
   1 Li     4.851111    1.617037   10.000000    ( 0.0000,  0.0000,  0.0000)
   2 Li     8.085185    1.617037   10.000000    ( 0.0000,  0.0000,  0.0000)
   3 Li     1.617037    4.851111   10.000000    ( 0.0000,  0.0000,  0.0000)
   4 Li     4.851111    4.851111   10.000000    ( 0.0000,  0.0000,  0.0000)
   5 Li     8.085185    4.851111   10.000000    ( 0.0000,  0.0000,  0.0000)
   6 Li     1.617037    8.085185   10.000000    ( 0.0000,  0.0000,  0.0000)
   7 Li     4.851111    8.085185   10.000000    ( 0.0000,  0.0000,  0.0000)
   8 Li     8.085185    8.085185   10.000000    ( 0.0000,  0.0000,  0.0000)
   9 Li     0.000000    0.000000   11.617037    ( 0.0000,  0.0000,  0.0000)
  10 Li     3.234074    0.000000   11.617037    ( 0.0000,  0.0000,  0.0000)
  11 Li     6.468148    0.000000   11.617037    ( 0.0000,  0.0000,  0.0000)
  12 Li     0.000000    3.234074   11.617037    ( 0.0000,  0.0000,  0.0000)
  13 Li     3.234074    3.234074   11.617037    ( 0.0000,  0.0000,  0.0000)
  14 Li     6.468148    3.234074   11.617037    ( 0.0000,  0.0000,  0.0000)
  15 Li     0.000000    6.468148   11.617037    ( 0.0000,  0.0000,  0.0000)
  16 Li     3.234074    6.468148   11.617037    ( 0.0000,  0.0000,  0.0000)
  17 Li     6.468148    6.468148   11.617037    ( 0.0000,  0.0000,  0.0000)
  18 Li     1.613897    1.616221   13.477018    ( 0.0000,  0.0000,  0.0000)
  19 Li     4.853989    1.616503   13.479940    ( 0.0000,  0.0000,  0.0000)
  20 Li     8.085201    1.620782   13.446202    ( 0.0000,  0.0000,  0.0000)
  21 Li     1.617605    4.848792   13.476255    ( 0.0000,  0.0000,  0.0000)
  22 Li     4.850012    4.850530   13.474411    ( 0.0000,  0.0000,  0.0000)
  23 Li     8.085815    4.852617   13.476641    ( 0.0000,  0.0000,  0.0000)
  24 Li     1.613972    8.087535   13.479404    ( 0.0000,  0.0000,  0.0000)
  25 Li     4.853258    8.085817   13.476961    ( 0.0000,  0.0000,  0.0000)
  26 Li     8.085378    8.081300   13.466669    ( 0.0000,  0.0000,  0.0000)
  27 Li     0.040696   -0.002802   15.355067    ( 0.0000,  0.0000,  0.0000)
  28 Li     3.235599    0.002327   15.445331    ( 0.0000,  0.0000,  0.0000)
  29 Li     6.372022    0.016567   15.297559    ( 0.0000,  0.0000,  0.0000)
  30 Li    -0.001921    3.232985   15.455634    ( 0.0000,  0.0000,  0.0000)
  31 Li     3.238347    3.228893   15.445720    ( 0.0000,  0.0000,  0.0000)
  32 Li     6.458833    3.245501   15.423259    ( 0.0000,  0.0000,  0.0000)
  33 Li     0.002583    6.460763   15.436304    ( 0.0000,  0.0000,  0.0000)
  34 Li     3.233572    6.471428   15.443967    ( 0.0000,  0.0000,  0.0000)
  35 Li     6.466283    6.459867   15.437344    ( 0.0000,  0.0000,  0.0000)
  36 O      8.091807    1.645219   17.455005    ( 0.0000,  0.0000,  0.0000)
  37 C      8.089752    0.225205   17.500870    ( 0.0000,  0.0000,  0.0000)
  38 H      7.359630   -0.272610   16.858019    ( 0.0000,  0.0000,  0.0000)
  39 H      7.892394   -0.220683   18.471361    ( 0.0000,  0.0000,  0.0000)
  40 H      9.062124   -0.157132   17.188473    ( 0.0000,  0.0000,  0.0000)
  41 H      7.211608    1.941314   17.753152    ( 0.0000,  0.0000,  0.0000)

Unit cell:
           periodic     x           y           z      points  spacing
  1. axis:    yes    9.702222    0.000000    0.000000    60     0.1617
  2. axis:    yes    0.000000    9.702222    0.000000    60     0.1617
  3. axis:    no     0.000000    0.000000   24.851111   156     0.1593

  Lengths:   9.702222   9.702222  24.851111
  Angles:   90.000000  90.000000  90.000000

Effective grid spacing dv^(1/3) = 0.1609

     iter     time        total  log10-change:
                         energy  eigst   dens
iter:   1 21:50:29  -246.594314  -1.10
iter:   2 21:52:52  -246.583072  -1.60  -1.87
iter:   3 21:55:21  -246.579886c -2.39  -2.00
iter:   4 21:57:44  -246.569128c -1.78  -2.11
Writing to output.gpw (mode='')

iter:   5 22:00:07  -246.570673c -3.19  -2.48
iter:   6 22:02:31  -246.569088c -2.77  -2.48
iter:   7 22:04:48  -246.569172c -1.89  -2.65
iter:   8 22:07:04  -246.568749c -2.98  -2.58
iter:   9 22:09:19  -246.568701c -3.19  -2.70
Writing to output.gpw (mode='')

iter:  10 22:11:41  -246.568444c -3.23  -2.77
iter:  11 22:13:59  -246.568426c -3.52  -3.02
iter:  12 22:16:18  -246.568422c -3.32  -3.08
iter:  13 22:18:34  -246.568399c -4.26  -3.11
iter:  14 22:20:52  -246.568378c -4.35  -3.17
Writing to output.gpw (mode='')

iter:  15 22:23:07  -246.568394c -3.71  -3.32
iter:  16 22:25:23  -246.568378c -4.82  -3.36
iter:  17 22:27:42  -246.568394c -4.04  -3.62
iter:  18 22:30:10  -246.568387c -4.67  -3.50
iter:  19 22:32:26  -246.568386c -5.40  -3.89
Writing to output.gpw (mode='')

iter:  20 22:34:51  -246.568382c -5.55  -3.96
iter:  21 22:37:14  -246.568381c -5.37  -4.21c
iter:  22 22:39:34  -246.568381c -5.78  -4.34c
iter:  23 22:41:55  -246.568380c -5.87  -4.45c
iter:  24 22:44:17  -246.568380c -6.14  -4.53c
Writing to output.gpw (mode='')

iter:  25 22:46:38  -246.568380c -6.17  -4.58c
iter:  26 22:49:06  -246.568381c -6.05  -4.64c
iter:  27 22:51:34  -246.568381c -6.64  -4.74c
iter:  28 22:53:50  -246.568381c -6.42  -4.79c
iter:  29 22:56:11  -246.568381c -6.70  -4.98c
Writing to output.gpw (mode='')

iter:  30 22:58:34  -246.568381c -6.89  -5.19c
iter:  31 23:00:59  -246.568381c -6.97  -5.20c
iter:  32 23:03:30  -246.568381c -6.88  -5.23c
iter:  33 23:06:03  -246.568381c -7.03  -5.46c
iter:  34 23:08:32  -246.568381c -7.26  -5.58c
Writing to output.gpw (mode='')

iter:  35 23:10:52  -246.568381c -7.15  -5.59c
iter:  36 23:13:15  -246.568381c -7.41c -5.65c

Converged after 36 iterations.

Dipole moment: (-2.138419, -6.032499, 0.181744) |e|*Ang

Energy contributions relative to reference atoms: (reference = -10418.802594)

Kinetic:       +112.578281
Potential:     -102.069464
External:        +0.000000
XC:            -257.198150
Entropy (-ST):   -0.143943
Local:           +0.192922
--------------------------
Free energy:   -246.640353
Extrapolated:  -246.568381

Dipole-layer corrected work functions: 3.375561, 3.026187 eV

Showing only first 2 kpts
 Kpt  Band  Eigenvalues  Occupancy
  0    23     -3.46219    1.98931
  0    24     -3.38470    1.95063
  0    25     -3.01241    0.04510
  0    26     -2.95738    0.01523

  1    23     -3.23596    1.33718
  1    24     -3.19854    0.97668
  1    25     -3.14969    0.52860
  1    26     -3.13673    0.43415


Fermi level: -3.20087

No gap
Writing to output.gpw (mode='')


Forces in eV/Ang:
  0 Li    0.01396   -0.00275   -0.26990
  1 Li   -0.01031   -0.00034   -0.27397
  2 Li   -0.00415    0.00715   -0.28128
  3 Li   -0.00548    0.00325   -0.27582
  4 Li    0.00494   -0.00255   -0.27717
  5 Li    0.00103    0.00862   -0.27120
  6 Li    0.00219    0.00130   -0.27341
  7 Li   -0.00488    0.00593   -0.27369
  8 Li    0.00301   -0.01791   -0.27740
  9 Li   -0.00273   -0.00575    0.30250
 10 Li    0.00516    0.00540    0.25548
 11 Li   -0.00072   -0.00390    0.30707
 12 Li    0.00495    0.01880    0.27448
 13 Li    0.00574   -0.01742    0.26060
 14 Li   -0.01065    0.01791    0.27172
 15 Li    0.01144   -0.00777    0.24490
 16 Li   -0.00720    0.00828    0.27815
 17 Li   -0.00473   -0.01090    0.25699
 18 Li    0.00406    0.01691    0.00925
 19 Li   -0.02750    0.03455   -0.00752
 20 Li    0.00491    0.02919   -0.11515
 21 Li    0.00240   -0.01441    0.03009
 22 Li   -0.01061   -0.00026    0.01496
 23 Li    0.00623    0.00633    0.02431
 24 Li    0.00543   -0.00821    0.01775
 25 Li   -0.02344   -0.03101   -0.01058
 26 Li   -0.00026   -0.02779   -0.03293
 27 Li    0.10868   -0.01997   -0.27446
 28 Li   -0.00531    0.01086   -0.00367
 29 Li   -0.16370    0.01393   -0.27630
 30 Li   -0.01951   -0.01301    0.05768
 31 Li    0.02078   -0.02672   -0.00167
 32 Li   -0.03688    0.04617   -0.10316
 33 Li    0.01591   -0.03716   -0.04385
 34 Li   -0.00087    0.01745   -0.00905
 35 Li   -0.01118   -0.02926   -0.03756
 36 O    -0.22122   -0.05187    0.12669
 37 C     0.06832   -0.43741    0.08287
 38 H    -0.14833    0.08720   -0.17264
 39 H     0.06811    0.24738    0.53818
 40 H     0.20642    0.15129    0.20217
 41 H     0.15260    0.04475    0.00362

System changes: positions 

Initializing position-dependent things.

Density initialized from wave functions
       .-----------------------.  
      /|                       |  
     / |                       |  
    /  |                       |  
   /   |                       |  
  /    |                       |  
 *     |                       |  
 |     |                       |  
 |     |                  H    |  
 |     |                       |  
 |     |                 H   H |  
 |     |                       |  
 |     Li                      |  
 |     |                       |  
 |   Li|     Li     HLO        |  
 |     |  Li      Li C    Li   |  
 |     |   Li      Li      Li  |  
 |     |Li      Li      Li     |  
 |     | Li      Li            |  
 |   LLi     LLi     LLi       |  
 |     |  Li      Li      Li   |  
 | Li  |   Li      Li          |  
 |     |Li      Li      Li     |  
 Li    | Li      Li            |  
 |    Li      Li      Li       |  
 |     |                       |  
 |     |                       |  
 |     |                       |  
 |     |                       |  
 |     |                       |  
 |     |                       |  
 |     .-----------------------.  
 |    /                       /   
 |   /                       /    
 |  /                       /     
 | /                       /      
 |/                       /       
 *-----------------------*        

Positions:
   0 Li     1.617037    1.617037   10.000000    ( 0.0000,  0.0000,  0.0000)
   1 Li     4.851111    1.617037   10.000000    ( 0.0000,  0.0000,  0.0000)
   2 Li     8.085185    1.617037   10.000000    ( 0.0000,  0.0000,  0.0000)
   3 Li     1.617037    4.851111   10.000000    ( 0.0000,  0.0000,  0.0000)
   4 Li     4.851111    4.851111   10.000000    ( 0.0000,  0.0000,  0.0000)
   5 Li     8.085185    4.851111   10.000000    ( 0.0000,  0.0000,  0.0000)
   6 Li     1.617037    8.085185   10.000000    ( 0.0000,  0.0000,  0.0000)
   7 Li     4.851111    8.085185   10.000000    ( 0.0000,  0.0000,  0.0000)
   8 Li     8.085185    8.085185   10.000000    ( 0.0000,  0.0000,  0.0000)
   9 Li     0.000000    0.000000   11.617037    ( 0.0000,  0.0000,  0.0000)
  10 Li     3.234074    0.000000   11.617037    ( 0.0000,  0.0000,  0.0000)
  11 Li     6.468148    0.000000   11.617037    ( 0.0000,  0.0000,  0.0000)
  12 Li     0.000000    3.234074   11.617037    ( 0.0000,  0.0000,  0.0000)
  13 Li     3.234074    3.234074   11.617037    ( 0.0000,  0.0000,  0.0000)
  14 Li     6.468148    3.234074   11.617037    ( 0.0000,  0.0000,  0.0000)
  15 Li     0.000000    6.468148   11.617037    ( 0.0000,  0.0000,  0.0000)
  16 Li     3.234074    6.468148   11.617037    ( 0.0000,  0.0000,  0.0000)
  17 Li     6.468148    6.468148   11.617037    ( 0.0000,  0.0000,  0.0000)
  18 Li     1.613372    1.616380   13.478585    ( 0.0000,  0.0000,  0.0000)
  19 Li     4.854027    1.617044   13.481752    ( 0.0000,  0.0000,  0.0000)
  20 Li     8.085296    1.622041   13.439562    ( 0.0000,  0.0000,  0.0000)
  21 Li     1.617759    4.848081   13.478062    ( 0.0000,  0.0000,  0.0000)
  22 Li     4.849605    4.850413   13.475585    ( 0.0000,  0.0000,  0.0000)
  23 Li     8.086052    4.853023   13.478414    ( 0.0000,  0.0000,  0.0000)
  24 Li     1.613486    8.087831   13.481584    ( 0.0000,  0.0000,  0.0000)
  25 Li     4.853233    8.085362   13.478146    ( 0.0000,  0.0000,  0.0000)
  26 Li     8.085411    8.080040   13.465472    ( 0.0000,  0.0000,  0.0000)
  27 Li     0.050505   -0.003710   15.332572    ( 0.0000,  0.0000,  0.0000)
  28 Li     3.235791    0.002974   15.445146    ( 0.0000,  0.0000,  0.0000)
  29 Li     6.350559    0.020002   15.263981    ( 0.0000,  0.0000,  0.0000)
  30 Li    -0.002652    3.232535   15.458561    ( 0.0000,  0.0000,  0.0000)
  31 Li     3.239549    3.227405   15.445646    ( 0.0000,  0.0000,  0.0000)
  32 Li     6.456369    3.248544   15.417002    ( 0.0000,  0.0000,  0.0000)
  33 Li     0.003373    6.458660   15.433646    ( 0.0000,  0.0000,  0.0000)
  34 Li     3.233460    6.472381   15.443422    ( 0.0000,  0.0000,  0.0000)
  35 Li     6.465719    6.457740   15.435001    ( 0.0000,  0.0000,  0.0000)
  36 O      8.090077    1.648939   17.458718    ( 0.0000,  0.0000,  0.0000)
  37 C      8.094102    0.224744   17.511964    ( 0.0000,  0.0000,  0.0000)
  38 H      7.364638   -0.281511   16.872911    ( 0.0000,  0.0000,  0.0000)
  39 H      7.893835   -0.216886   18.484778    ( 0.0000,  0.0000,  0.0000)
  40 H      9.067474   -0.159079   17.205521    ( 0.0000,  0.0000,  0.0000)
  41 H      7.211388    1.944863   17.756690    ( 0.0000,  0.0000,  0.0000)

Unit cell:
           periodic     x           y           z      points  spacing
  1. axis:    yes    9.702222    0.000000    0.000000    60     0.1617
  2. axis:    yes    0.000000    9.702222    0.000000    60     0.1617
  3. axis:    no     0.000000    0.000000   24.851111   156     0.1593

  Lengths:   9.702222   9.702222  24.851111
  Angles:   90.000000  90.000000  90.000000

Effective grid spacing dv^(1/3) = 0.1609

     iter     time        total  log10-change:
                         energy  eigst   dens
iter:   1 23:16:04  -246.623521  -1.11
iter:   2 23:18:35  -246.611770  -1.60  -1.86
iter:   3 23:20:56  -246.608561c -2.39  -2.00
iter:   4 23:23:16  -246.597931c -1.82  -2.11
Writing to output.gpw (mode='')

iter:   5 23:25:40  -246.599671c -3.21  -2.48
iter:   6 23:28:03  -246.598001c -2.79  -2.45
iter:   7 23:30:31  -246.597998c -1.89  -2.63
iter:   8 23:32:55  -246.597560c -3.01  -2.58
iter:   9 23:35:17  -246.597571c -3.16  -2.72
Writing to output.gpw (mode='')

iter:  10 23:37:45  -246.597350c -3.28  -2.77
iter:  11 23:40:06  -246.597321c -3.56  -3.01
iter:  12 23:42:34  -246.597312c -3.24  -3.07
iter:  13 23:44:51  -246.597287c -4.32  -3.10
iter:  14 23:47:13  -246.597261c -4.21  -3.16
Writing to output.gpw (mode='')

iter:  15 23:49:30  -246.597272c -3.70  -3.33
iter:  16 23:51:49  -246.597261c -4.90  -3.36
iter:  17 23:54:05  -246.597278c -4.08  -3.58
iter:  18 23:56:22  -246.597269c -4.49  -3.50
iter:  19 23:58:43  -246.597268c -5.11  -3.80
Writing to output.gpw (mode='')

iter:  20 00:01:02  -246.597264c -5.19  -3.82
iter:  21 00:03:26  -246.597263c -5.74  -4.13c
iter:  22 00:05:48  -246.597263c -5.80  -4.42c
iter:  23 00:08:14  -246.597263c -6.02  -4.40c
iter:  24 00:10:33  -246.597263c -6.05  -4.44c
Writing to output.gpw (mode='')

iter:  25 00:12:49  -246.597263c -6.04  -4.62c
iter:  26 00:15:06  -246.597263c -6.31  -4.51c
iter:  27 00:17:27  -246.597263c -6.32  -4.79c
iter:  28 00:19:50  -246.597264c -6.45  -4.86c
iter:  29 00:22:15  -246.597264c -6.50  -5.00c
Writing to output.gpw (mode='')

iter:  30 00:24:42  -246.597264c -6.54  -5.05c
iter:  31 00:27:11  -246.597263c -6.71  -5.12c
iter:  32 00:29:34  -246.597264c -6.98  -5.41c
iter:  33 00:32:09  -246.597264c -7.04  -5.44c
iter:  34 00:34:38  -246.597264c -7.04  -5.44c
Writing to output.gpw (mode='')

iter:  35 00:37:03  -246.597264c -7.23  -5.45c
iter:  36 00:39:30  -246.597264c -7.28  -5.61c
iter:  37 00:41:50  -246.597264c -7.31  -5.77c
iter:  38 00:44:16  -246.597264c -7.40c -5.79c

Converged after 38 iterations.

Dipole moment: (-2.259308, -6.095847, 0.178525) |e|*Ang

Energy contributions relative to reference atoms: (reference = -10418.802594)

Kinetic:       +112.429085
Potential:     -101.973901
External:        +0.000000
XC:            -257.173430
Entropy (-ST):   -0.143907
Local:           +0.192936
--------------------------
Free energy:   -246.669217
Extrapolated:  -246.597264

Dipole-layer corrected work functions: 3.375834, 3.032649 eV

Showing only first 2 kpts
 Kpt  Band  Eigenvalues  Occupancy
  0    23     -3.46716    1.98965
  0    24     -3.38830    1.95085
  0    25     -3.01543    0.04479
  0    26     -2.96260    0.01580

  1    23     -3.23784    1.32388
  1    24     -3.20264    0.98401
  1    25     -3.15327    0.53029
  1    26     -3.13942    0.42954


Fermi level: -3.20424

No gap
Writing to output.gpw (mode='')


Forces in eV/Ang:
  0 Li    0.01380   -0.00325   -0.27006
  1 Li   -0.01004   -0.00080   -0.27466
  2 Li   -0.00429    0.00711   -0.28286
  3 Li   -0.00567    0.00319   -0.27580
  4 Li    0.00553   -0.00243   -0.27709
  5 Li    0.00102    0.00842   -0.27101
  6 Li    0.00237    0.00171   -0.27401
  7 Li   -0.00482    0.00637   -0.27452
  8 Li    0.00284   -0.01771   -0.27883
  9 Li   -0.00047   -0.00673    0.30341
 10 Li    0.00586    0.00543    0.25887
 11 Li   -0.00308   -0.00461    0.30863
 12 Li    0.00684    0.02021    0.27423
 13 Li    0.00552   -0.01599    0.26068
 14 Li   -0.01246    0.01874    0.27261
 15 Li    0.01268   -0.00787    0.24642
 16 Li   -0.00801    0.00666    0.27910
 17 Li   -0.00555   -0.01123    0.25850
 18 Li    0.01090    0.02386   -0.00034
 19 Li   -0.04175    0.04711   -0.02820
 20 Li    0.00598    0.03069   -0.10840
 21 Li    0.00225   -0.01494    0.02796
 22 Li   -0.01217    0.00068    0.01136
 23 Li    0.00713    0.00566    0.01978
 24 Li    0.01278   -0.01531    0.00623
 25 Li   -0.03446   -0.04227   -0.02601
 26 Li   -0.00112   -0.02904   -0.03693
 27 Li    0.08141   -0.02045   -0.22413
 28 Li   -0.00970    0.00998   -0.00349
 29 Li   -0.10201    0.00248   -0.19049
 30 Li   -0.02262   -0.01642    0.05961
 31 Li    0.01940   -0.02572   -0.00170
 32 Li   -0.03156    0.03929   -0.09518
 33 Li    0.01632   -0.03576   -0.04097
 34 Li   -0.00030    0.01711   -0.00822
 35 Li   -0.01158   -0.02443   -0.03490
 36 O    -0.14701   -0.19825    0.09030
 37 C    -0.00439   -0.41338    0.11475
[...]
iter:  14 22:04:55  -247.238544c -4.32  -3.45
Writing to output.gpw (mode='')

iter:  15 22:07:29  -247.238545c -4.67  -3.65
iter:  16 22:09:47  -247.238575c -4.70  -3.72
iter:  17 22:12:15  -247.238564c -4.89  -3.73
iter:  18 22:14:51  -247.238559c -5.34  -4.05c
iter:  19 22:17:07  -247.238561c -5.80  -4.18c
Writing to output.gpw (mode='')

iter:  20 22:19:43  -247.238557c -5.55  -4.24c
iter:  21 22:22:03  -247.238556c -5.61  -4.36c
iter:  22 22:24:23  -247.238556c -6.07  -4.38c
iter:  23 22:27:01  -247.238560c -6.11  -4.46c
iter:  24 22:29:26  -247.238559c -6.42  -4.61c
Writing to output.gpw (mode='')

iter:  25 22:32:08  -247.238557c -6.17  -4.70c
iter:  26 22:34:31  -247.238562c -6.30  -4.58c
iter:  27 22:36:57  -247.238560c -6.91  -4.74c
iter:  28 22:39:15  -247.238558c -6.70  -5.02c
iter:  29 22:41:41  -247.238559c -6.94  -5.02c
Writing to output.gpw (mode='')

iter:  30 22:44:13  -247.238559c -7.08  -5.27c
iter:  31 22:46:40  -247.238559c -7.24  -5.30c
iter:  32 22:49:01  -247.238559c -7.30  -5.33c
iter:  33 22:51:22  -247.238560c -7.32  -5.45c
iter:  34 22:53:45  -247.238560c -7.55c -5.64c

Converged after 34 iterations.

Dipole moment: (-2.781628, -3.418309, 0.263713) |e|*Ang

Energy contributions relative to reference atoms: (reference = -10418.802594)

Kinetic:       +108.228117
Potential:      -99.747328
External:        +0.000000
XC:            -255.844812
Entropy (-ST):   -0.157271
Local:           +0.204100
--------------------------
Free energy:   -247.317195
Extrapolated:  -247.238560

Dipole-layer corrected work functions: 3.372382, 2.865435 eV

Showing only first 2 kpts
 Kpt  Band  Eigenvalues  Occupancy
  0    23     -3.34300    1.97763
  0    24     -3.25607    1.87905
  0    25     -2.97764    0.11193
  0    26     -2.84534    0.00838

  1    23     -3.16535    1.43371
  1    24     -3.14011    1.20890
  1    25     -3.07913    0.62197
  1    26     -3.04320    0.36065


Fermi level: -3.11891

No gap
Writing to output.gpw (mode='')


Forces in eV/Ang:
  0 Li    0.00756    0.00585   -0.26432
  1 Li    0.00023    0.00304   -0.28849
  2 Li   -0.00095    0.00345   -0.27610
  3 Li    0.00499    0.00525   -0.26828
  4 Li    0.00211   -0.00064   -0.28151
  5 Li    0.00247    0.01001   -0.27137
  6 Li   -0.00130    0.00196   -0.27641
  7 Li    0.00484    0.00300   -0.26025
  8 Li    0.00457   -0.00094   -0.28433
  9 Li   -0.00141   -0.03429    0.31496
 10 Li   -0.05789   -0.00470    0.29934
 11 Li    0.00730   -0.00359    0.33995
 12 Li   -0.01236   -0.03097    0.22349
 13 Li   -0.03585   -0.01542    0.28279
 14 Li   -0.02803    0.00106    0.32010
 15 Li    0.00750   -0.07477    0.27147
 16 Li   -0.05460   -0.03379    0.23300
 17 Li    0.00095   -0.04963    0.29130
 18 Li   -0.00409    0.03128   -0.00281
 19 Li   -0.00428   -0.00667    0.00399
 20 Li    0.01599    0.02597    0.01564
 21 Li    0.00446    0.00557    0.02253
 22 Li   -0.01081   -0.02932   -0.02451
 23 Li    0.02570   -0.01351   -0.01024
 24 Li   -0.01989    0.02137    0.01666
 25 Li    0.01078    0.00765    0.00137
 26 Li   -0.00846    0.01341    0.02496
 27 Li    0.01397    0.01328   -0.02502
 28 Li    0.02774    0.00669    0.00321
 29 Li   -0.03713   -0.02512    0.00365
 30 Li   -0.01532   -0.01572   -0.04189
 31 Li    0.04423   -0.01812   -0.02422
 32 Li    0.01629    0.01363   -0.01702
 33 Li   -0.02893    0.06955   -0.01205
 34 Li    0.01476    0.01265   -0.01773
 35 Li    0.02025    0.01850    0.01294
 36 O    -0.03451    0.04711   -0.00028
 37 C     0.02822   -0.02390    0.00207
 38 H    -0.02037    0.03975    0.02857
 39 H    -0.05205   -0.00339   -0.01753
 40 H     0.09909    0.05395   -0.06040
 41 H     0.07181   -0.01902   -0.00426

System changes: positions 

Initializing position-dependent things.

Density initialized from wave functions
       .-----------------------.  
      /|                       |  
     / |                       |  
    /  |                       |  
   /   |                       |  
  /    |                       |  
 *     |                       |  
 |     |                       |  
 |     |                       |  
 |     |                       |  
 |     |                       |  
 |     |                       |  
 |     |               H       Li 
 |H    |               C       |  
 |   Li|     Li      LH O      |  
 |     |  Li      Li      LLi  |  
 |     |   Li     Li           |  
 |     |Li      Li      Li     |  
 |     | Li      Li            |  
 |   LLi     LLi     LLi       |  
 |     |  Li      Li      Li   |  
 | Li  |   Li      Li          |  
 |     |Li      Li      Li     |  
 Li    | Li      Li            |  
 |    Li      Li      Li       |  
 |     |                       |  
 |     |                       |  
 |     |                       |  
 |     |                       |  
 |     |                       |  
 |     |                       |  
 |     .-----------------------.  
 |    /                       /   
 |   /                       /    
 |  /                       /     
 | /                       /      
 |/                       /       
 *-----------------------*        

Positions:
   0 Li     1.617037    1.617037   10.000000    ( 0.0000,  0.0000,  0.0000)
   1 Li     4.851111    1.617037   10.000000    ( 0.0000,  0.0000,  0.0000)
   2 Li     8.085185    1.617037   10.000000    ( 0.0000,  0.0000,  0.0000)
   3 Li     1.617037    4.851111   10.000000    ( 0.0000,  0.0000,  0.0000)
   4 Li     4.851111    4.851111   10.000000    ( 0.0000,  0.0000,  0.0000)
   5 Li     8.085185    4.851111   10.000000    ( 0.0000,  0.0000,  0.0000)
   6 Li     1.617037    8.085185   10.000000    ( 0.0000,  0.0000,  0.0000)
   7 Li     4.851111    8.085185   10.000000    ( 0.0000,  0.0000,  0.0000)
   8 Li     8.085185    8.085185   10.000000    ( 0.0000,  0.0000,  0.0000)
   9 Li     0.000000    0.000000   11.617037    ( 0.0000,  0.0000,  0.0000)
  10 Li     3.234074    0.000000   11.617037    ( 0.0000,  0.0000,  0.0000)
  11 Li     6.468148    0.000000   11.617037    ( 0.0000,  0.0000,  0.0000)
  12 Li     0.000000    3.234074   11.617037    ( 0.0000,  0.0000,  0.0000)
  13 Li     3.234074    3.234074   11.617037    ( 0.0000,  0.0000,  0.0000)
  14 Li     6.468148    3.234074   11.617037    ( 0.0000,  0.0000,  0.0000)
  15 Li     0.000000    6.468148   11.617037    ( 0.0000,  0.0000,  0.0000)
  16 Li     3.234074    6.468148   11.617037    ( 0.0000,  0.0000,  0.0000)
  17 Li     6.468148    6.468148   11.617037    ( 0.0000,  0.0000,  0.0000)
  18 Li     1.525052    1.564222   13.586749    ( 0.0000,  0.0000,  0.0000)
  19 Li     4.768821    1.639440   13.472173    ( 0.0000,  0.0000,  0.0000)
  20 Li     8.094377    1.597430   13.529957    ( 0.0000,  0.0000,  0.0000)
  21 Li     1.571625    4.743756   13.511893    ( 0.0000,  0.0000,  0.0000)
  22 Li     4.782137    4.924019   13.490708    ( 0.0000,  0.0000,  0.0000)
  23 Li     8.069057    4.754678   13.556410    ( 0.0000,  0.0000,  0.0000)
  24 Li     1.636828    7.972201   13.494863    ( 0.0000,  0.0000,  0.0000)
  25 Li     4.810860    8.072645   13.481346    ( 0.0000,  0.0000,  0.0000)
  26 Li     8.095808    7.977125   13.470530    ( 0.0000,  0.0000,  0.0000)
  27 Li    -0.028875   -0.394652   15.431936    ( 0.0000,  0.0000,  0.0000)
  28 Li     3.174724    0.003853   15.469322    ( 0.0000,  0.0000,  0.0000)
  29 Li     6.409865    0.016360   15.319862    ( 0.0000,  0.0000,  0.0000)
  30 Li    -0.076710    2.761983   16.132923    ( 0.0000,  0.0000,  0.0000)
  31 Li     3.076087    3.263374   15.504067    ( 0.0000,  0.0000,  0.0000)
  32 Li     6.196383    3.270967   15.347131    ( 0.0000,  0.0000,  0.0000)
  33 Li     0.047131    6.115589   15.520452    ( 0.0000,  0.0000,  0.0000)
  34 Li     3.206771    6.457969   15.507496    ( 0.0000,  0.0000,  0.0000)
  35 Li     6.458816    6.481720   15.446711    ( 0.0000,  0.0000,  0.0000)
  36 O      8.701185    2.092117   17.724060    ( 0.0000,  0.0000,  0.0000)
  37 C      8.788248    1.059359   18.735651    ( 0.0000,  0.0000,  0.0000)
  38 H      8.262294    0.156144   18.411519    ( 0.0000,  0.0000,  0.0000)
  39 H      8.379593    1.420065   19.681875    ( 0.0000,  0.0000,  0.0000)
  40 H      9.839813    0.821184   18.866601    ( 0.0000,  0.0000,  0.0000)
  41 H      7.757034    2.215844   17.506454    ( 0.0000,  0.0000,  0.0000)

Unit cell:
           periodic     x           y           z      points  spacing
  1. axis:    yes    9.702222    0.000000    0.000000    60     0.1617
  2. axis:    yes    0.000000    9.702222    0.000000    60     0.1617
  3. axis:    no     0.000000    0.000000   24.851111   156     0.1593

  Lengths:   9.702222   9.702222  24.851111
  Angles:   90.000000  90.000000  90.000000

Effective grid spacing dv^(1/3) = 0.1609

     iter     time        total  log10-change:
                         energy  eigst   dens
iter:   1 22:56:50  -247.254525  -0.88
iter:   2 22:59:16  -247.247169  -1.77  -1.94
iter:   3 23:01:40  -247.246368c -2.42  -2.21
iter:   4 23:04:07  -247.247979c -2.60  -2.32
Writing to output.gpw (mode='')

iter:   5 23:06:45  -247.241954c -2.36  -2.24
iter:   6 23:09:07  -247.240979c -2.35  -2.64
iter:   7 23:11:32  -247.241106c -2.47  -2.86
iter:   8 23:14:02  -247.241100c -3.20  -2.85
iter:   9 23:16:26  -247.241155c -3.48  -2.96
Writing to output.gpw (mode='')

iter:  10 23:19:03  -247.241106c -3.67  -3.16
iter:  11 23:21:23  -247.241065c -3.98  -3.25
iter:  12 23:23:47  -247.241076c -4.20  -3.37
iter:  13 23:26:10  -247.241073c -4.94  -3.50
iter:  14 23:28:27  -247.241086c -4.82  -3.64
Writing to output.gpw (mode='')

iter:  15 23:31:01  -247.241085c -5.09  -3.81
iter:  16 23:33:23  -247.241085c -5.36  -3.83
iter:  17 23:35:39  -247.241091c -5.19  -3.85
iter:  18 23:38:05  -247.241094c -5.49  -3.96
iter:  19 23:40:24  -247.241094c -5.60  -4.03c
Writing to output.gpw (mode='')

iter:  20 23:42:47  -247.241094c -5.61  -4.11c
iter:  21 23:45:16  -247.241091c -5.73  -4.15c
iter:  22 23:47:45  -247.241090c -5.96  -4.19c
iter:  23 23:50:03  -247.241088c -6.01  -4.37c
iter:  24 23:52:23  -247.241089c -6.30  -4.47c
Writing to output.gpw (mode='')

iter:  25 23:54:57  -247.241088c -6.52  -4.63c
iter:  26 23:57:14  -247.241090c -6.59  -4.70c
iter:  27 23:59:40  -247.241090c -6.54  -4.83c
iter:  28 00:02:11  -247.241091c -6.71  -4.97c
iter:  29 00:04:30  -247.241091c -7.12  -5.11c
Writing to output.gpw (mode='')

iter:  30 00:07:03  -247.241091c -7.28  -5.15c
iter:  31 00:09:29  -247.241091c -7.39  -5.25c
iter:  32 00:11:56  -247.241090c -7.36  -5.37c
iter:  33 00:14:13  -247.241090c -7.62c -5.47c

Converged after 33 iterations.

Dipole moment: (-2.666575, -3.348156, 0.266776) |e|*Ang

Energy contributions relative to reference atoms: (reference = -10418.802594)

Kinetic:       +108.225442
Potential:      -99.755046
External:        +0.000000
XC:            -255.836281
Entropy (-ST):   -0.157331
Local:           +0.203460
--------------------------
Free energy:   -247.319756
Extrapolated:  -247.241090

Dipole-layer corrected work functions: 3.372182, 2.859348 eV

Showing only first 2 kpts
 Kpt  Band  Eigenvalues  Occupancy
  0    23     -3.33935    1.97740
  0    24     -3.25252    1.87813
  0    25     -2.97487    0.11273
  0    26     -2.84139    0.00824

  1    23     -3.16266    1.43737
  1    24     -3.13696    1.20887
  1    25     -3.07631    0.62474
  1    26     -3.04011    0.36097


Fermi level: -3.11577

No gap
Writing to output.gpw (mode='')


Forces in eV/Ang:
  0 Li    0.00752    0.00597   -0.26432
  1 Li    0.00024    0.00293   -0.28880
  2 Li   -0.00136    0.00336   -0.27602
  3 Li    0.00493    0.00523   -0.26843
  4 Li    0.00238   -0.00064   -0.28121
  5 Li    0.00255    0.00969   -0.27122
  6 Li   -0.00123    0.00200   -0.27619
  7 Li    0.00462    0.00288   -0.26111
  8 Li    0.00450   -0.00089   -0.28441
  9 Li   -0.00042   -0.03341    0.31511
 10 Li   -0.05425   -0.00407    0.30340
 11 Li    0.00548   -0.00389    0.34231
 12 Li   -0.01253   -0.03122    0.22306
 13 Li   -0.03339   -0.01520    0.28356
 14 Li   -0.02925    0.00121    0.31890
 15 Li    0.00666   -0.07414    0.27207
 16 Li   -0.05412   -0.03414    0.23570
 17 Li    0.00151   -0.04690    0.29327
 18 Li   -0.00701    0.02867   -0.00182
 19 Li   -0.01043   -0.00918   -0.00664
 20 Li    0.01908    0.02720    0.01862
 21 Li    0.00460    0.00777    0.02416
 22 Li   -0.01187   -0.02884   -0.02711
 23 Li    0.02754   -0.01362   -0.00780
 24 Li   -0.01890    0.02255    0.01692
 25 Li    0.00863    0.00672   -0.00433
 26 Li   -0.01189    0.00820    0.02038
 27 Li    0.01503    0.01480   -0.02386
 28 Li    0.02619    0.00730    0.00122
 29 Li   -0.02917   -0.02710    0.01490
 30 Li   -0.00953   -0.01571   -0.04993
 31 Li    0.04453   -0.01740   -0.02128
 32 Li    0.01763    0.01570   -0.01719
 33 Li   -0.02839    0.07204   -0.01305
 34 Li    0.01593    0.01130   -0.01846
 35 Li    0.01815    0.02195    0.01258
 36 O    -0.05349    0.01364    0.03173
 37 C     0.05056    0.00608    0.00177
 38 H    -0.02875    0.04324    0.01929
 39 H    -0.02937   -0.01472   -0.02288
 40 H     0.10416    0.04682   -0.03485
 41 H     0.05299   -0.00761   -0.01398

System changes: positions 

Initializing position-dependent things.

Density initialized from wave functions
       .-----------------------.  
      /|                       |  
     / |                       |  
    /  |                       |  
   /   |                       |  
  /    |                       |  
 *     |                       |  
 |     |                       |  
 |     |                       |  
 |     |                       |  
 |     |                       |  
 |     |                       |  
 |     |               H       Li 
 |H    |               C       |  
 |   Li|     Li      LH O      |  
 |     |  Li      Li      LLi  |  
 |     |   Li     Li           |  
 |     |Li      Li      Li     |  
 |     | Li      Li            |  
 |   LLi     LLi     LLi       |  
 |     |  Li      Li      Li   |  
 | Li  |   Li      Li          |  
 |     |Li      Li      Li     |  
 Li    | Li      Li            |  
 |    Li      Li      Li       |  
 |     |                       |  
 |     |                       |  
 |     |                       |  
 |     |                       |  
 |     |                       |  
 |     |                       |  
 |     .-----------------------.  
 |    /                       /   
 |   /                       /    
 |  /                       /     
 | /                       /      
 |/                       /       
 *-----------------------*        

Positions:
   0 Li     1.617037    1.617037   10.000000    ( 0.0000,  0.0000,  0.0000)
   1 Li     4.851111    1.617037   10.000000    ( 0.0000,  0.0000,  0.0000)
   2 Li     8.085185    1.617037   10.000000    ( 0.0000,  0.0000,  0.0000)
   3 Li     1.617037    4.851111   10.000000    ( 0.0000,  0.0000,  0.0000)
   4 Li     4.851111    4.851111   10.000000    ( 0.0000,  0.0000,  0.0000)
   5 Li     8.085185    4.851111   10.000000    ( 0.0000,  0.0000,  0.0000)
   6 Li     1.617037    8.085185   10.000000    ( 0.0000,  0.0000,  0.0000)
   7 Li     4.851111    8.085185   10.000000    ( 0.0000,  0.0000,  0.0000)
   8 Li     8.085185    8.085185   10.000000    ( 0.0000,  0.0000,  0.0000)
   9 Li     0.000000    0.000000   11.617037    ( 0.0000,  0.0000,  0.0000)
  10 Li     3.234074    0.000000   11.617037    ( 0.0000,  0.0000,  0.0000)
  11 Li     6.468148    0.000000   11.617037    ( 0.0000,  0.0000,  0.0000)
  12 Li     0.000000    3.234074   11.617037    ( 0.0000,  0.0000,  0.0000)
  13 Li     3.234074    3.234074   11.617037    ( 0.0000,  0.0000,  0.0000)
  14 Li     6.468148    3.234074   11.617037    ( 0.0000,  0.0000,  0.0000)
  15 Li     0.000000    6.468148   11.617037    ( 0.0000,  0.0000,  0.0000)
  16 Li     3.234074    6.468148   11.617037    ( 0.0000,  0.0000,  0.0000)
  17 Li     6.468148    6.468148   11.617037    ( 0.0000,  0.0000,  0.0000)
  18 Li     1.527305    1.565176   13.586119    ( 0.0000,  0.0000,  0.0000)
  19 Li     4.771226    1.642887   13.476720    ( 0.0000,  0.0000,  0.0000)
  20 Li     8.093894    1.598312   13.528876    ( 0.0000,  0.0000,  0.0000)
  21 Li     1.571606    4.741957   13.511466    ( 0.0000,  0.0000,  0.0000)
  22 Li     4.783361    4.923929   13.493727    ( 0.0000,  0.0000,  0.0000)
  23 Li     8.067432    4.755141   13.554730    ( 0.0000,  0.0000,  0.0000)
  24 Li     1.635223    7.971627   13.496737    ( 0.0000,  0.0000,  0.0000)
  25 Li     4.810526    8.071738   13.484755    ( 0.0000,  0.0000,  0.0000)
  26 Li     8.097677    7.979571   13.472839    ( 0.0000,  0.0000,  0.0000)
  27 Li    -0.032941   -0.393168   15.435236    ( 0.0000,  0.0000,  0.0000)
  28 Li     3.173891    0.004580   15.471225    ( 0.0000,  0.0000,  0.0000)
  29 Li     6.405013    0.017913   15.314181    ( 0.0000,  0.0000,  0.0000)
  30 Li    -0.070558    2.768756   16.134316    ( 0.0000,  0.0000,  0.0000)
  31 Li     3.077951    3.264558   15.502158    ( 0.0000,  0.0000,  0.0000)
  32 Li     6.198676    3.270041   15.351162    ( 0.0000,  0.0000,  0.0000)
  33 Li     0.047595    6.112498   15.520210    ( 0.0000,  0.0000,  0.0000)
  34 Li     3.205445    6.458234   15.510603    ( 0.0000,  0.0000,  0.0000)
  35 Li     6.461906    6.480400   15.448969    ( 0.0000,  0.0000,  0.0000)
  36 O      8.714805    2.099814   17.726811    ( 0.0000,  0.0000,  0.0000)
  37 C      8.803826    1.079943   18.751802    ( 0.0000,  0.0000,  0.0000)
  38 H      8.285701    0.168045   18.437763    ( 0.0000,  0.0000,  0.0000)
  39 H      8.388574    1.452182   19.691485    ( 0.0000,  0.0000,  0.0000)
  40 H      9.856893    0.851643   18.886107    ( 0.0000,  0.0000,  0.0000)
  41 H      7.770601    2.218258   17.508599    ( 0.0000,  0.0000,  0.0000)

Unit cell:
           periodic     x           y           z      points  spacing
  1. axis:    yes    9.702222    0.000000    0.000000    60     0.1617
  2. axis:    yes    0.000000    9.702222    0.000000    60     0.1617
  3. axis:    no     0.000000    0.000000   24.851111   156     0.1593

  Lengths:   9.702222   9.702222  24.851111
  Angles:   90.000000  90.000000  90.000000

Effective grid spacing dv^(1/3) = 0.1609

     iter     time        total  log10-change:
                         energy  eigst   dens
iter:   1 00:17:22  -247.253578  -0.89
iter:   2 00:19:45  -247.248084  -1.78  -1.98
iter:   3 00:22:17  -247.247437c -2.42  -2.23
iter:   4 00:24:40  -247.249420c -2.55  -2.33
Writing to output.gpw (mode='')

iter:   5 00:27:19  -247.242802c -2.28  -2.24
iter:   6 00:29:42  -247.241940c -2.32  -2.64
iter:   7 00:31:59  -247.242101c -2.50  -2.87
iter:   8 00:34:16  -247.242118c -3.16  -2.84
iter:   9 00:36:38  -247.242231c -3.32  -2.87
Writing to output.gpw (mode='')

iter:  10 00:39:34  -247.242074c -3.62  -2.98
iter:  11 00:41:59  -247.242058c -4.31  -3.19
iter:  12 00:44:28  -247.242013c -3.84  -3.33
iter:  13 00:46:43  -247.242028c -4.51  -3.44
iter:  14 00:49:03  -247.242040c -4.89  -3.52
Writing to output.gpw (mode='')

iter:  15 00:51:31  -247.242045c -4.44  -3.57
iter:  16 00:53:56  -247.242054c -4.92  -3.60
iter:  17 00:56:16  -247.242048c -5.12  -3.85
iter:  18 00:58:38  -247.242042c -5.32  -4.05c
iter:  19 01:01:06  -247.242041c -5.63  -4.21c
Writing to output.gpw (mode='')

iter:  20 01:03:49  -247.242041c -5.85  -4.30c
iter:  21 01:06:17  -247.242040c -5.91  -4.41c
iter:  22 01:08:44  -247.242039c -5.98  -4.56c
iter:  23 01:11:12  -247.242039c -6.29  -4.56c
iter:  24 01:13:35  -247.242042c -6.33  -4.57c
Writing to output.gpw (mode='')

iter:  25 01:16:14  -247.242042c -6.56  -4.72c
iter:  26 01:18:38  -247.242042c -6.62  -4.79c
iter:  27 01:21:04  -247.242043c -6.63  -4.90c
iter:  28 01:23:28  -247.242042c -6.90  -4.93c
iter:  29 01:25:50  -247.242042c -7.00  -5.06c
Writing to output.gpw (mode='')

iter:  30 01:28:32  -247.242042c -7.26  -5.19c
iter:  31 01:30:52  -247.242042c -7.33  -5.26c
iter:  32 01:33:16  -247.242042c -7.33  -5.31c
