
  ___ ___ ___ _ _ _  
 |   |   |_  | | | | 
 | | | | | . | | | | 
 |__ |  _|___|_____|  22.8.0
 |___|_|             

User:   vazumah@c10.hercules
Date:   Fri Feb 17 09:42:12 2023
Arch:   x86_64
Pid:    18853
CWD:    /home/vazumah/Python_projects/LiNRR/Li_adsorb_studies/proton_donors/ethanol_N2/Li_BCC_100/adsorbates/CH3CH2OH_z/ontop/9.702_9.702/N2_y
Python: 3.10.8
gpaw:   /home/vazumah/.conda/envs/GPAW/lib/python3.10/site-packages/gpaw
_gpaw:  /home/vazumah/.conda/envs/GPAW/lib/python3.10/site-packages/
        _gpaw.cpython-310-x86_64-linux-gnu.so
ase:    /home/vazumah/.conda/envs/GPAW/lib/python3.10/site-packages/ase (version 3.22.1)
numpy:  /home/vazumah/.conda/envs/GPAW/lib/python3.10/site-packages/numpy (version 1.24.1)
scipy:  /home/vazumah/.conda/envs/GPAW/lib/python3.10/site-packages/scipy (version 1.10.0)
libxc:  5.2.3
units:  Angstrom and eV
cores: 24
OpenMP: True
OMP_NUM_THREADS: 1

Reading from output.gpw
Reading input parameters:
  h: 0.16
  kpts: {size: [4, 4, 1]}
  occupations: {name: fermi-dirac,
                width: 0.05}
  poissonsolver: {dipolelayer: xy}
  xc: BEEF-vdW

Initialize ...

species:
  Li:
    name: Lithium
    id: 830b4218f175192f93f959cfc0aad614
    Z: 3.0
    valence: 1
    core: 2
    charge: 0.0
    file: /home/vazumah/.conda/envs/GPAW/share/gpaw/Li.PBE.gz
    compensation charges: {type: gauss,
                           rc: 0.33,
                           lmax: 2}
    cutoffs: {filter: 1.91,
              core: 2.55}
    valence states:
      #              energy  rcut
      - 2s(1.00)    -2.874   1.058
      - 2p(0.00)    -1.090   1.058
      -  s          24.337   1.058
  
    # Using partial waves for Li as LCAO basis

  O:
    name: Oxygen
    id: 32ecd46bf208036f09c70b0ec9a88b78
    Z: 8.0
    valence: 6
    core: 2
    charge: 0.0
    file: /home/vazumah/.conda/envs/GPAW/share/gpaw/O.PBE.gz
    compensation charges: {type: gauss,
                           rc: 0.21,
                           lmax: 2}
    cutoffs: {filter: 1.17,
              core: 0.83}
    valence states:
      #              energy  rcut
      - 2s(2.00)   -23.961   0.688
      - 2p(4.00)    -9.029   0.598
      -  s           3.251   0.688
      -  p          18.182   0.598
      -  d           0.000   0.619
  
    # Using partial waves for O as LCAO basis

  C:
    name: Carbon
    id: 4aa54d4b901d75f77cc0ea3eec22967b
    Z: 6.0
    valence: 4
    core: 2
    charge: 0.0
    file: /home/vazumah/.conda/envs/GPAW/share/gpaw/C.PBE.gz
    compensation charges: {type: gauss,
                           rc: 0.20,
                           lmax: 2}
    cutoffs: {filter: 1.14,
              core: 1.14}
    valence states:
      #              energy  rcut
      - 2s(2.00)   -13.751   0.635
      - 2p(2.00)    -5.284   0.635
      -  s          13.461   0.635
      -  p          21.927   0.635
      -  d           0.000   0.635
  
    # Using partial waves for C as LCAO basis

  H:
    name: Hydrogen
    id: d65de229564ff8ea4db303e23b6d1ecf
    Z: 1.0
    valence: 1
    core: 0
    charge: 0.0
    file: /home/vazumah/.conda/envs/GPAW/share/gpaw/H.PBE.gz
    compensation charges: {type: gauss,
                           rc: 0.15,
                           lmax: 2}
    cutoffs: {filter: 0.85,
              core: 0.53}
    valence states:
      #              energy  rcut
      - 1s(1.00)    -6.494   0.476
      -  s          20.717   0.476
      -  p           0.000   0.476
  
    # Using partial waves for H as LCAO basis

  N:
    name: Nitrogen
    id: f7500608b86eaa90eef8b1d9a670dc53
    Z: 7.0
    valence: 5
    core: 2
    charge: 0.0
    file: /home/vazumah/.conda/envs/GPAW/share/gpaw/N.PBE.gz
    compensation charges: {type: gauss,
                           rc: 0.18,
                           lmax: 2}
    cutoffs: {filter: 1.11,
              core: 0.96}
    valence states:
      #              energy  rcut
      - 2s(2.00)   -18.583   0.603
      - 2p(3.00)    -7.089   0.529
      -  s           8.629   0.603
      -  p          20.123   0.529
      -  d           0.000   0.577
  
    # Using partial waves for N as LCAO basis

Reference energy: -14434.854043  # eV

Spin-paired calculation

Convergence criteria:
 Maximum [total energy] change in last 3 cyles: 0.0005 eV / electron
 Maximum integral of absolute [dens]ity change: 0.0001 electrons / valence electron
 Maximum integral of absolute [eigenst]ate change: 4e-08 eV^2 / valence electron
 Maximum number of scf [iter]ations: 333
 (Square brackets indicate name in SCF output, whereas a 'c' in
 the SCF output indicates the quantity has converged.)

Symmetries present (total): 1

  ( 1  0  0)
  ( 0  1  0)
  ( 0  0  1)

16 k-points: 4 x 4 x 1 Monkhorst-Pack grid
8 k-points in the irreducible part of the Brillouin zone
       k-points in crystal coordinates                weights
   0:     0.12500000   -0.37500000    0.00000000          2/16
   1:     0.12500000   -0.12500000    0.00000000          2/16
   2:     0.12500000    0.12500000    0.00000000          2/16
   3:     0.12500000    0.37500000    0.00000000          2/16
   4:     0.37500000   -0.37500000    0.00000000          2/16
   5:     0.37500000   -0.12500000    0.00000000          2/16
   6:     0.37500000    0.12500000    0.00000000          2/16
   7:     0.37500000    0.37500000    0.00000000          2/16

Wave functions: Uniform real-space grid
  Kinetic energy operator: 6*3+1=19 point O(h^6) finite-difference Laplacian
  ScaLapack parameters: grid=1x1, blocksize=None
  Wavefunction extrapolation:
    Improved wavefunction reuse through dual PAW basis 

Occupation numbers: Fermi-Dirac:
  width: 0.0500  # eV
 

Eigensolver
   Davidson(niter=2) 

Densities:
  Coarse grid: 60*60*156 grid
  Fine grid: 120*120*312 grid
  Total Charge: 0.000000 

Density mixing:
  Method: separate
  Backend: pulay
  Linear mixing parameter: 0.05
  old densities: 5
  Damping of long wavelength oscillations: 50 

Hamiltonian:
  XC and Coulomb potentials evaluated on a 120*120*312 grid
  Using the BEEF-vdW Exchange-Correlation functional
  Interpolation: tri-quintic (5. degree polynomial)
  Poisson solver: FastPoissonSolver using
    Stencil: 6*3+1=19 point O(h^6) finite-difference Laplacian
    FFT axes: [0, 1]
    FST axes: [2]

Dipole correction along z-axis 

XC parameters: BEEF-vdW with 2 nearest neighbor stencil

Memory estimate:
  Process memory now: 219.05 MiB
  Calculator: 411.72 MiB
    Density: 118.00 MiB
      Arrays: 36.75 MiB
      Localized functions: 67.24 MiB
      Mixer: 14.01 MiB
    Hamiltonian: 29.35 MiB
      Arrays: 24.03 MiB
      XC: 0.00 MiB
      Poisson: 0.00 MiB
      vbar: 5.32 MiB
    Wavefunctions: 264.37 MiB
      Arrays psit_nG: 123.27 MiB
      Eigensolver: 137.57 MiB
      Projections: 0.06 MiB
      Projectors: 3.47 MiB

Total number of cores used: 24
Parallelization over k-points: 8
Domain decomposition: 1 x 1 x 3

Number of atoms: 47
Number of atomic orbitals: 170
Number of bands in calculation: 44
Number of valence electrons: 66
Bands to converge: occupied

... initialized

Initializing position-dependent things.

Creating initial wave functions:
  44 bands from LCAO basis set

       .-----------------------.  
      /|                       |  
     / |                       |  
    /  |                       |  
   /   H                       |  
  /    |                       |  
 *     |                    H  C  
 |     | H                     |  
 |     |                       |  
 |  H  |               H       |  
 |    N|                       |  
 |    N|                       |  
 |     |               H O     |  
 |     |                       |  
 |   Li|     Li      Li        |  
 |     |  Li      Li      Li   |  
 | Li  |   Li      Li          |  
 |     |Li      Li      Li     |  
 |     | Li      Li      Li    |  
 |   LLi     LLi     LLi       |  
 |     |  Li      Li      Li   |  
 | Li  |   Li      Li          |  
 |     |Li      Li      Li     |  
 Li    | Li      Li            |  
 |    Li      Li      Li       |  
 |     |                       |  
 |     |                       |  
 |     |                       |  
 |     |                       |  
 |     |                       |  
 |     |                       |  
 |     .-----------------------.  
 |    /                       /   
 |   /                       /    
 |  /                       /     
 | /                       /      
 |/                       /       
 *-----------------------*        

Positions:
   0 Li     1.617037    1.617037   10.000000    ( 0.0000,  0.0000,  0.0000)
   1 Li     4.851111    1.617037   10.000000    ( 0.0000,  0.0000,  0.0000)
   2 Li     8.085185    1.617037   10.000000    ( 0.0000,  0.0000,  0.0000)
   3 Li     1.617037    4.851111   10.000000    ( 0.0000,  0.0000,  0.0000)
   4 Li     4.851111    4.851111   10.000000    ( 0.0000,  0.0000,  0.0000)
   5 Li     8.085185    4.851111   10.000000    ( 0.0000,  0.0000,  0.0000)
   6 Li     1.617037    8.085185   10.000000    ( 0.0000,  0.0000,  0.0000)
   7 Li     4.851111    8.085185   10.000000    ( 0.0000,  0.0000,  0.0000)
   8 Li     8.085185    8.085185   10.000000    ( 0.0000,  0.0000,  0.0000)
   9 Li     0.000000    0.000000   11.617037    ( 0.0000,  0.0000,  0.0000)
  10 Li     3.234074    0.000000   11.617037    ( 0.0000,  0.0000,  0.0000)
  11 Li     6.468148    0.000000   11.617037    ( 0.0000,  0.0000,  0.0000)
  12 Li     0.000000    3.234074   11.617037    ( 0.0000,  0.0000,  0.0000)
  13 Li     3.234074    3.234074   11.617037    ( 0.0000,  0.0000,  0.0000)
  14 Li     6.468148    3.234074   11.617037    ( 0.0000,  0.0000,  0.0000)
  15 Li     0.000000    6.468148   11.617037    ( 0.0000,  0.0000,  0.0000)
  16 Li     3.234074    6.468148   11.617037    ( 0.0000,  0.0000,  0.0000)
  17 Li     6.468148    6.468148   11.617037    ( 0.0000,  0.0000,  0.0000)
  18 Li     1.580936    1.603369   13.521701    ( 0.0000,  0.0000,  0.0000)
  19 Li     4.848966    1.646218   13.466234    ( 0.0000,  0.0000,  0.0000)
  20 Li     8.123411    1.604050   13.523404    ( 0.0000,  0.0000,  0.0000)
  21 Li     1.579311    4.859479   13.515313    ( 0.0000,  0.0000,  0.0000)
  22 Li     4.855620    4.812642   13.457479    ( 0.0000,  0.0000,  0.0000)
  23 Li     8.127422    4.862220   13.518038    ( 0.0000,  0.0000,  0.0000)
  24 Li     1.601316    8.100264   13.469764    ( 0.0000,  0.0000,  0.0000)
  25 Li     4.848652    8.096177   13.468271    ( 0.0000,  0.0000,  0.0000)
  26 Li     8.103490    8.097487   13.477268    ( 0.0000,  0.0000,  0.0000)
  27 Li    -0.016045    0.021880   15.616706    ( 0.0000,  0.0000,  0.0000)
  28 Li     3.286338    0.033555   15.405904    ( 0.0000,  0.0000,  0.0000)
  29 Li     6.416532    0.026560   15.400167    ( 0.0000,  0.0000,  0.0000)
  30 Li     0.001655    3.257402   15.512905    ( 0.0000,  0.0000,  0.0000)
  31 Li     3.229375    3.235426   15.449059    ( 0.0000,  0.0000,  0.0000)
  32 Li     6.476959    3.231516   15.444052    ( 0.0000,  0.0000,  0.0000)
  33 Li     0.001008    6.483385   15.554156    ( 0.0000,  0.0000,  0.0000)
  34 Li     3.302764    6.434382   15.355054    ( 0.0000,  0.0000,  0.0000)
  35 Li     6.415661    6.444763   15.360749    ( 0.0000,  0.0000,  0.0000)
  36 O      9.595155   10.457876   19.542158    ( 0.0000,  0.0000,  0.0000)
  37 C      9.665751    9.294386   20.382489    ( 0.0000,  0.0000,  0.0000)
  38 C      9.742333    9.626837   21.863623    ( 0.0000,  0.0000,  0.0000)
  39 H      8.809883    8.634912   20.192826    ( 0.0000,  0.0000,  0.0000)
  40 H     10.567266    8.768950   20.058092    ( 0.0000,  0.0000,  0.0000)
  41 H      9.829513    8.705640   22.443517    ( 0.0000,  0.0000,  0.0000)
  42 H     10.609695   10.251206   22.080781    ( 0.0000,  0.0000,  0.0000)
  43 H      8.841925   10.151722   22.197161    ( 0.0000,  0.0000,  0.0000)
  44 H      8.766612   10.914831   19.733367    ( 0.0000,  0.0000,  0.0000)
  45 N      9.771873    8.288137   17.002187    ( 0.0000,  0.0000,  0.0000)
  46 N      9.841972    7.395873   17.695990    ( 0.0000,  0.0000,  0.0000)

Unit cell:
           periodic     x           y           z      points  spacing
  1. axis:    yes    9.702222    0.000000    0.000000    60     0.1617
  2. axis:    yes    0.000000    9.702222    0.000000    60     0.1617
  3. axis:    no     0.000000    0.000000   24.851111   156     0.1593

  Lengths:   9.702222   9.702222  24.851111
  Angles:   90.000000  90.000000  90.000000

Effective grid spacing dv^(1/3) = 0.1609

     iter     time        total  log10-change:
                         energy  eigst   dens
iter:   1 09:45:59  -307.839740  +1.11
iter:   2 09:48:34  -308.513878  +0.40  -1.73
iter:   3 09:51:15  -308.670595  -0.09  -2.03
iter:   4 09:53:52  -308.729921  -0.50  -2.26
Writing to output.gpw (mode='')

iter:   5 09:56:29  -308.755572  -0.86  -2.50
iter:   6 09:59:03  -308.767280  -1.19  -2.62
iter:   7 10:01:43  -308.772496c -1.46  -2.76
iter:   8 10:04:18  -308.776147c -1.70  -2.99
iter:   9 10:06:54  -308.778416c -1.90  -3.06
Writing to output.gpw (mode='')

iter:  10 10:09:26  -308.779978c -2.06  -3.03
iter:  11 10:11:58  -308.781116c -2.23  -2.97
iter:  12 10:14:26  -308.782041c -2.31  -2.89
iter:  13 10:16:57  -308.782681c -2.46  -2.74
iter:  14 10:19:35  -308.783076c -2.56  -2.69
Writing to output.gpw (mode='')

iter:  15 10:22:15  -308.782812c -2.78  -2.66
iter:  16 10:24:44  -308.782855c -2.89  -2.85
iter:  17 10:27:18  -308.783033c -2.93  -2.93
iter:  18 10:29:54  -308.782936c -3.21  -2.88
iter:  19 10:32:32  -308.782989c -3.21  -3.06
Writing to output.gpw (mode='')

iter:  20 10:35:01  -308.783034c -3.52  -3.18
iter:  21 10:37:29  -308.783103c -3.60  -3.19
iter:  22 10:40:00  -308.783106c -3.68  -3.30
iter:  23 10:42:37  -308.783129c -3.96  -3.41
iter:  24 10:45:14  -308.783163c -3.95  -3.43
Writing to output.gpw (mode='')

iter:  25 10:47:48  -308.783161c -4.26  -3.56
iter:  26 10:50:22  -308.783163c -4.16  -3.70
iter:  27 10:52:52  -308.783167c -4.46  -3.85
iter:  28 10:55:30  -308.783174c -4.52  -3.87
iter:  29 10:58:08  -308.783181c -4.68  -3.87
Writing to output.gpw (mode='')

iter:  30 11:00:51  -308.783194c -4.84  -3.91
iter:  31 11:03:26  -308.783199c -4.76  -4.10c
iter:  32 11:06:00  -308.783199c -5.01  -4.11c
iter:  33 11:08:36  -308.783202c -4.95  -4.15c
iter:  34 11:11:19  -308.783211c -5.12  -4.17c
Writing to output.gpw (mode='')

iter:  35 11:14:01  -308.783213c -5.16  -4.27c
iter:  36 11:16:44  -308.783213c -5.24  -4.35c
iter:  37 11:19:25  -308.783211c -5.21  -4.36c
iter:  38 11:22:06  -308.783212c -5.48  -4.42c
iter:  39 11:24:47  -308.783213c -5.57  -4.49c
Writing to output.gpw (mode='')

iter:  40 11:27:30  -308.783214c -5.63  -4.52c
iter:  41 11:30:09  -308.783217c -5.57  -4.58c
iter:  42 11:32:47  -308.783216c -5.65  -4.83c
iter:  43 11:35:23  -308.783217c -5.75  -5.00c
iter:  44 11:37:59  -308.783217c -5.88  -5.03c
Writing to output.gpw (mode='')

iter:  45 11:40:39  -308.783218c -6.01  -5.04c
iter:  46 11:43:10  -308.783218c -6.08  -4.99c
iter:  47 11:45:49  -308.783218c -6.13  -4.95c
iter:  48 11:48:25  -308.783218c -6.16  -4.93c
iter:  49 11:51:09  -308.783219c -6.03  -4.91c
Writing to output.gpw (mode='')

iter:  50 11:53:38  -308.783218c -6.43  -4.92c
iter:  51 11:56:18  -308.783218c -6.48  -4.80c
iter:  52 11:58:58  -308.783219c -6.36  -4.86c
iter:  53 12:01:36  -308.783219c -6.42  -4.85c
iter:  54 12:04:11  -308.783219c -6.64  -4.86c
Writing to output.gpw (mode='')

iter:  55 12:06:48  -308.783218c -6.56  -4.82c
iter:  56 12:09:16  -308.783220c -6.52  -4.74c
iter:  57 12:11:52  -308.783220c -6.65  -4.86c
iter:  58 12:14:24  -308.783222c -6.52  -4.93c
iter:  59 12:16:55  -308.783222c -6.76  -4.98c
Writing to output.gpw (mode='')

iter:  60 12:19:29  -308.783222c -6.53  -5.00c
iter:  61 12:22:04  -308.783223c -6.75  -5.01c
iter:  62 12:24:37  -308.783223c -7.01  -5.16c
iter:  63 12:27:15  -308.783223c -7.01  -5.20c
iter:  64 12:29:52  -308.783223c -7.10  -5.22c
Writing to output.gpw (mode='')

iter:  65 12:32:28  -308.783223c -7.01  -5.37c
iter:  66 12:35:13  -308.783223c -7.25  -5.49c
iter:  67 12:37:47  -308.783223c -7.08  -5.59c
iter:  68 12:40:24  -308.783223c -7.38  -5.64c
iter:  69 12:43:00  -308.783223c -7.39  -5.74c
Writing to output.gpw (mode='')

iter:  70 12:45:32  -308.783223c -7.57c -5.82c

Converged after 70 iterations.

Dipole moment: (-26.396414, 5.387808, 0.213019) |e|*Ang

Energy contributions relative to reference atoms: (reference = -14434.854043)

Kinetic:       +149.856419
Potential:     -144.959265
External:        +0.000000
XC:            -314.362785
Entropy (-ST):   -0.149985
Local:           +0.757402
--------------------------
Free energy:   -308.858216
Extrapolated:  -308.783223

Dipole-layer corrected work functions: 3.401818, 2.992322 eV

Showing only first 2 kpts
 Kpt  Band  Eigenvalues  Occupancy
  0    31     -3.43983    1.98455
  0    32     -3.38540    1.95479
  0    33     -3.04321    0.08812
  0    34     -2.99444    0.03416

  1    31     -3.23913    1.39747
  1    32     -3.18880    0.91750
  1    33     -3.15616    0.61232
  1    34     -3.10735    0.28506


Fermi level: -3.19707

No gap

Forces in eV/Ang:
  0 Li   -0.00297    0.01428   -0.27119
  1 Li    0.00088   -0.00225   -0.28354
  2 Li    0.00116    0.01194   -0.27412
  3 Li   -0.00398   -0.01740   -0.27533
  4 Li   -0.00007   -0.00032   -0.28268
  5 Li    0.00348   -0.01616   -0.27472
  6 Li    0.01729    0.00195   -0.26558
  7 Li    0.00247    0.00247   -0.27527
  8 Li   -0.01928    0.00239   -0.26635
  9 Li   -0.00141    0.01702    0.27342
 10 Li    0.01219    0.01853    0.27344
 11 Li   -0.01081    0.01589    0.27552
 12 Li    0.00030   -0.00950    0.23661
 13 Li   -0.05653   -0.00126    0.27752
 14 Li    0.05945   -0.00108    0.27979
 15 Li    0.00109    0.00019    0.30223
 16 Li    0.00391   -0.01367    0.29320
 17 Li   -0.00407   -0.01050    0.29006
 18 Li    0.00479    0.00356    0.00121
 19 Li    0.00080   -0.00723   -0.00111
 20 Li   -0.00646    0.00515    0.00013
 21 Li    0.00802   -0.00235   -0.00812
 22 Li   -0.00129    0.00698    0.00170
 23 Li   -0.00832   -0.00190   -0.00846
 24 Li   -0.00492    0.00212   -0.00177
 25 Li    0.00055   -0.00281   -0.00516
 26 Li    0.00411    0.00094   -0.00093
 27 Li   -0.00161   -0.02751    0.01986
 28 Li   -0.00806   -0.00896   -0.00352
 29 Li    0.00816   -0.00985   -0.00215
 30 Li    0.00006   -0.00107    0.00070
 31 Li    0.00099    0.00223   -0.00607
 32 Li   -0.00039    0.00152   -0.00703
 33 Li   -0.00149    0.01004   -0.01405
 34 Li   -0.00007    0.00596    0.00533
 35 Li    0.00125    0.00755    0.00467
 36 O    -0.00732    0.02346   -0.02663
 37 C     0.00001    0.02222    0.00980
 38 C     0.01221   -0.00710    0.01491
 39 H     0.00774   -0.02060   -0.04834
 40 H    -0.04953    0.01792    0.03679
 41 H    -0.01774   -0.00568    0.02148
 42 H    -0.00390    0.04371   -0.01862
 43 H     0.03987   -0.01323   -0.01071
 44 H    -0.00012    0.01338   -0.00127
 45 N    -0.01805   -0.06224    0.01961
 46 N    -0.03186   -0.00118   -0.08499

System changes: positions 

Initializing position-dependent things.

Density initialized from wave functions
       .-----------------------.  
      /|                       |  
     / |                       |  
    /  |                       |  
   /   H                       |  
  /    |                       |  
 *     |                    H  C  
 |     | H                     |  
 |     |                       |  
 |  H  |               H       |  
 |    N|                       |  
 |    N|                       |  
 |     |               H O     |  
 |     |                       |  
 |   Li|     Li      Li        |  
 |     |  Li      Li      Li   |  
 | Li  |   Li      Li          |  
 |     |Li      Li      LLi    |  
 |     | Li      Li            |  
 |   LLi     LLi     LLi       |  
 |     |  Li      Li      Li   |  
 | Li  |   Li      Li          |  
 |     |Li      Li      Li     |  
 Li    | Li      Li            |  
 |    Li      Li      Li       |  
 |     |                       |  
 |     |                       |  
 |     |                       |  
 |     |                       |  
 |     |                       |  
 |     |                       |  
 |     .-----------------------.  
 |    /                       /   
 |   /                       /    
 |  /                       /     
 | /                       /      
 |/                       /       
 *-----------------------*        

Positions:
   0 Li     1.617037    1.617037   10.000000    ( 0.0000,  0.0000,  0.0000)
   1 Li     4.851111    1.617037   10.000000    ( 0.0000,  0.0000,  0.0000)
   2 Li     8.085185    1.617037   10.000000    ( 0.0000,  0.0000,  0.0000)
   3 Li     1.617037    4.851111   10.000000    ( 0.0000,  0.0000,  0.0000)
   4 Li     4.851111    4.851111   10.000000    ( 0.0000,  0.0000,  0.0000)
   5 Li     8.085185    4.851111   10.000000    ( 0.0000,  0.0000,  0.0000)
   6 Li     1.617037    8.085185   10.000000    ( 0.0000,  0.0000,  0.0000)
   7 Li     4.851111    8.085185   10.000000    ( 0.0000,  0.0000,  0.0000)
   8 Li     8.085185    8.085185   10.000000    ( 0.0000,  0.0000,  0.0000)
   9 Li     0.000000    0.000000   11.617037    ( 0.0000,  0.0000,  0.0000)
  10 Li     3.234074    0.000000   11.617037    ( 0.0000,  0.0000,  0.0000)
  11 Li     6.468148    0.000000   11.617037    ( 0.0000,  0.0000,  0.0000)
  12 Li     0.000000    3.234074   11.617037    ( 0.0000,  0.0000,  0.0000)
  13 Li     3.234074    3.234074   11.617037    ( 0.0000,  0.0000,  0.0000)
  14 Li     6.468148    3.234074   11.617037    ( 0.0000,  0.0000,  0.0000)
  15 Li     0.000000    6.468148   11.617037    ( 0.0000,  0.0000,  0.0000)
  16 Li     3.234074    6.468148   11.617037    ( 0.0000,  0.0000,  0.0000)
  17 Li     6.468148    6.468148   11.617037    ( 0.0000,  0.0000,  0.0000)
  18 Li     1.583617    1.601279   13.523525    ( 0.0000,  0.0000,  0.0000)
  19 Li     4.848998    1.648092   13.470928    ( 0.0000,  0.0000,  0.0000)
  20 Li     8.121818    1.602495   13.524990    ( 0.0000,  0.0000,  0.0000)
  21 Li     1.576732    4.859821   13.520920    ( 0.0000,  0.0000,  0.0000)
  22 Li     4.855997    4.809100   13.460558    ( 0.0000,  0.0000,  0.0000)
  23 Li     8.130987    4.862383   13.524125    ( 0.0000,  0.0000,  0.0000)
  24 Li     1.602393    8.096949   13.475683    ( 0.0000,  0.0000,  0.0000)
  25 Li     4.848924    8.097421   13.471688    ( 0.0000,  0.0000,  0.0000)
  26 Li     8.103211    8.093522   13.483775    ( 0.0000,  0.0000,  0.0000)
  27 Li    -0.018670    0.012398   15.626925    ( 0.0000,  0.0000,  0.0000)
  28 Li     3.288220    0.037276   15.412626    ( 0.0000,  0.0000,  0.0000)
  29 Li     6.414862    0.030009   15.406864    ( 0.0000,  0.0000,  0.0000)
  30 Li     0.002420    3.248570   15.515778    ( 0.0000,  0.0000,  0.0000)
  31 Li     3.227359    3.234697   15.458139    ( 0.0000,  0.0000,  0.0000)
  32 Li     6.479233    3.230632   15.452712    ( 0.0000,  0.0000,  0.0000)
  33 Li     0.001617    6.470341   15.573841    ( 0.0000,  0.0000,  0.0000)
  34 Li     3.303386    6.432973   15.357661    ( 0.0000,  0.0000,  0.0000)
  35 Li     6.415352    6.443165   15.363057    ( 0.0000,  0.0000,  0.0000)
  36 O      9.591711   10.466552   19.530597    ( 0.0000,  0.0000,  0.0000)
  37 C      9.667482    9.302280   20.368785    ( 0.0000,  0.0000,  0.0000)
  38 C      9.738921    9.642283   21.847685    ( 0.0000,  0.0000,  0.0000)
  39 H      8.812655    8.643505   20.175158    ( 0.0000,  0.0000,  0.0000)
  40 H     10.571330    8.780298   20.043330    ( 0.0000,  0.0000,  0.0000)
  41 H      9.821589    8.727875   22.437537    ( 0.0000,  0.0000,  0.0000)
  42 H     10.604794   10.268484   22.060921    ( 0.0000,  0.0000,  0.0000)
  43 H      8.840426   10.178587   22.167564    ( 0.0000,  0.0000,  0.0000)
  44 H      8.762621   10.921826   19.723750    ( 0.0000,  0.0000,  0.0000)
  45 N      9.773467    8.276302   17.011317    ( 0.0000,  0.0000,  0.0000)
  46 N      9.841119    7.375430   17.694809    ( 0.0000,  0.0000,  0.0000)

Unit cell:
           periodic     x           y           z      points  spacing
  1. axis:    yes    9.702222    0.000000    0.000000    60     0.1617
  2. axis:    yes    0.000000    9.702222    0.000000    60     0.1617
  3. axis:    no     0.000000    0.000000   24.851111   156     0.1593

  Lengths:   9.702222   9.702222  24.851111
  Angles:   90.000000  90.000000  90.000000

Effective grid spacing dv^(1/3) = 0.1609

     iter     time        total  log10-change:
                         energy  eigst   dens
iter:   1 12:48:52  -308.978063  -0.63
iter:   2 12:51:28  -308.854576  -1.09  -1.45
iter:   3 12:54:04  -308.796604  -2.24  -1.65
iter:   4 12:56:37  -308.794199  -2.72  -2.05
Writing to output.gpw (mode='')

iter:   5 12:59:16  -308.785399c -1.58  -2.09
iter:   6 13:01:47  -308.785605c -2.71  -2.34
iter:   7 13:04:24  -308.784121c -2.71  -2.53
iter:   8 13:07:08  -308.783526c -2.21  -2.67
iter:   9 13:09:39  -308.783428c -3.03  -2.61
Writing to output.gpw (mode='')

iter:  10 13:12:19  -308.783280c -3.46  -2.96
iter:  11 13:14:53  -308.783331c -3.67  -3.07
iter:  12 13:17:30  -308.783331c -3.86  -3.17
iter:  13 13:20:12  -308.783333c -4.11  -3.21
iter:  14 13:22:37  -308.783264c -4.31  -3.31
Writing to output.gpw (mode='')

iter:  15 13:25:12  -308.783285c -4.47  -3.56
iter:  16 13:27:46  -308.783295c -4.99  -3.61
iter:  17 13:30:36  -308.783329c -4.57  -3.65
iter:  18 13:33:08  -308.783304c -5.07  -3.85
iter:  19 13:35:48  -308.783309c -5.59  -3.94
Writing to output.gpw (mode='')

iter:  20 13:38:33  -308.783308c -5.54  -3.99
iter:  21 13:41:12  -308.783309c -5.48  -4.11c
iter:  22 13:43:50  -308.783307c -5.73  -4.25c
iter:  23 13:46:21  -308.783307c -6.10  -4.25c
iter:  24 13:48:50  -308.783309c -6.12  -4.29c
Writing to output.gpw (mode='')

iter:  25 13:51:32  -308.783310c -6.36  -4.63c
iter:  26 13:54:05  -308.783311c -6.28  -4.69c
iter:  27 13:56:37  -308.783313c -6.39  -4.74c
iter:  28 13:59:14  -308.783312c -6.81  -4.73c
iter:  29 14:01:50  -308.783311c -6.81  -4.76c
Writing to output.gpw (mode='')

iter:  30 14:04:30  -308.783311c -7.14  -5.06c
iter:  31 14:07:05  -308.783311c -7.03  -5.15c
iter:  32 14:09:38  -308.783311c -7.04  -5.25c
iter:  33 14:12:08  -308.783312c -7.16  -5.31c
iter:  34 14:14:46  -308.783311c -7.48c -5.42c

Converged after 34 iterations.

Dipole moment: (-26.109290, 4.596479, 0.212505) |e|*Ang

Energy contributions relative to reference atoms: (reference = -14434.854043)

Kinetic:       +149.792455
Potential:     -144.915648
External:        +0.000000
XC:            -314.343388
Entropy (-ST):   -0.150748
Local:           +0.758643
--------------------------
Free energy:   -308.858686
Extrapolated:  -308.783311

Dipole-layer corrected work functions: 3.401830, 2.993322 eV

Showing only first 2 kpts
 Kpt  Band  Eigenvalues  Occupancy
  0    31     -3.43753    1.98366
  0    32     -3.38476    1.95376
  0    33     -3.04459    0.08960
  0    34     -2.99655    0.03525

  1    31     -3.24120    1.41050
  1    32     -3.19011    0.92549
  1    33     -3.15644    0.61036
  1    34     -3.10986    0.29501


Fermi level: -3.19758

No gap
Writing to output.gpw (mode='')


Forces in eV/Ang:
  0 Li   -0.00304    0.01435   -0.27146
  1 Li    0.00086   -0.00193   -0.28269
  2 Li    0.00115    0.01200   -0.27449
  3 Li   -0.00419   -0.01723   -0.27528
  4 Li   -0.00012   -0.00023   -0.28277
  5 Li    0.00368   -0.01599   -0.27465
  6 Li    0.01728    0.00209   -0.26517
  7 Li    0.00249    0.00280   -0.27606
  8 Li   -0.01935    0.00256   -0.26599
  9 Li   -0.00132    0.01512    0.27598
 10 Li    0.01251    0.01702    0.27582
 11 Li   -0.01048    0.01432    0.27834
 12 Li    0.00066   -0.01033    0.23975
 13 Li   -0.05740   -0.00077    0.27903
 14 Li    0.06071   -0.00060    0.28147
 15 Li    0.00126    0.00035    0.30268
 16 Li    0.00432   -0.01493    0.29705
 17 Li   -0.00397   -0.01183    0.29410
 18 Li    0.00125    0.00309    0.00306
 19 Li    0.00077   -0.00848   -0.00308
 20 Li   -0.00423    0.00390    0.00240
 21 Li    0.01108   -0.00515   -0.01100
 22 Li   -0.00165    0.01006    0.00201
 23 Li   -0.01189   -0.00439   -0.01176
 24 Li   -0.00970    0.00430   -0.00157
 25 Li    0.00012   -0.00331   -0.00619
 26 Li    0.00799    0.00369   -0.00170
 27 Li    0.00203   -0.02348    0.02120
 28 Li   -0.01035   -0.01237   -0.00519
 29 Li    0.00968   -0.01289   -0.00440
 30 Li   -0.00032   -0.00194    0.00195
 31 Li    0.00308    0.00447   -0.00933
 32 Li   -0.00181    0.00327   -0.00997
 33 Li   -0.00222    0.01295   -0.02471
 34 Li    0.00159    0.00688    0.00651
 35 Li    0.00011    0.00882    0.00638
 36 O     0.02334    0.01785   -0.04807
 37 C    -0.00086    0.02907   -0.02624
 38 C    -0.00122    0.02323   -0.00123
 39 H     0.00610   -0.05617   -0.03232
 40 H    -0.07467    0.02303    0.06131
 41 H    -0.02817   -0.01889    0.04824
 42 H     0.03201    0.04251    0.00027
 43 H     0.01517   -0.04438    0.01357
 44 H    -0.00313    0.01052   -0.00300
 45 N     0.03357   -0.08080    0.00640
 46 N    -0.02015    0.01230   -0.02876

System changes: positions 

Initializing position-dependent things.

Density initialized from wave functions
       .-----------------------.  
      /|                       |  
     / |                       |  
    /  |                       |  
   /   H                       |  
  /    |                       |  
 *     |                    H  C  
 |     | H                     |  
 |     |                       |  
 |  H  |               H       |  
 |    N|                       |  
 |    N|                       |  
 |     |               H O     |  
 |     |                       |  
 |   Li|     Li      Li        |  
 |     |  Li      Li      Li   |  
 | Li  |   Li      Li          |  
 |     |Li      Li      LLi    |  
 |     | Li      Li            |  
 |   LLi     LLi     LLi       |  
 |     |  Li      Li      Li   |  
 | Li  |   Li      Li          |  
 |     |Li      Li      Li     |  
 Li    | Li      Li            |  
 |    Li      Li      Li       |  
 |     |                       |  
 |     |                       |  
 |     |                       |  
 |     |                       |  
 |     |                       |  
 |     |                       |  
 |     .-----------------------.  
 |    /                       /   
 |   /                       /    
 |  /                       /     
 | /                       /      
 |/                       /       
 *-----------------------*        

Positions:
   0 Li     1.617037    1.617037   10.000000    ( 0.0000,  0.0000,  0.0000)
   1 Li     4.851111    1.617037   10.000000    ( 0.0000,  0.0000,  0.0000)
   2 Li     8.085185    1.617037   10.000000    ( 0.0000,  0.0000,  0.0000)
   3 Li     1.617037    4.851111   10.000000    ( 0.0000,  0.0000,  0.0000)
   4 Li     4.851111    4.851111   10.000000    ( 0.0000,  0.0000,  0.0000)
   5 Li     8.085185    4.851111   10.000000    ( 0.0000,  0.0000,  0.0000)
   6 Li     1.617037    8.085185   10.000000    ( 0.0000,  0.0000,  0.0000)
   7 Li     4.851111    8.085185   10.000000    ( 0.0000,  0.0000,  0.0000)
   8 Li     8.085185    8.085185   10.000000    ( 0.0000,  0.0000,  0.0000)
   9 Li     0.000000    0.000000   11.617037    ( 0.0000,  0.0000,  0.0000)
  10 Li     3.234074    0.000000   11.617037    ( 0.0000,  0.0000,  0.0000)
  11 Li     6.468148    0.000000   11.617037    ( 0.0000,  0.0000,  0.0000)
  12 Li     0.000000    3.234074   11.617037    ( 0.0000,  0.0000,  0.0000)
  13 Li     3.234074    3.234074   11.617037    ( 0.0000,  0.0000,  0.0000)
  14 Li     6.468148    3.234074   11.617037    ( 0.0000,  0.0000,  0.0000)
  15 Li     0.000000    6.468148   11.617037    ( 0.0000,  0.0000,  0.0000)
  16 Li     3.234074    6.468148   11.617037    ( 0.0000,  0.0000,  0.0000)
  17 Li     6.468148    6.468148   11.617037    ( 0.0000,  0.0000,  0.0000)
  18 Li     1.581884    1.600625   13.526700    ( 0.0000,  0.0000,  0.0000)
  19 Li     4.849048    1.646512   13.469959    ( 0.0000,  0.0000,  0.0000)
  20 Li     8.123121    1.601975   13.528113    ( 0.0000,  0.0000,  0.0000)
  21 Li     1.578080    4.858337   13.518773    ( 0.0000,  0.0000,  0.0000)
  22 Li     4.855845    4.811120   13.459914    ( 0.0000,  0.0000,  0.0000)
  23 Li     8.129341    4.861049   13.521884    ( 0.0000,  0.0000,  0.0000)
  24 Li     1.600520    8.098714   13.476482    ( 0.0000,  0.0000,  0.0000)
  25 Li     4.848928    8.097444   13.470392    ( 0.0000,  0.0000,  0.0000)
  26 Li     8.104828    8.095223   13.484713    ( 0.0000,  0.0000,  0.0000)
  27 Li    -0.018925    0.011654   15.632652    ( 0.0000,  0.0000,  0.0000)
  28 Li     3.286566    0.035448   15.411562    ( 0.0000,  0.0000,  0.0000)
  29 Li     6.416457    0.028049   15.405819    ( 0.0000,  0.0000,  0.0000)
  30 Li     0.002240    3.248564   15.518296    ( 0.0000,  0.0000,  0.0000)
  31 Li     3.228374    3.235301   15.455411    ( 0.0000,  0.0000,  0.0000)
  32 Li     6.478258    3.231141   15.450029    ( 0.0000,  0.0000,  0.0000)
  33 Li     0.001364    6.475072   15.568780    ( 0.0000,  0.0000,  0.0000)
  34 Li     3.303149    6.434327   15.357621    ( 0.0000,  0.0000,  0.0000)
  35 Li     6.415734    6.444855   15.363017    ( 0.0000,  0.0000,  0.0000)
  36 O      9.593112   10.467521   19.534097    ( 0.0000,  0.0000,  0.0000)
  37 C      9.666572    9.301815   20.370134    ( 0.0000,  0.0000,  0.0000)
  38 C      9.740408    9.638225   21.849897    ( 0.0000,  0.0000,  0.0000)
  39 H      8.811108    8.643956   20.173783    ( 0.0000,  0.0000,  0.0000)
  40 H     10.568843    8.779112   20.045088    ( 0.0000,  0.0000,  0.0000)
  41 H      9.824389    8.722809   22.438803    ( 0.0000,  0.0000,  0.0000)
  42 H     10.605807   10.265203   22.064116    ( 0.0000,  0.0000,  0.0000)
  43 H      8.842478   10.172531   22.171860    ( 0.0000,  0.0000,  0.0000)
  44 H      8.761372   10.919642   19.721853    ( 0.0000,  0.0000,  0.0000)
  45 N      9.775804    8.275012   17.010116    ( 0.0000,  0.0000,  0.0000)
  46 N      9.839486    7.376733   17.696776    ( 0.0000,  0.0000,  0.0000)

Unit cell:
           periodic     x           y           z      points  spacing
  1. axis:    yes    9.702222    0.000000    0.000000    60     0.1617
  2. axis:    yes    0.000000    9.702222    0.000000    60     0.1617
  3. axis:    no     0.000000    0.000000   24.851111   156     0.1593

  Lengths:   9.702222   9.702222  24.851111
  Angles:   90.000000  90.000000  90.000000

Effective grid spacing dv^(1/3) = 0.1609

     iter     time        total  log10-change:
                         energy  eigst   dens
iter:   1 14:17:59  -308.785128  -2.20
iter:   2 14:20:35  -308.784758  -2.91  -2.63
iter:   3 14:23:10  -308.784644c -3.42  -2.73
iter:   4 14:25:39  -308.784344c -3.72  -2.81
Writing to output.gpw (mode='')

iter:   5 14:28:17  -308.784356c -3.73  -3.00
iter:   6 14:30:54  -308.784365c -4.11  -3.21
iter:   7 14:33:43  -308.784424c -3.46  -3.22
iter:   8 14:36:15  -308.784335c -4.13  -3.17
iter:   9 14:38:49  -308.784485c -3.76  -3.21
Writing to output.gpw (mode='')

iter:  10 14:41:22  -308.784366c -4.54  -3.15
iter:  11 14:43:56  -308.784286c -4.22  -3.29
iter:  12 14:46:33  -308.784276c -4.73  -3.51
iter:  13 14:49:11  -308.784322c -4.87  -3.55
iter:  14 14:51:40  -308.784283c -4.83  -3.62
Writing to output.gpw (mode='')

iter:  15 14:54:24  -308.784272c -4.96  -3.85
iter:  16 14:57:02  -308.784284c -5.90  -4.02c
iter:  17 14:59:31  -308.784280c -5.78  -4.03c
iter:  18 15:01:57  -308.784278c -5.84  -4.20c
iter:  19 15:04:29  -308.784277c -5.92  -4.46c
Writing to output.gpw (mode='')

iter:  20 15:07:04  -308.784280c -6.70  -4.56c
iter:  21 15:09:36  -308.784282c -6.83  -4.60c
iter:  22 15:12:14  -308.784279c -6.54  -4.66c
iter:  23 15:14:47  -308.784279c -7.09  -4.75c
iter:  24 15:17:25  -308.784280c -7.20  -4.85c
Writing to output.gpw (mode='')

iter:  25 15:20:08  -308.784280c -7.52c -5.01c

Converged after 25 iterations.

Dipole moment: (-26.347746, 4.932521, 0.210589) |e|*Ang

Energy contributions relative to reference atoms: (reference = -14434.854043)

Kinetic:       +149.916499
Potential:     -145.009308
External:        +0.000000
XC:            -314.374628
Entropy (-ST):   -0.150721
Local:           +0.758517
--------------------------
Free energy:   -308.859641
Extrapolated:  -308.784280

Dipole-layer corrected work functions: 3.401854, 2.997029 eV

Showing only first 2 kpts
 Kpt  Band  Eigenvalues  Occupancy
  0    31     -3.43954    1.98371
  0    32     -3.38684    1.95395
  0    33     -3.04622    0.08919
  0    34     -2.99872    0.03547

  1    31     -3.24285    1.40873
  1    32     -3.19193    0.92500
  1    33     -3.15851    0.61210
  1    34     -3.11202    0.29651


Fermi level: -3.19944

No gap

Forces in eV/Ang:
  0 Li   -0.00307    0.01428   -0.27141
  1 Li    0.00085   -0.00198   -0.28329
  2 Li    0.00123    0.01197   -0.27437
  3 Li   -0.00399   -0.01732   -0.27537
  4 Li   -0.00012   -0.00013   -0.28240
  5 Li    0.00348   -0.01606   -0.27480
  6 Li    0.01718    0.00222   -0.26520
  7 Li    0.00246    0.00269   -0.27591
  8 Li   -0.01919    0.00269   -0.26599
  9 Li   -0.00148    0.01615    0.27490
 10 Li    0.01107    0.01743    0.27612
 11 Li   -0.00916    0.01464    0.27843
 12 Li    0.00051   -0.01189    0.23971
 13 Li   -0.05726   -0.00223    0.27979
 14 Li    0.06045   -0.00210    0.28228
 15 Li    0.00119    0.00073    0.30375
 16 Li    0.00321   -0.01367    0.29666
 17 Li   -0.00296   -0.01045    0.29375
 18 Li    0.00181    0.00340   -0.00036
 19 Li    0.00062   -0.00699   -0.00264
 20 Li   -0.00432    0.00357   -0.00060
 21 Li    0.00845   -0.00300   -0.00806
 22 Li   -0.00143    0.00821    0.00187
 23 Li   -0.00906   -0.00248   -0.00880
 24 Li   -0.00696    0.00287   -0.00382
 25 Li    0.00000   -0.00334   -0.00494
 26 Li    0.00553    0.00279   -0.00446
 27 Li    0.00349   -0.01531    0.00958
 28 Li   -0.00792   -0.01103   -0.00389
 29 Li    0.00733   -0.01116   -0.00323
 30 Li   -0.00032    0.00049    0.00068
 31 Li    0.00272    0.00363   -0.00796
 32 Li   -0.00158    0.00273   -0.00836
 33 Li   -0.00194    0.00771   -0.02295
 34 Li    0.00123    0.00609    0.00527
 35 Li    0.00014    0.00740    0.00541
 36 O     0.02857    0.01193   -0.05214
 37 C    -0.01641    0.02106   -0.01360
 38 C     0.00885    0.00643    0.00928
 39 H     0.01292   -0.04431   -0.01958
 40 H    -0.04425    0.00907    0.04081
 41 H    -0.02662   -0.01160    0.03162
 42 H     0.02768    0.03745   -0.01066
 43 H    -0.00471   -0.03328    0.02586
 44 H    -0.01525    0.01585   -0.00017
 45 N     0.02067   -0.04633    0.00336
 46 N    -0.00389   -0.03444   -0.01911

System changes: positions 

Initializing position-dependent things.

Density initialized from wave functions
       .-----------------------.  
      /|                       |  
     / |                       |  
    /  |                       |  
   /   H                       |  
  /    |                       |  
 *     |                    H  C  
 |     | H                     |  
 |     |                       |  
 |  H  |               H       |  
 |    N|                       |  
 |    N|                       |  
 |     |               H O     |  
 |     |                       |  
 |   Li|     Li      Li        |  
 |     |  Li      Li      Li   |  
 | Li  |   Li      Li          |  
 |     |Li      Li      LLi    |  
 |     | Li      Li            |  
 |   LLi     LLi     LLi       |  
 |     |  Li      Li      Li   |  
 | Li  |   Li      Li          |  
 |     |Li      Li      Li     |  
 Li    | Li      Li            |  
 |    Li      Li      Li       |  
 |     |                       |  
 |     |                       |  
 |     |                       |  
 |     |                       |  
 |     |                       |  
 |     |                       |  
 |     .-----------------------.  
 |    /                       /   
 |   /                       /    
 |  /                       /     
 | /                       /      
 |/                       /       
 *-----------------------*        

Positions:
   0 Li     1.617037    1.617037   10.000000    ( 0.0000,  0.0000,  0.0000)
   1 Li     4.851111    1.617037   10.000000    ( 0.0000,  0.0000,  0.0000)
   2 Li     8.085185    1.617037   10.000000    ( 0.0000,  0.0000,  0.0000)
   3 Li     1.617037    4.851111   10.000000    ( 0.0000,  0.0000,  0.0000)
   4 Li     4.851111    4.851111   10.000000    ( 0.0000,  0.0000,  0.0000)
   5 Li     8.085185    4.851111   10.000000    ( 0.0000,  0.0000,  0.0000)
   6 Li     1.617037    8.085185   10.000000    ( 0.0000,  0.0000,  0.0000)
   7 Li     4.851111    8.085185   10.000000    ( 0.0000,  0.0000,  0.0000)
   8 Li     8.085185    8.085185   10.000000    ( 0.0000,  0.0000,  0.0000)
   9 Li     0.000000    0.000000   11.617037    ( 0.0000,  0.0000,  0.0000)
  10 Li     3.234074    0.000000   11.617037    ( 0.0000,  0.0000,  0.0000)
  11 Li     6.468148    0.000000   11.617037    ( 0.0000,  0.0000,  0.0000)
  12 Li     0.000000    3.234074   11.617037    ( 0.0000,  0.0000,  0.0000)
  13 Li     3.234074    3.234074   11.617037    ( 0.0000,  0.0000,  0.0000)
  14 Li     6.468148    3.234074   11.617037    ( 0.0000,  0.0000,  0.0000)
  15 Li     0.000000    6.468148   11.617037    ( 0.0000,  0.0000,  0.0000)
  16 Li     3.234074    6.468148   11.617037    ( 0.0000,  0.0000,  0.0000)
  17 Li     6.468148    6.468148   11.617037    ( 0.0000,  0.0000,  0.0000)
  18 Li     1.578540    1.599161   13.532472    ( 0.0000,  0.0000,  0.0000)
  19 Li     4.849100    1.643646   13.468392    ( 0.0000,  0.0000,  0.0000)
  20 Li     8.125680    1.600678   13.533820    ( 0.0000,  0.0000,  0.0000)
  21 Li     1.579989    4.855363   13.515790    ( 0.0000,  0.0000,  0.0000)
  22 Li     4.855599    4.814890   13.458920    ( 0.0000,  0.0000,  0.0000)
  23 Li     8.126905    4.858325   13.518711    ( 0.0000,  0.0000,  0.0000)
  24 Li     1.597274    8.101716   13.477803    ( 0.0000,  0.0000,  0.0000)
  25 Li     4.848877    8.097588   13.468319    ( 0.0000,  0.0000,  0.0000)
  26 Li     8.107615    8.098170   13.486164    ( 0.0000,  0.0000,  0.0000)
  27 Li    -0.019107    0.009032   15.645000    ( 0.0000,  0.0000,  0.0000)
  28 Li     3.284134    0.032060   15.410625    ( 0.0000,  0.0000,  0.0000)
  29 Li     6.418711    0.024471   15.404810    ( 0.0000,  0.0000,  0.0000)
  30 Li     0.001918    3.248150   15.524348    ( 0.0000,  0.0000,  0.0000)
  31 Li     3.230496    3.236451   15.450699    ( 0.0000,  0.0000,  0.0000)
  32 Li     6.476264    3.232100   15.445454    ( 0.0000,  0.0000,  0.0000)
  33 Li     0.000918    6.481834   15.560054    ( 0.0000,  0.0000,  0.0000)
  34 Li     3.302676    6.436996   15.357545    ( 0.0000,  0.0000,  0.0000)
  35 Li     6.416514    6.448104   15.363042    ( 0.0000,  0.0000,  0.0000)
  36 O      9.595465   10.469311   19.538790    ( 0.0000,  0.0000,  0.0000)
  37 C      9.664153    9.302116   20.371860    ( 0.0000,  0.0000,  0.0000)
  38 C      9.743119    9.631390   21.853238    ( 0.0000,  0.0000,  0.0000)
  39 H      8.808965    8.644867   20.171012    ( 0.0000,  0.0000,  0.0000)
  40 H     10.564542    8.777650   20.048628    ( 0.0000,  0.0000,  0.0000)
  41 H      9.828592    8.714273   22.439812    ( 0.0000,  0.0000,  0.0000)
  42 H     10.608350   10.259029   22.068858    ( 0.0000,  0.0000,  0.0000)
  43 H      8.845548   10.161656   22.179964    ( 0.0000,  0.0000,  0.0000)
  44 H      8.758760   10.915688   19.716241    ( 0.0000,  0.0000,  0.0000)
  45 N      9.779461    8.271888   17.010603    ( 0.0000,  0.0000,  0.0000)
  46 N      9.837531    7.376204   17.701123    ( 0.0000,  0.0000,  0.0000)

Unit cell:
           periodic     x           y           z      points  spacing
  1. axis:    yes    9.702222    0.000000    0.000000    60     0.1617
  2. axis:    yes    0.000000    9.702222    0.000000    60     0.1617
  3. axis:    no     0.000000    0.000000   24.851111   156     0.1593

  Lengths:   9.702222   9.702222  24.851111
  Angles:   90.000000  90.000000  90.000000

Effective grid spacing dv^(1/3) = 0.1609

     iter     time        total  log10-change:
                         energy  eigst   dens
iter:   1 15:23:21  -308.788007  -1.72
iter:   2 15:25:54  -308.786971  -2.42  -2.34
iter:   3 15:28:24  -308.786378c -2.97  -2.44
iter:   4 15:30:58  -308.785445c -3.25  -2.57
Writing to output.gpw (mode='')

iter:   5 15:33:34  -308.785358c -3.47  -2.76
iter:   6 15:36:07  -308.785320c -3.66  -2.90
iter:   7 15:38:40  -308.785132c -3.79  -2.96
iter:   8 15:41:13  -308.785247c -3.08  -3.13
iter:   9 15:43:50  -308.785159c -4.13  -3.13
Writing to output.gpw (mode='')

iter:  10 15:46:31  -308.785123c -4.51  -3.25
iter:  11 15:48:59  -308.785150c -4.52  -3.33
iter:  12 15:51:36  -308.785136c -4.41  -3.42
iter:  13 15:54:22  -308.785085c -4.46  -3.49
iter:  14 15:57:03  -308.785078c -5.26  -3.69
Writing to output.gpw (mode='')

iter:  15 15:59:42  -308.785084c -5.05  -3.84
iter:  16 16:02:18  -308.785081c -5.51  -4.08c
iter:  17 16:04:56  -308.785086c -5.74  -4.04c
iter:  18 16:07:42  -308.785085c -5.67  -4.10c
iter:  19 16:10:24  -308.785084c -6.34  -4.37c
Writing to output.gpw (mode='')

iter:  20 16:12:56  -308.785084c -6.25  -4.45c
iter:  21 16:15:31  -308.785087c -6.43  -4.65c
iter:  22 16:18:13  -308.785086c -6.81  -4.76c
iter:  23 16:20:43  -308.785086c -7.02  -4.80c
iter:  24 16:23:23  -308.785086c -6.95  -4.93c
Writing to output.gpw (mode='')

iter:  25 16:26:04  -308.785087c -7.17  -5.05c
iter:  26 16:28:38  -308.785087c -7.30  -5.09c
iter:  27 16:31:10  -308.785086c -7.32  -5.25c
iter:  28 16:33:56  -308.785086c -7.68c -5.40c

Converged after 28 iterations.

Dipole moment: (-26.674919, 5.530588, 0.206507) |e|*Ang

Energy contributions relative to reference atoms: (reference = -14434.854043)

Kinetic:       +150.021532
Potential:     -145.084884
External:        +0.000000
XC:            -314.404677
Entropy (-ST):   -0.150766
Local:           +0.758325
--------------------------
Free energy:   -308.860469
Extrapolated:  -308.785086

Dipole-layer corrected work functions: 3.401986, 3.005010 eV

Showing only first 2 kpts
 Kpt  Band  Eigenvalues  Occupancy
  0    31     -3.44365    1.98372
  0    32     -3.39117    1.95420
  0    33     -3.04993    0.08861
  0    34     -3.00353    0.03599

  1    31     -3.24656    1.40581
  1    32     -3.19592    0.92439
  1    33     -3.16286    0.61461
  1    34     -3.11671    0.29970


Fermi level: -3.20350

No gap
Writing to output.gpw (mode='')


Forces in eV/Ang:
  0 Li   -0.00315    0.01412   -0.27119
  1 Li    0.00087   -0.00222   -0.28446
  2 Li    0.00139    0.01186   -0.27406
  3 Li   -0.00372   -0.01741   -0.27569
  4 Li   -0.00012    0.00008   -0.28182
  5 Li    0.00321   -0.01614   -0.27518
  6 Li    0.01690    0.00249   -0.26521
  7 Li    0.00243    0.00259   -0.27562
  8 Li   -0.01883    0.00296   -0.26596
  9 Li   -0.00174    0.01796    0.27235
 10 Li    0.00847    0.01810    0.27655
 11 Li   -0.00682    0.01518    0.27851
 12 Li    0.00023   -0.01487    0.23956
 13 Li   -0.05712   -0.00488    0.28147
 14 Li    0.06010   -0.00481    0.28402
 15 Li    0.00108    0.00112    0.30566
 16 Li    0.00096   -0.01152    0.29625
 17 Li   -0.00093   -0.00812    0.29334
 18 Li    0.00303    0.00384   -0.00543
 19 Li    0.00040   -0.00446   -0.00169
 20 Li   -0.00462    0.00307   -0.00499
 21 Li    0.00439    0.00065   -0.00371
 22 Li   -0.00104    0.00487    0.00167
 23 Li   -0.00467    0.00080   -0.00436
 24 Li   -0.00244    0.00067   -0.00707
 25 Li   -0.00012   -0.00323   -0.00306
 26 Li    0.00153    0.00137   -0.00829
 27 Li    0.00507    0.00107   -0.01186
 28 Li   -0.00423   -0.00832   -0.00210
 29 Li    0.00390   -0.00789   -0.00164
 30 Li   -0.00027    0.00437   -0.00209
 31 Li    0.00185    0.00205   -0.00532
 32 Li   -0.00099    0.00172   -0.00547
 33 Li   -0.00138    0.00145   -0.01720
 34 Li    0.00052    0.00450    0.00353
 35 Li    0.00023    0.00475    0.00390
 36 O     0.02291    0.00994   -0.06418
 37 C     0.00719   -0.01701    0.01011
 38 C    -0.00719    0.00728    0.01997
 39 H     0.00813   -0.02774   -0.00173
 40 H    -0.00507   -0.00573    0.00483
 41 H    -0.02052   -0.01258    0.00649
 42 H     0.01682    0.02642   -0.02249
 43 H    -0.01882   -0.01199    0.04048
 44 H    -0.03150    0.02417   -0.00070
 45 N     0.00914   -0.03398    0.03294
 46 N     0.01805   -0.06507   -0.03256

System changes: positions 

Initializing position-dependent things.

Density initialized from wave functions
       .-----------------------.  
      /|                       |  
     / |                       |  
    /  |                       |  
   /   H                       |  
  /    |                       |  
 *     |                    H  C  
 |     | H                     |  
 |     |                       |  
 |  H  |               H       |  
 |    N|                       |  
 |    N|                       |  
 |     |               H O     |  
 |     |                       |  
 |   Li|     Li      Li        |  
 |     |  Li      Li      Li   |  
 | Li  |   Li      Li          |  
 |     |Li      Li      LLi    |  
 |     | Li      Li            |  
 |   LLi     LLi     LLi       |  
 |     |  Li      Li      Li   |  
 | Li  |   Li      Li          |  
 |     |Li      Li      Li     |  
 Li    | Li      Li            |  
 |    Li      Li      Li       |  
 |     |                       |  
 |     |                       |  
 |     |                       |  
 |     |                       |  
 |     |                       |  
 |     |                       |  
 |     .-----------------------.  
 |    /                       /   
 |   /                       /    
 |  /                       /     
 | /                       /      
 |/                       /       
 *-----------------------*        

Positions:
   0 Li     1.617037    1.617037   10.000000    ( 0.0000,  0.0000,  0.0000)
   1 Li     4.851111    1.617037   10.000000    ( 0.0000,  0.0000,  0.0000)
   2 Li     8.085185    1.617037   10.000000    ( 0.0000,  0.0000,  0.0000)
   3 Li     1.617037    4.851111   10.000000    ( 0.0000,  0.0000,  0.0000)
   4 Li     4.851111    4.851111   10.000000    ( 0.0000,  0.0000,  0.0000)
   5 Li     8.085185    4.851111   10.000000    ( 0.0000,  0.0000,  0.0000)
   6 Li     1.617037    8.085185   10.000000    ( 0.0000,  0.0000,  0.0000)
   7 Li     4.851111    8.085185   10.000000    ( 0.0000,  0.0000,  0.0000)
   8 Li     8.085185    8.085185   10.000000    ( 0.0000,  0.0000,  0.0000)
   9 Li     0.000000    0.000000   11.617037    ( 0.0000,  0.0000,  0.0000)
  10 Li     3.234074    0.000000   11.617037    ( 0.0000,  0.0000,  0.0000)
  11 Li     6.468148    0.000000   11.617037    ( 0.0000,  0.0000,  0.0000)
  12 Li     0.000000    3.234074   11.617037    ( 0.0000,  0.0000,  0.0000)
  13 Li     3.234074    3.234074   11.617037    ( 0.0000,  0.0000,  0.0000)
  14 Li     6.468148    3.234074   11.617037    ( 0.0000,  0.0000,  0.0000)
  15 Li     0.000000    6.468148   11.617037    ( 0.0000,  0.0000,  0.0000)
  16 Li     3.234074    6.468148   11.617037    ( 0.0000,  0.0000,  0.0000)
  17 Li     6.468148    6.468148   11.617037    ( 0.0000,  0.0000,  0.0000)
  18 Li     1.577077    1.597334   13.535835    ( 0.0000,  0.0000,  0.0000)
  19 Li     4.849105    1.643137   13.469230    ( 0.0000,  0.0000,  0.0000)
  20 Li     8.127171    1.598958   13.537186    ( 0.0000,  0.0000,  0.0000)
  21 Li     1.579602    4.854336   13.516654    ( 0.0000,  0.0000,  0.0000)
  22 Li     4.855645    4.815237   13.459597    ( 0.0000,  0.0000,  0.0000)
  23 Li     8.127390    4.857343   13.519636    ( 0.0000,  0.0000,  0.0000)
  24 Li     1.596117    8.102024   13.480215    ( 0.0000,  0.0000,  0.0000)
  25 Li     4.848888    8.098100   13.468733    ( 0.0000,  0.0000,  0.0000)
  26 Li     8.108819    8.098339   13.488729    ( 0.0000,  0.0000,  0.0000)
  27 Li    -0.019614    0.004526   15.652840    ( 0.0000,  0.0000,  0.0000)
  28 Li     3.283983    0.031913   15.412782    ( 0.0000,  0.0000,  0.0000)
  29 Li     6.418790    0.024212   15.406851    ( 0.0000,  0.0000,  0.0000)
  30 Li     0.002015    3.245133   15.527984    ( 0.0000,  0.0000,  0.0000)
  31 Li     3.230844    3.236761   15.451826    ( 0.0000,  0.0000,  0.0000)
  32 Li     6.476070    3.232271   15.446564    ( 0.0000,  0.0000,  0.0000)
  33 Li     0.000941    6.480868   15.563068    ( 0.0000,  0.0000,  0.0000)
  34 Li     3.302728    6.437576   15.358273    ( 0.0000,  0.0000,  0.0000)
  35 Li     6.416711    6.448831   15.363790    ( 0.0000,  0.0000,  0.0000)
  36 O      9.594935   10.471794   19.534371    ( 0.0000,  0.0000,  0.0000)
  37 C      9.663809    9.305044   20.367706    ( 0.0000,  0.0000,  0.0000)
  38 C      9.742881    9.634174   21.849353    ( 0.0000,  0.0000,  0.0000)
  39 H      8.809123    8.647411   20.165429    ( 0.0000,  0.0000,  0.0000)
  40 H     10.564308    8.780781   20.045855    ( 0.0000,  0.0000,  0.0000)
  41 H      9.827087    8.717418   22.437062    ( 0.0000,  0.0000,  0.0000)
  42 H     10.608473   10.261643   22.065311    ( 0.0000,  0.0000,  0.0000)
  43 H      8.845913   10.164889   22.175724    ( 0.0000,  0.0000,  0.0000)
  44 H      8.756879   10.916241   19.708841    ( 0.0000,  0.0000,  0.0000)
  45 N      9.781022    8.266220   17.016318    ( 0.0000,  0.0000,  0.0000)
  46 N      9.837668    7.368316   17.704478    ( 0.0000,  0.0000,  0.0000)

Unit cell:
           periodic     x           y           z      points  spacing
  1. axis:    yes    9.702222    0.000000    0.000000    60     0.1617
  2. axis:    yes    0.000000    9.702222    0.000000    60     0.1617
  3. axis:    no     0.000000    0.000000   24.851111   156     0.1593

  Lengths:   9.702222   9.702222  24.851111
  Angles:   90.000000  90.000000  90.000000

Effective grid spacing dv^(1/3) = 0.1609

     iter     time        total  log10-change:
                         energy  eigst   dens
iter:   1 16:37:18  -308.809034  -1.63
iter:   2 16:39:46  -308.797310  -1.92  -1.91
iter:   3 16:42:25  -308.786744c -3.16  -2.05
iter:   4 16:45:05  -308.785638c -3.18  -2.55
Writing to output.gpw (mode='')

iter:   5 16:47:45  -308.785373c -2.45  -2.80
iter:   6 16:50:29  -308.785520c -3.60  -2.78
iter:   7 16:53:06  -308.785440c -3.38  -3.12
iter:   8 16:55:46  -308.785369c -3.92  -3.12
iter:   9 16:58:28  -308.785399c -3.91  -3.19
Writing to output.gpw (mode='')

iter:  10 17:01:18  -308.785441c -4.32  -3.41
iter:  11 17:04:02  -308.785425c -4.97  -3.54
iter:  12 17:06:42  -308.785399c -4.94  -3.58
iter:  13 17:09:22  -308.785384c -4.76  -3.71
iter:  14 17:11:55  -308.785383c -5.23  -3.89
Writing to output.gpw (mode='')

iter:  15 17:14:36  -308.785382c -5.32  -3.95
iter:  16 17:17:13  -308.785384c -5.89  -4.10c
iter:  17 17:19:48  -308.785395c -5.58  -4.13c
iter:  18 17:22:20  -308.785394c -5.85  -4.25c
iter:  19 17:25:06  -308.785394c -6.63  -4.38c
Writing to output.gpw (mode='')

iter:  20 17:27:45  -308.785392c -6.68  -4.48c
iter:  21 17:30:21  -308.785389c -6.38  -4.53c
iter:  22 17:33:00  -308.785389c -6.94  -4.83c
iter:  23 17:35:40  -308.785391c -7.10  -4.88c
iter:  24 17:38:17  -308.785392c -7.21  -4.99c
Writing to output.gpw (mode='')

iter:  25 17:40:53  -308.785391c -7.40c -5.06c

Converged after 25 iterations.

Dipole moment: (-26.671293, 5.468838, 0.205502) |e|*Ang

Energy contributions relative to reference atoms: (reference = -14434.854043)

Kinetic:       +149.945608
Potential:     -145.029363
External:        +0.000000
XC:            -314.384578
Entropy (-ST):   -0.151056
Local:           +0.758469
--------------------------
Free energy:   -308.860919
Extrapolated:  -308.785391

Dipole-layer corrected work functions: 3.402096, 3.007051 eV

Showing only first 2 kpts
 Kpt  Band  Eigenvalues  Occupancy
  0    31     -3.44377    1.98341
  0    32     -3.39195    1.95394
  0    33     -3.05104    0.08867
  0    34     -3.00541    0.03657

  1    31     -3.24783    1.40749
  1    32     -3.19721    0.92648
  1    33     -3.16404    0.61553
  1    34     -3.11875    0.30464


Fermi level: -3.20457

No gap

Forces in eV/Ang:
  0 Li   -0.00328    0.01403   -0.27119
  1 Li    0.00086   -0.00220   -0.28469
  2 Li    0.00152    0.01177   -0.27406
  3 Li   -0.00371   -0.01732   -0.27581
  4 Li   -0.00014    0.00017   -0.28159
  5 Li    0.00320   -0.01604   -0.27530
  6 Li    0.01674    0.00266   -0.26511
  7 Li    0.00243    0.00265   -0.27572
  8 Li   -0.01866    0.00313   -0.26587
  9 Li   -0.00180    0.01793    0.27152
 10 Li    0.00739    0.01801    0.27762
 11 Li   -0.00569    0.01504    0.27964
 12 Li    0.00022   -0.01642    0.24067
 13 Li   -0.05772   -0.00593    0.28312
 14 Li    0.06076   -0.00588    0.28575
 15 Li    0.00110    0.00131    0.30641
 16 Li    0.00010   -0.01110    0.29755
 17 Li   -0.00003   -0.00765    0.29467
 18 Li    0.00403    0.00462   -0.00731
 19 Li    0.00034   -0.00402   -0.00173
 20 Li   -0.00561    0.00353   -0.00669
 21 Li    0.00411    0.00101   -0.00311
 22 Li   -0.00101    0.00466    0.00149
 23 Li   -0.00441    0.00112   -0.00381
 24 Li   -0.00182    0.00027   -0.00805
 25 Li   -0.00021   -0.00330   -0.00290
 26 Li    0.00090    0.00124   -0.00954
 27 Li    0.00624    0.00435   -0.01373
 28 Li   -0.00386   -0.00834   -0.00223
 29 Li    0.00353   -0.00776   -0.00181
 30 Li   -0.00032    0.00587   -0.00264
 31 Li    0.00196    0.00193   -0.00557
 32 Li   -0.00107    0.00170   -0.00561
 33 Li   -0.00137   -0.00017   -0.01782
 34 Li    0.00050    0.00434    0.00330
 35 Li    0.00018    0.00438    0.00382
 36 O     0.04040    0.01152   -0.06043
 37 C     0.00352   -0.02624    0.01515
 38 C    -0.00402    0.00835    0.01807
 39 H     0.01134   -0.02591    0.00626
 40 H     0.00466   -0.01109   -0.00308
 41 H    -0.01714   -0.01125    0.00045
 42 H     0.01027    0.02103   -0.02669
 43 H    -0.03219   -0.00231    0.04302
 44 H    -0.04346    0.02916    0.00010
 45 N     0.00361   -0.02219    0.02579
 46 N     0.01134   -0.05235   -0.02713

System changes: positions 

Initializing position-dependent things.

Density initialized from wave functions
       .-----------------------.  
      /|                       |  
     / |                       |  
    /  |                       |  
   /   H                       |  
  /    |                       |  
 *     |                       C  
 |     | H                  H  |  
 |     |                       |  
 |  H  |               H       |  
 |    N|                       |  
 |    N|                       |  
 |     |               H O     |  
 |     |                       |  
 |   Li|     Li      Li        |  
 |     |  Li      Li      Li   |  
 | Li  |   Li      Li          |  
 |     |Li      Li      LLi    |  
 |     | Li      Li            |  
 |   LLi     LLi     LLi       |  
 |     |  Li      Li      Li   |  
 | Li  |   Li      Li          |  
 |     |Li      Li      Li     |  
 Li    | Li      Li            |  
 |    Li      Li      Li       |  
 |     |                       |  
 |     |                       |  
 |     |                       |  
 |     |                       |  
 |     |                       |  
 |     |                       |  
 |     .-----------------------.  
 |    /                       /   
 |   /                       /    
 |  /                       /     
 | /                       /      
 |/                       /       
 *-----------------------*        

Positions:
   0 Li     1.617037    1.617037   10.000000    ( 0.0000,  0.0000,  0.0000)
   1 Li     4.851111    1.617037   10.000000    ( 0.0000,  0.0000,  0.0000)
   2 Li     8.085185    1.617037   10.000000    ( 0.0000,  0.0000,  0.0000)
   3 Li     1.617037    4.851111   10.000000    ( 0.0000,  0.0000,  0.0000)
   4 Li     4.851111    4.851111   10.000000    ( 0.0000,  0.0000,  0.0000)
   5 Li     8.085185    4.851111   10.000000    ( 0.0000,  0.0000,  0.0000)
   6 Li     1.617037    8.085185   10.000000    ( 0.0000,  0.0000,  0.0000)
   7 Li     4.851111    8.085185   10.000000    ( 0.0000,  0.0000,  0.0000)
   8 Li     8.085185    8.085185   10.000000    ( 0.0000,  0.0000,  0.0000)
   9 Li     0.000000    0.000000   11.617037    ( 0.0000,  0.0000,  0.0000)
  10 Li     3.234074    0.000000   11.617037    ( 0.0000,  0.0000,  0.0000)
  11 Li     6.468148    0.000000   11.617037    ( 0.0000,  0.0000,  0.0000)
  12 Li     0.000000    3.234074   11.617037    ( 0.0000,  0.0000,  0.0000)
  13 Li     3.234074    3.234074   11.617037    ( 0.0000,  0.0000,  0.0000)
  14 Li     6.468148    3.234074   11.617037    ( 0.0000,  0.0000,  0.0000)
  15 Li     0.000000    6.468148   11.617037    ( 0.0000,  0.0000,  0.0000)
  16 Li     3.234074    6.468148   11.617037    ( 0.0000,  0.0000,  0.0000)
  17 Li     6.468148    6.468148   11.617037    ( 0.0000,  0.0000,  0.0000)
  18 Li     1.575922    1.596052   13.537207    ( 0.0000,  0.0000,  0.0000)
  19 Li     4.849077    1.643128   13.469818    ( 0.0000,  0.0000,  0.0000)
  20 Li     8.128371    1.597601   13.538630    ( 0.0000,  0.0000,  0.0000)
  21 Li     1.578709    4.853845   13.517972    ( 0.0000,  0.0000,  0.0000)
  22 Li     4.855714    4.815166   13.460251    ( 0.0000,  0.0000,  0.0000)
  23 Li     8.128411    4.856855   13.520989    ( 0.0000,  0.0000,  0.0000)
  24 Li     1.595584    8.101893   13.481228    ( 0.0000,  0.0000,  0.0000)
  25 Li     4.848823    8.098458   13.469230    ( 0.0000,  0.0000,  0.0000)
  26 Li     8.109386    8.098210   13.489690    ( 0.0000,  0.0000,  0.0000)
  27 Li    -0.019377    0.000512   15.658737    ( 0.0000,  0.0000,  0.0000)
  28 Li     3.284353    0.032021   15.415233    ( 0.0000,  0.0000,  0.0000)
  29 Li     6.418292    0.024305   15.409170    ( 0.0000,  0.0000,  0.0000)
  30 Li     0.002110    3.243143   15.530790    ( 0.0000,  0.0000,  0.0000)
  31 Li     3.231104    3.236990   15.453286    ( 0.0000,  0.0000,  0.0000)
  32 Li     6.475961    3.232399   15.448069    ( 0.0000,  0.0000,  0.0000)
  33 Li     0.000992    6.479552   15.566576    ( 0.0000,  0.0000,  0.0000)
  34 Li     3.302968    6.437752   15.358803    ( 0.0000,  0.0000,  0.0000)
  35 Li     6.416695    6.449048   15.364447    ( 0.0000,  0.0000,  0.0000)
  36 O      9.594551   10.473583   19.528359    ( 0.0000,  0.0000,  0.0000)
  37 C      9.663123    9.307763   20.363448    ( 0.0000,  0.0000,  0.0000)
  38 C      9.741922    9.637498   21.845366    ( 0.0000,  0.0000,  0.0000)
  39 H      8.810270    8.647855   20.161058    ( 0.0000,  0.0000,  0.0000)
  40 H     10.564253    8.783455   20.043883    ( 0.0000,  0.0000,  0.0000)
  41 H      9.825082    8.720431   22.433377    ( 0.0000,  0.0000,  0.0000)
  42 H     10.608999   10.263820   22.060218    ( 0.0000,  0.0000,  0.0000)
  43 H      8.844919   10.167865   22.173239    ( 0.0000,  0.0000,  0.0000)
  44 H      8.755647   10.917182   19.701229    ( 0.0000,  0.0000,  0.0000)
  45 N      9.780889    8.261034   17.024299    ( 0.0000,  0.0000,  0.0000)
  46 N      9.839015    7.360496   17.709599    ( 0.0000,  0.0000,  0.0000)

Unit cell:
           periodic     x           y           z      points  spacing
  1. axis:    yes    9.702222    0.000000    0.000000    60     0.1617
  2. axis:    yes    0.000000    9.702222    0.000000    60     0.1617
  3. axis:    no     0.000000    0.000000   24.851111   156     0.1593

  Lengths:   9.702222   9.702222  24.851111
  Angles:   90.000000  90.000000  90.000000

Effective grid spacing dv^(1/3) = 0.1609

     iter     time        total  log10-change:
                         energy  eigst   dens
iter:   1 17:44:06  -308.793614  -1.86
iter:   2 17:46:49  -308.789969  -2.31  -2.14
iter:   3 17:49:34  -308.786516c -3.26  -2.26
iter:   4 17:52:09  -308.785549c -3.14  -2.66
Writing to output.gpw (mode='')

iter:   5 17:54:40  -308.785459c -3.04  -3.00
iter:   6 17:57:24  -308.785562c -3.91  -3.00
iter:   7 18:00:00  -308.785573c -3.58  -3.23
iter:   8 18:02:40  -308.785535c -4.31  -3.33
iter:   9 18:05:21  -308.785550c -4.41  -3.57
Writing to output.gpw (mode='')

iter:  10 18:07:55  -308.785568c -5.18  -3.58
iter:  11 18:10:37  -308.785564c -5.49  -3.71
iter:  12 18:13:19  -308.785542c -4.92  -3.76
iter:  13 18:15:57  -308.785535c -5.48  -3.96
iter:  14 18:18:31  -308.785539c -5.72  -4.01c
Writing to output.gpw (mode='')

iter:  15 18:21:13  -308.785543c -6.02  -4.14c
iter:  16 18:23:49  -308.785552c -5.83  -4.20c
iter:  17 18:26:18  -308.785556c -6.09  -4.20c
iter:  18 18:28:55  -308.785550c -6.50  -4.24c
iter:  19 18:31:33  -308.785550c -6.56  -4.40c
Writing to output.gpw (mode='')

iter:  20 18:34:19  -308.785548c -6.41  -4.53c
iter:  21 18:36:58  -308.785547c -6.58  -4.81c
iter:  22 18:39:28  -308.785549c -7.16  -4.87c
iter:  23 18:41:57  -308.785548c -7.20  -5.06c
iter:  24 18:44:32  -308.785548c -7.34  -5.11c
Writing to output.gpw (mode='')

iter:  25 18:47:14  -308.785548c -7.69c -5.16c

Converged after 25 iterations.

Dipole moment: (-26.541673, 5.336916, 0.205038) |e|*Ang

Energy contributions relative to reference atoms: (reference = -14434.854043)

Kinetic:       +149.737166
Potential:     -144.876415
External:        +0.000000
XC:            -314.329199
Entropy (-ST):   -0.151331
Local:           +0.758566
--------------------------
Free energy:   -308.861214
Extrapolated:  -308.785548

Dipole-layer corrected work functions: 3.402096, 3.007943 eV

Showing only first 2 kpts
 Kpt  Band  Eigenvalues  Occupancy
  0    31     -3.44343    1.98315
  0    32     -3.39209    1.95366
  0    33     -3.05146    0.08863
  0    34     -3.00653    0.03705

  1    31     -3.24826    1.40730
  1    32     -3.19776    0.92756
  1    33     -3.16453    0.61585
  1    34     -3.12002    0.30894


Fermi level: -3.20502

No gap

Forces in eV/Ang:
  0 Li   -0.00331    0.01397   -0.27110
  1 Li    0.00086   -0.00210   -0.28468
  2 Li    0.00154    0.01168   -0.27401
  3 Li   -0.00370   -0.01722   -0.27583
  4 Li   -0.00014    0.00012   -0.28142
  5 Li    0.00320   -0.01593   -0.27529
  6 Li    0.01661    0.00276   -0.26492
  7 Li    0.00244    0.00272   -0.27569
  8 Li   -0.01855    0.00323   -0.26569
  9 Li   -0.00179    0.01760    0.27019
 10 Li    0.00693    0.01793    0.27792
 11 Li   -0.00524    0.01495    0.28004
 12 Li    0.00023   -0.01705    0.24113
 13 Li   -0.05827   -0.00627    0.28419
 14 Li    0.06136   -0.00619    0.28682
 15 Li    0.00114    0.00118    0.30632
 16 Li   -0.00040   -0.01124    0.29854
 17 Li    0.00046   -0.00779    0.29566
 18 Li    0.00524    0.00494   -0.00646
 19 Li    0.00036   -0.00429   -0.00126
 20 Li   -0.00673    0.00401   -0.00588
 21 Li    0.00485    0.00089   -0.00339
 22 Li   -0.00099    0.00488    0.00112
 23 Li   -0.00519    0.00102   -0.00407
 24 Li   -0.00186    0.00036   -0.00687
 25 Li   -0.00013   -0.00318   -0.00287
 26 Li    0.00102    0.00122   -0.00807
 27 Li    0.00579    0.00169   -0.00942
 28 Li   -0.00460   -0.00852   -0.00348
 29 Li    0.00444   -0.00805   -0.00294
 30 Li   -0.00032    0.00600   -0.00323
 31 Li    0.00181    0.00173   -0.00622
 32 Li   -0.00097    0.00155   -0.00632
 33 Li   -0.00134    0.00016   -0.01815
 34 Li   -0.00003    0.00464    0.00342
 35 Li    0.00064    0.00469    0.00378
 36 O     0.03008    0.01063   -0.04637
 37 C     0.01175   -0.03334    0.02142
 38 C    -0.00916    0.00893    0.01335
 39 H     0.00372   -0.01609    0.00702
 40 H     0.00987   -0.00992   -0.00748
 41 H    -0.01151   -0.00690   -0.00472
 42 H    -0.00353    0.01738   -0.02042
 43 H    -0.02142    0.00237    0.03244
 44 H    -0.04058    0.02846   -0.00344
 45 N     0.00512   -0.07876    0.00503
 46 N    -0.00626    0.00406   -0.07305

System changes: positions 

Initializing position-dependent things.

Density initialized from wave functions
       .-----------------------.  
      /|                       |  
     / |                       |  
    /  |                       |  
   /   H                       |  
  /    |                       |  
 *     |                       C  
 |     | H                  H  |  
 |     |                       |  
 |  H  |               H       |  
 |    N|                       |  
 |    N|                       |  
 |     |               H O     |  
 |     |                       |  
 |   Li|     Li      Li        |  
 |     |  Li      Li      Li   |  
 | Li  |   Li      Li          |  
 |     |Li      Li      LLi    |  
 |     | Li      Li            |  
 |   LLi     LLi     LLi       |  
 |     |  Li      Li      Li   |  
 | Li  |   Li      Li          |  
 |     |Li      Li      Li     |  
 Li    | Li      Li            |  
 |    Li      Li      Li       |  
 |     |                       |  
 |     |                       |  
 |     |                       |  
 |     |                       |  
 |     |                       |  
 |     |                       |  
 |     .-----------------------.  
 |    /                       /   
 |   /                       /    
 |  /                       /     
 | /                       /      
 |/                       /       
 *-----------------------*        

Positions:
   0 Li     1.617037    1.617037   10.000000    ( 0.0000,  0.0000,  0.0000)
   1 Li     4.851111    1.617037   10.000000    ( 0.0000,  0.0000,  0.0000)
   2 Li     8.085185    1.617037   10.000000    ( 0.0000,  0.0000,  0.0000)
   3 Li     1.617037    4.851111   10.000000    ( 0.0000,  0.0000,  0.0000)
   4 Li     4.851111    4.851111   10.000000    ( 0.0000,  0.0000,  0.0000)
   5 Li     8.085185    4.851111   10.000000    ( 0.0000,  0.0000,  0.0000)
   6 Li     1.617037    8.085185   10.000000    ( 0.0000,  0.0000,  0.0000)
   7 Li     4.851111    8.085185   10.000000    ( 0.0000,  0.0000,  0.0000)
   8 Li     8.085185    8.085185   10.000000    ( 0.0000,  0.0000,  0.0000)
   9 Li     0.000000    0.000000   11.617037    ( 0.0000,  0.0000,  0.0000)
  10 Li     3.234074    0.000000   11.617037    ( 0.0000,  0.0000,  0.0000)
  11 Li     6.468148    0.000000   11.617037    ( 0.0000,  0.0000,  0.0000)
  12 Li     0.000000    3.234074   11.617037    ( 0.0000,  0.0000,  0.0000)
  13 Li     3.234074    3.234074   11.617037    ( 0.0000,  0.0000,  0.0000)
  14 Li     6.468148    3.234074   11.617037    ( 0.0000,  0.0000,  0.0000)
  15 Li     0.000000    6.468148   11.617037    ( 0.0000,  0.0000,  0.0000)
  16 Li     3.234074    6.468148   11.617037    ( 0.0000,  0.0000,  0.0000)
  17 Li     6.468148    6.468148   11.617037    ( 0.0000,  0.0000,  0.0000)
  18 Li     1.576084    1.596177   13.535662    ( 0.0000,  0.0000,  0.0000)
  19 Li     4.849000    1.644612   13.470028    ( 0.0000,  0.0000,  0.0000)
  20 Li     8.128336    1.597475   13.537210    ( 0.0000,  0.0000,  0.0000)
  21 Li     1.578256    4.854159   13.518756    ( 0.0000,  0.0000,  0.0000)
  22 Li     4.855821    4.813913   13.460600    ( 0.0000,  0.0000,  0.0000)
  23 Li     8.128993    4.857147   13.521814    ( 0.0000,  0.0000,  0.0000)
  24 Li     1.595650    8.101141   13.481629    ( 0.0000,  0.0000,  0.0000)
  25 Li     4.848706    8.098617   13.470095    ( 0.0000,  0.0000,  0.0000)
  26 Li     8.109337    8.097596   13.489896    ( 0.0000,  0.0000,  0.0000)
  27 Li    -0.018518    0.001163   15.658124    ( 0.0000,  0.0000,  0.0000)
  28 Li     3.284995    0.033457   15.415689    ( 0.0000,  0.0000,  0.0000)
  29 Li     6.417538    0.025851   15.409443    ( 0.0000,  0.0000,  0.0000)
  30 Li     0.002178    3.242822   15.528912    ( 0.0000,  0.0000,  0.0000)
  31 Li     3.230561    3.236940   15.455070    ( 0.0000,  0.0000,  0.0000)
  32 Li     6.476561    3.232315   15.449933    ( 0.0000,  0.0000,  0.0000)
  33 Li     0.001149    6.477108   15.569513    ( 0.0000,  0.0000,  0.0000)
  34 Li     3.303678    6.436277   15.358864    ( 0.0000,  0.0000,  0.0000)
  35 Li     6.415978    6.447442   15.364629    ( 0.0000,  0.0000,  0.0000)
  36 O      9.593610   10.473015   19.524771    ( 0.0000,  0.0000,  0.0000)
  37 C      9.663083    9.308834   20.362581    ( 0.0000,  0.0000,  0.0000)
  38 C      9.740948    9.640099   21.844249    ( 0.0000,  0.0000,  0.0000)
  39 H      8.811898    8.646185   20.162369    ( 0.0000,  0.0000,  0.0000)
  40 H     10.564985    8.784607   20.044699    ( 0.0000,  0.0000,  0.0000)
  41 H      9.823272    8.722491   22.431756    ( 0.0000,  0.0000,  0.0000)
  42 H     10.608684   10.265379   22.059578    ( 0.0000,  0.0000,  0.0000)
  43 H      8.843255   10.169665   22.172696    ( 0.0000,  0.0000,  0.0000)
  44 H      8.756832   10.919093   19.701143    ( 0.0000,  0.0000,  0.0000)
  45 N      9.779177    8.259585   17.023350    ( 0.0000,  0.0000,  0.0000)
  46 N      9.839455    7.359507   17.708967    ( 0.0000,  0.0000,  0.0000)

Unit cell:
           periodic     x           y           z      points  spacing
  1. axis:    yes    9.702222    0.000000    0.000000    60     0.1617
  2. axis:    yes    0.000000    9.702222    0.000000    60     0.1617
  3. axis:    no     0.000000    0.000000   24.851111   156     0.1593

  Lengths:   9.702222   9.702222  24.851111
  Angles:   90.000000  90.000000  90.000000

Effective grid spacing dv^(1/3) = 0.1609

     iter     time        total  log10-change:
                         energy  eigst   dens
iter:   1 18:50:23  -308.786146  -2.70
iter:   2 18:52:54  -308.785957  -3.39  -2.78
iter:   3 18:55:30  -308.785898c -3.93  -2.85
iter:   4 18:58:05  -308.785762c -4.26  -2.99
Writing to output.gpw (mode='')

iter:   5 19:00:37  -308.785705c -4.48  -3.25
iter:   6 19:03:19  -308.785638c -4.14  -3.34
iter:   7 19:05:49  -308.785665c -4.18  -3.52
iter:   8 19:08:19  -308.785676c -4.70  -3.71
iter:   9 19:10:56  -308.785684c -5.32  -3.75
Writing to output.gpw (mode='')

iter:  10 19:13:39  -308.785691c -5.06  -3.86
iter:  11 19:16:18  -308.785685c -5.76  -4.04c
iter:  12 19:18:47  -308.785676c -5.81  -4.14c
iter:  13 19:21:18  -308.785678c -5.88  -4.36c
iter:  14 19:23:49  -308.785680c -6.29  -4.39c
Writing to output.gpw (mode='')

iter:  15 19:26:24  -308.785678c -6.39  -4.49c
iter:  16 19:29:00  -308.785684c -6.55  -4.52c
iter:  17 19:31:34  -308.785682c -6.94  -4.74c
iter:  18 19:33:59  -308.785682c -7.04  -4.95c
iter:  19 19:36:27  -308.785682c -7.06  -5.03c
Writing to output.gpw (mode='')

iter:  20 19:39:09  -308.785682c -7.27  -5.09c
iter:  21 19:41:44  -308.785681c -7.54c -5.22c

Converged after 21 iterations.

Dipole moment: (-26.327905, 5.116396, 0.206693) |e|*Ang

Energy contributions relative to reference atoms: (reference = -14434.854043)

Kinetic:       +149.692393
Potential:     -144.843774
External:        +0.000000
XC:            -314.317302
Entropy (-ST):   -0.151377
Local:           +0.758690
--------------------------
Free energy:   -308.861370
Extrapolated:  -308.785681

Dipole-layer corrected work functions: 3.402078, 3.004743 eV

Showing only first 2 kpts
 Kpt  Band  Eigenvalues  Occupancy
  0    31     -3.44160    1.98308
  0    32     -3.39023    1.95343
  0    33     -3.05000    0.08887
  0    34     -3.00480    0.03697

  1    31     -3.24680    1.40855
  1    32     -3.19616    0.92762
  1    33     -3.16286    0.61531
  1    34     -3.11835    0.30861


Fermi level: -3.20341

No gap
Writing to output.gpw (mode='')


Forces in eV/Ang:
  0 Li   -0.00334    0.01404   -0.27111
  1 Li    0.00085   -0.00200   -0.28442
  2 Li    0.00156    0.01174   -0.27404
  3 Li   -0.00378   -0.01720   -0.27584
  4 Li   -0.00015    0.00005   -0.28147
  5 Li    0.00327   -0.01592   -0.27528
  6 Li    0.01664    0.00274   -0.26486
  7 Li    0.00243    0.00276   -0.27589
  8 Li   -0.01857    0.00321   -0.26565
  9 Li   -0.00169    0.01690    0.27017
 10 Li    0.00738    0.01765    0.27821
 11 Li   -0.00579    0.01474    0.28047
 12 Li    0.00024   -0.01631    0.24089
 13 Li   -0.05867   -0.00569    0.28360
 14 Li    0.06184   -0.00565    0.28624
 15 Li    0.00117    0.00096    0.30603
 16 Li    0.00004   -0.01160    0.29917
 17 Li    0.00001   -0.00817    0.29628
 18 Li    0.00586    0.00478   -0.00444
 19 Li    0.00048   -0.00570   -0.00097
 20 Li   -0.00736    0.00439   -0.00418
 21 Li    0.00579    0.00037   -0.00447
 22 Li   -0.00108    0.00585    0.00101
 23 Li   -0.00618    0.00053   -0.00511
 24 Li   -0.00194    0.00084   -0.00628
 25 Li    0.00009   -0.00330   -0.00361
 26 Li    0.00118    0.00129   -0.00699
 27 Li    0.00406   -0.00233   -0.00675
 28 Li   -0.00548   -0.00950   -0.00422
 29 Li    0.00554   -0.00932   -0.00334
 30 Li   -0.00029    0.00507   -0.00212
 31 Li    0.00193    0.00171   -0.00727
 32 Li   -0.00116    0.00155   -0.00759
 33 Li   -0.00151    0.00052   -0.02062
 34 Li   -0.00069    0.00589    0.00388
 35 Li    0.00132    0.00615    0.00395
 36 O     0.02828   -0.00185   -0.03718
 37 C     0.01951   -0.03569    0.02272
 38 C    -0.01677    0.00953    0.01471
 39 H    -0.00463   -0.00768   -0.00334
 40 H     0.00911   -0.00467   -0.00866
 41 H    -0.00959   -0.00388   -0.00328
 42 H    -0.00903    0.02031   -0.01778
 43 H    -0.00968    0.00339    0.02430
 44 H    -0.04444    0.03112   -0.00482
 45 N     0.01185   -0.06663    0.00043
 46 N    -0.01384   -0.00106   -0.06078

System changes: positions 

Initializing position-dependent things.

Density initialized from wave functions
       .-----------------------.  
      /|                       |  
     / |                       |  
    /  |                       |  
   /   H                       |  
  /    |                       |  
 *     |                       C  
 |     | H                  H  |  
 |     |                       |  
 |  H  |               H       |  
 |    N|                       |  
 |    N|                       Li 
 |     |               H O     |  
 |     |                       |  
 |   Li|     Li      Li        |  
 |     |  Li      Li      Li   |  
 | Li  |   Li      Li          |  
 |     |Li      Li      Li     |  
 |     | Li      Li            |  
 |   LLi     LLi     LLi       |  
 |     |  Li      Li      Li   |  
 | Li  |   Li      Li          |  
 |     |Li      Li      Li     |  
 Li    | Li      Li            |  
 |    Li      Li      Li       |  
 |     |                       |  
 |     |                       |  
 |     |                       |  
 |     |                       |  
 |     |                       |  
 |     |                       |  
 |     .-----------------------.  
 |    /                       /   
 |   /                       /    
 |  /                       /     
 | /                       /      
 |/                       /       
 *-----------------------*        

Positions:
   0 Li     1.617037    1.617037   10.000000    ( 0.0000,  0.0000,  0.0000)
   1 Li     4.851111    1.617037   10.000000    ( 0.0000,  0.0000,  0.0000)
   2 Li     8.085185    1.617037   10.000000    ( 0.0000,  0.0000,  0.0000)
   3 Li     1.617037    4.851111   10.000000    ( 0.0000,  0.0000,  0.0000)
   4 Li     4.851111    4.851111   10.000000    ( 0.0000,  0.0000,  0.0000)
   5 Li     8.085185    4.851111   10.000000    ( 0.0000,  0.0000,  0.0000)
   6 Li     1.617037    8.085185   10.000000    ( 0.0000,  0.0000,  0.0000)
   7 Li     4.851111    8.085185   10.000000    ( 0.0000,  0.0000,  0.0000)
   8 Li     8.085185    8.085185   10.000000    ( 0.0000,  0.0000,  0.0000)
   9 Li     0.000000    0.000000   11.617037    ( 0.0000,  0.0000,  0.0000)
  10 Li     3.234074    0.000000   11.617037    ( 0.0000,  0.0000,  0.0000)
  11 Li     6.468148    0.000000   11.617037    ( 0.0000,  0.0000,  0.0000)
  12 Li     0.000000    3.234074   11.617037    ( 0.0000,  0.0000,  0.0000)
  13 Li     3.234074    3.234074   11.617037    ( 0.0000,  0.0000,  0.0000)
  14 Li     6.468148    3.234074   11.617037    ( 0.0000,  0.0000,  0.0000)
  15 Li     0.000000    6.468148   11.617037    ( 0.0000,  0.0000,  0.0000)
  16 Li     3.234074    6.468148   11.617037    ( 0.0000,  0.0000,  0.0000)
  17 Li     6.468148    6.468148   11.617037    ( 0.0000,  0.0000,  0.0000)
[...]
iter:  19 11:23:27  -308.829751c -6.60  -4.62c
Writing to output.gpw (mode='')

iter:  20 11:26:06  -308.829750c -6.87  -4.77c
iter:  21 11:28:43  -308.829750c -6.96  -4.82c
iter:  22 11:31:25  -308.829751c -7.02  -4.89c
iter:  23 11:34:02  -308.829750c -7.09  -5.05c
iter:  24 11:36:34  -308.829750c -7.31  -5.22c
Writing to output.gpw (mode='')

iter:  25 11:39:06  -308.829750c -7.40c -5.24c

Converged after 25 iterations.

Dipole moment: (-7.836178, 4.091004, 0.245777) |e|*Ang

Energy contributions relative to reference atoms: (reference = -14434.854043)

Kinetic:       +148.235226
Potential:     -143.825235
External:        +0.000000
XC:            -313.921606
Entropy (-ST):   -0.155939
Local:           +0.759835
--------------------------
Free energy:   -308.907720
Extrapolated:  -308.829750

Dipole-layer corrected work functions: 3.402244, 2.929777 eV

Showing only first 2 kpts
 Kpt  Band  Eigenvalues  Occupancy
  0    31     -3.39633    1.98022
  0    32     -3.34514    1.94590
  0    33     -3.00788    0.08119
  0    34     -2.97678    0.04443

  1    31     -3.20651    1.38423
  1    32     -3.16546    0.99451
  1    33     -3.12993    0.65407
  1    34     -3.09005    0.35916


Fermi level: -3.16601

No gap

Forces in eV/Ang:
  0 Li   -0.00326    0.01205   -0.26869
  1 Li    0.00079    0.00293   -0.29803
  2 Li    0.00102    0.01039   -0.27089
  3 Li   -0.00080   -0.01370   -0.27999
  4 Li   -0.00040    0.00471   -0.26727
  5 Li   -0.00015   -0.01241   -0.28050
  6 Li    0.01300    0.00946   -0.26448
  7 Li    0.00196    0.00688   -0.27619
  8 Li   -0.01472    0.00977   -0.26497
  9 Li   -0.00222    0.00828    0.24119
 10 Li    0.00809    0.00577    0.28578
 11 Li   -0.00107    0.00145    0.28842
 12 Li    0.00071   -0.06186    0.26276
 13 Li   -0.04073   -0.03887    0.28680
 14 Li    0.04751   -0.03661    0.28980
 15 Li    0.00300   -0.00325    0.33929
 16 Li   -0.00621   -0.00702    0.29496
 17 Li    0.00685   -0.00473    0.29241
 18 Li   -0.00212    0.00583   -0.01761
 19 Li   -0.00113   -0.00131   -0.00527
 20 Li   -0.00025    0.00084   -0.01621
 21 Li   -0.00978    0.00141    0.01133
 22 Li   -0.00159   -0.00310    0.00048
 23 Li    0.00926    0.00214    0.01424
 24 Li   -0.01722   -0.00061   -0.00423
 25 Li   -0.00152    0.00536   -0.00263
 26 Li    0.01442    0.00214   -0.00911
 27 Li    0.02092    0.02190    0.01462
 28 Li   -0.00547   -0.00661    0.01187
 29 Li    0.00285   -0.00349    0.00674
 30 Li   -0.00002    0.00349    0.01164
 31 Li    0.00527    0.00400   -0.00934
 32 Li   -0.00501    0.00083   -0.00629
 33 Li    0.00020    0.00770    0.02152
 34 Li    0.00325   -0.00029   -0.02013
 35 Li   -0.00125    0.00208   -0.01309
 36 O     0.01785    0.00292   -0.02025
 37 C    -0.02089   -0.00366    0.00483
 38 C     0.02305    0.02801   -0.02213
 39 H     0.03209   -0.02177    0.02185
 40 H    -0.02621   -0.02436   -0.00832
 41 H    -0.02451   -0.03312   -0.00320
 42 H     0.01687    0.03811   -0.02511
 43 H    -0.01823    0.01037   -0.01965
 44 H    -0.01740   -0.00445   -0.00552
 45 N    -0.03186    0.04004   -0.02448
 46 N     0.00103    0.00870   -0.00040

System changes: positions 

Initializing position-dependent things.

Density initialized from wave functions
       .-----------------------.  
      /|                       |  
     / |                       |  
    /  H                       |  
   /   |                       |  
  /    |                       |  
 *     | H                     C  
 |     |                    H  |  
 |     |                       |  
 | H   |               H       |  
 |     |                 C     |  
 |    N|                       Li 
 |     |               H       |  
 |     |                 O     |  
 |     |     Li      Li      Li|  
 |     |  Li      Li      Li   |  
 | Li  |   Li      Li          |  
 |     |Li      Li      Li     |  
 |     | Li      Li            |  
 |   LLi     LLi     LLi       |  
 |     |  Li      Li      Li   |  
 | Li  |   Li      Li          |  
 |     |Li      Li      Li     |  
 Li    | Li      Li            |  
 |    Li      Li      Li       |  
 |     |                       |  
 |     |                       |  
 |     |                       |  
 |     |                       |  
 |     |                       |  
 |     |                       |  
 |     .-----------------------.  
 |    /                       /   
 |   /                       /    
 |  /                       /     
 | /                       /      
 |/                       /       
 *-----------------------*        

Positions:
   0 Li     1.617037    1.617037   10.000000    ( 0.0000,  0.0000,  0.0000)
   1 Li     4.851111    1.617037   10.000000    ( 0.0000,  0.0000,  0.0000)
   2 Li     8.085185    1.617037   10.000000    ( 0.0000,  0.0000,  0.0000)
   3 Li     1.617037    4.851111   10.000000    ( 0.0000,  0.0000,  0.0000)
   4 Li     4.851111    4.851111   10.000000    ( 0.0000,  0.0000,  0.0000)
   5 Li     8.085185    4.851111   10.000000    ( 0.0000,  0.0000,  0.0000)
   6 Li     1.617037    8.085185   10.000000    ( 0.0000,  0.0000,  0.0000)
   7 Li     4.851111    8.085185   10.000000    ( 0.0000,  0.0000,  0.0000)
   8 Li     8.085185    8.085185   10.000000    ( 0.0000,  0.0000,  0.0000)
   9 Li     0.000000    0.000000   11.617037    ( 0.0000,  0.0000,  0.0000)
  10 Li     3.234074    0.000000   11.617037    ( 0.0000,  0.0000,  0.0000)
  11 Li     6.468148    0.000000   11.617037    ( 0.0000,  0.0000,  0.0000)
  12 Li     0.000000    3.234074   11.617037    ( 0.0000,  0.0000,  0.0000)
  13 Li     3.234074    3.234074   11.617037    ( 0.0000,  0.0000,  0.0000)
  14 Li     6.468148    3.234074   11.617037    ( 0.0000,  0.0000,  0.0000)
  15 Li     0.000000    6.468148   11.617037    ( 0.0000,  0.0000,  0.0000)
  16 Li     3.234074    6.468148   11.617037    ( 0.0000,  0.0000,  0.0000)
  17 Li     6.468148    6.468148   11.617037    ( 0.0000,  0.0000,  0.0000)
  18 Li     1.577360    1.539966   13.567862    ( 0.0000,  0.0000,  0.0000)
  19 Li     4.855922    1.642570   13.474823    ( 0.0000,  0.0000,  0.0000)
  20 Li     8.135235    1.539661   13.575473    ( 0.0000,  0.0000,  0.0000)
  21 Li     1.610703    4.806826   13.489912    ( 0.0000,  0.0000,  0.0000)
  22 Li     4.854168    4.836332   13.476768    ( 0.0000,  0.0000,  0.0000)
  23 Li     8.098430    4.809081   13.488610    ( 0.0000,  0.0000,  0.0000)
  24 Li     1.597803    8.087083   13.503817    ( 0.0000,  0.0000,  0.0000)
  25 Li     4.851522    8.085499   13.476021    ( 0.0000,  0.0000,  0.0000)
  26 Li     8.109943    8.081888   13.514739    ( 0.0000,  0.0000,  0.0000)
  27 Li    -0.015079   -0.266999   15.880433    ( 0.0000,  0.0000,  0.0000)
  28 Li     3.301230    0.024187   15.418407    ( 0.0000,  0.0000,  0.0000)
  29 Li     6.418741    0.015250   15.424161    ( 0.0000,  0.0000,  0.0000)
  30 Li     0.006215    3.126376   15.521621    ( 0.0000,  0.0000,  0.0000)
  31 Li     3.242577    3.243180   15.458898    ( 0.0000,  0.0000,  0.0000)
  32 Li     6.477727    3.241968   15.452020    ( 0.0000,  0.0000,  0.0000)
  33 Li    -0.005626    6.287913   15.470628    ( 0.0000,  0.0000,  0.0000)
  34 Li     3.292783    6.456195   15.399267    ( 0.0000,  0.0000,  0.0000)
  35 Li     6.425617    6.461568   15.399872    ( 0.0000,  0.0000,  0.0000)
  36 O      9.529685   10.489331   19.058713    ( 0.0000,  0.0000,  0.0000)
  37 C      9.633853    9.522193   20.121426    ( 0.0000,  0.0000,  0.0000)
  38 C      9.562009   10.138473   21.510771    ( 0.0000,  0.0000,  0.0000)
  39 H      8.859931    8.753662   20.002790    ( 0.0000,  0.0000,  0.0000)
  40 H     10.603346    9.044231   19.966612    ( 0.0000,  0.0000,  0.0000)
  41 H      9.709316    9.369745   22.272973    ( 0.0000,  0.0000,  0.0000)
  42 H     10.334498   10.897128   21.640752    ( 0.0000,  0.0000,  0.0000)
  43 H      8.588335   10.602480   21.690885    ( 0.0000,  0.0000,  0.0000)
  44 H      8.688364   10.954590   19.156771    ( 0.0000,  0.0000,  0.0000)
  45 N      9.811984    7.838161   17.110713    ( 0.0000,  0.0000,  0.0000)
  46 N      9.850971    6.875768   17.709096    ( 0.0000,  0.0000,  0.0000)

Unit cell:
           periodic     x           y           z      points  spacing
  1. axis:    yes    9.702222    0.000000    0.000000    60     0.1617
  2. axis:    yes    0.000000    9.702222    0.000000    60     0.1617
  3. axis:    no     0.000000    0.000000   24.851111   156     0.1593

  Lengths:   9.702222   9.702222  24.851111
  Angles:   90.000000  90.000000  90.000000

Effective grid spacing dv^(1/3) = 0.1609

     iter     time        total  log10-change:
                         energy  eigst   dens
iter:   1 11:42:16  -308.830690  -2.64
iter:   2 11:44:58  -308.830742  -3.27  -2.78
iter:   3 11:47:33  -308.830567c -3.84  -2.88
iter:   4 11:50:02  -308.830214c -3.74  -3.00
Writing to output.gpw (mode='')

iter:   5 11:52:40  -308.830257c -4.52  -3.27
iter:   6 11:55:23  -308.830266c -4.27  -3.35
iter:   7 11:57:55  -308.830221c -3.73  -3.52
iter:   8 12:00:31  -308.830225c -4.86  -3.48
iter:   9 12:03:10  -308.830225c -4.96  -3.71
Writing to output.gpw (mode='')

iter:  10 12:05:51  -308.830230c -5.17  -3.72
iter:  11 12:08:22  -308.830237c -5.45  -3.95
iter:  12 12:10:57  -308.830237c -5.71  -4.00c
iter:  13 12:13:39  -308.830238c -5.83  -4.10c
iter:  14 12:16:21  -308.830239c -6.06  -4.42c
Writing to output.gpw (mode='')

iter:  15 12:18:56  -308.830239c -6.46  -4.46c
iter:  16 12:21:42  -308.830238c -6.60  -4.51c
iter:  17 12:24:18  -308.830240c -6.78  -4.60c
iter:  18 12:26:58  -308.830240c -6.86  -4.67c
iter:  19 12:29:31  -308.830241c -7.04  -4.77c
Writing to output.gpw (mode='')

iter:  20 12:32:18  -308.830240c -7.29  -4.86c
iter:  21 12:35:04  -308.830239c -7.13  -4.93c
iter:  22 12:37:42  -308.830239c -7.49c -5.06c

Converged after 22 iterations.

Dipole moment: (-7.846928, 4.071373, 0.245945) |e|*Ang

Energy contributions relative to reference atoms: (reference = -14434.854043)

Kinetic:       +148.205712
Potential:     -143.802767
External:        +0.000000
XC:            -313.914971
Entropy (-ST):   -0.155971
Local:           +0.759772
--------------------------
Free energy:   -308.908224
Extrapolated:  -308.830239

Dipole-layer corrected work functions: 3.402263, 2.929473 eV

Showing only first 2 kpts
 Kpt  Band  Eigenvalues  Occupancy
  0    31     -3.39618    1.98022
  0    32     -3.34485    1.94574
  0    33     -3.00791    0.08147
  0    34     -2.97664    0.04442

  1    31     -3.20644    1.38482
  1    32     -3.16515    0.99286
  1    33     -3.12952    0.65172
  1    34     -3.08984    0.35876


Fermi level: -3.16587

No gap
Writing to output.gpw (mode='')


Forces in eV/Ang:
  0 Li   -0.00319    0.01218   -0.26856
  1 Li    0.00082    0.00301   -0.29769
  2 Li    0.00091    0.01048   -0.27082
  3 Li   -0.00078   -0.01373   -0.27999
  4 Li   -0.00041    0.00472   -0.26766
  5 Li   -0.00016   -0.01248   -0.28045
  6 Li    0.01306    0.00935   -0.26430
  7 Li    0.00197    0.00679   -0.27618
  8 Li   -0.01478    0.00967   -0.26480
  9 Li   -0.00213    0.00840    0.24097
 10 Li    0.00865    0.00533    0.28497
 11 Li   -0.00181    0.00110    0.28766
 12 Li    0.00068   -0.06043    0.26224
 13 Li   -0.04057   -0.03758    0.28662
 14 Li    0.04733   -0.03522    0.28964
 15 Li    0.00300   -0.00403    0.33845
 16 Li   -0.00599   -0.00769    0.29521
 17 Li    0.00653   -0.00551    0.29260
 18 Li   -0.00385    0.00440   -0.01313
 19 Li   -0.00105   -0.00178   -0.00507
 20 Li    0.00175    0.00022   -0.01206
 21 Li   -0.00845    0.00056    0.00866
 22 Li   -0.00134   -0.00287   -0.00031
 23 Li    0.00780    0.00130    0.01134
 24 Li   -0.01733    0.00062   -0.00200
 25 Li   -0.00131    0.00554   -0.00282
 26 Li    0.01483    0.00280   -0.00603
 27 Li    0.01764    0.02180    0.01131
 28 Li   -0.00579   -0.00572    0.00991
 29 Li    0.00338   -0.00290    0.00514
 30 Li    0.00002    0.00072    0.01020
 31 Li    0.00471    0.00382   -0.00905
 32 Li   -0.00465    0.00072   -0.00625
 33 Li    0.00043    0.01189    0.02249
 34 Li    0.00288   -0.00039   -0.01914
 35 Li   -0.00120    0.00198   -0.01277
 36 O    -0.00161   -0.01242   -0.00547
 37 C     0.00242   -0.00526   -0.02198
 38 C     0.01691    0.03084   -0.00073
 39 H     0.00717   -0.03131    0.01810
 40 H    -0.02370   -0.00896    0.00116
 41 H    -0.02272   -0.02212   -0.01071
 42 H     0.01812    0.03678   -0.01913
 43 H    -0.00817    0.00379   -0.02136
 44 H    -0.00645   -0.00076   -0.02715
 45 N    -0.01779    0.01593   -0.02988
 46 N     0.00144    0.01926   -0.00643

Timing:                                      incl.     excl.
-------------------------------------------------------------------
Density initialized from wave functions:   145.673   145.671   0.1% |
 Symmetrize density:                         0.002     0.002   0.0% |
Forces:                                    495.758   495.758   0.2% |
Hamiltonian:                              6030.977     0.011   0.0% |
 Atomic:                                     8.831     0.133   0.0% |
  XC Correction:                             8.699     8.699   0.0% |
 Calculate atomic Hamiltonians:             30.178    30.178   0.0% |
 Communicate:                               31.430    31.430   0.0% |
 Hartree integrate/restrict:                10.583    10.583   0.0% |
 Poisson:                                  226.238   102.778   0.0% |
  Communicate from 1D:                      16.797    16.797   0.0% |
  Communicate from 2D:                      28.526    28.526   0.0% |
  Communicate to 1D:                         7.067     7.067   0.0% |
  Communicate to 2D:                        26.036    26.036   0.0% |
  FFT 1D:                                   22.912    22.912   0.0% |
  FFT 2D:                                   22.121    22.121   0.0% |
 XC 3D grid:                              5721.010   547.647   0.2% |
  VdW-DF integral:                        5173.363    12.528   0.0% |
   Convolution:                            322.999   322.999   0.1% |
   FFT:                                     53.437    53.437   0.0% |
   gather:                                4168.507  4168.507   1.5% ||
   hmm1:                                    56.997    56.997   0.0% |
   hmm2:                                    75.455    75.455   0.0% |
   iFFT:                                    57.726    57.726   0.0% |
   potential:                              412.424     4.874   0.0% |
    collect:                                38.972    38.972   0.0% |
    p1:                                    164.180   164.180   0.1% |
    p2:                                    104.237   104.237   0.0% |
    sum:                                   100.162   100.162   0.0% |
   splines:                                 13.290    13.290   0.0% |
 vbar:                                       2.695     2.695   0.0% |
LCAO initialization:                        12.981     0.890   0.0% |
 LCAO eigensolver:                           3.954     0.001   0.0% |
  Calculate projections:                     0.000     0.000   0.0% |
  DenseAtomicCorrection:                     0.000     0.000   0.0% |
  Distribute overlap matrix:                 3.769     3.769   0.0% |
  Orbital Layouts:                           0.059     0.059   0.0% |
  Potential matrix:                          0.106     0.106   0.0% |
  Sum over cells:                            0.019     0.019   0.0% |
 LCAO to grid:                               6.094     6.094   0.0% |
 Set positions (LCAO WFS):                   2.043     1.607   0.0% |
  Basic WFS set positions:                   0.004     0.004   0.0% |
  Basis functions set positions:             0.001     0.001   0.0% |
  P tci:                                     0.001     0.001   0.0% |
  ST tci:                                    0.231     0.231   0.0% |
  mktci:                                     0.200     0.200   0.0% |
Redistribute:                                0.102     0.102   0.0% |
SCF-cycle:                               261425.018  3619.313   1.3% ||
 Davidson:                               79780.729 32111.265  11.9% |----|
  Apply hamiltonian:                      4910.644  4910.644   1.8% ||
  Subspace diag:                         11141.008     0.627   0.0% |
   calc_h_matrix:                         6823.056  1993.499   0.7% |
    Apply hamiltonian:                    4829.557  4829.557   1.8% ||
   diagonalize:                            417.110   417.110   0.2% |
   rotate_psi:                            3900.215  3900.215   1.4% ||
  calc. matrices:                        23868.704 14917.988   5.5% |-|
   Apply hamiltonian:                     8950.716  8950.716   3.3% ||
  diagonalize:                              35.136    35.136   0.0% |
  rotate_psi:                             7713.973  7713.973   2.9% ||
 Density:                                 1681.727     0.125   0.0% |
  Atomic density matrices:                 471.286   471.286   0.2% |
  Mix:                                     484.702   484.702   0.2% |
  Multipole moments:                         6.725     6.725   0.0% |
  Pseudo density:                          718.889   718.806   0.3% |
   Symmetrize density:                       0.083     0.083   0.0% |
 Hamiltonian:                            176139.426     0.544   0.0% |
  Atomic:                                  264.320     3.413   0.0% |
   XC Correction:                          260.907   260.907   0.1% |
  Calculate atomic Hamiltonians:           853.191   853.191   0.3% |
  Communicate:                             907.144   907.144   0.3% |
  Hartree integrate/restrict:              303.699   303.699   0.1% |
  Poisson:                                6560.135  2965.371   1.1% |
   Communicate from 1D:                    483.781   483.781   0.2% |
   Communicate from 2D:                    815.983   815.983   0.3% |
   Communicate to 1D:                      197.590   197.590   0.1% |
   Communicate to 2D:                      761.375   761.375   0.3% |
   FFT 1D:                                 674.597   674.597   0.3% |
   FFT 2D:                                 661.438   661.438   0.2% |
  XC 3D grid:                            167174.870 15960.723   5.9% |-|
   VdW-DF integral:                      151214.147   348.632   0.1% |
    Convolution:                          9443.742  9443.742   3.5% ||
    FFT:                                  1589.010  1589.010   0.6% |
    gather:                              122453.581 122453.581  45.4% |-----------------|
    hmm1:                                 1619.365  1619.365   0.6% |
    hmm2:                                 2159.568  2159.568   0.8% |
    iFFT:                                 1688.676  1688.676   0.6% |
    potential:                           11911.543   134.948   0.1% |
     collect:                             1118.748  1118.748   0.4% |
     p1:                                  4711.435  4711.435   1.7% ||
     p2:                                  3021.284  3021.284   1.1% |
     sum:                                 2925.129  2925.129   1.1% |
    splines:                                 0.030     0.030   0.0% |
  vbar:                                     75.523    75.523   0.0% |
 Orthonormalize:                           203.823     0.040   0.0% |
  calc_s_matrix:                            33.927    33.927   0.0% |
  inverse-cholesky:                          6.175     6.175   0.0% |
  projections:                              95.342    95.342   0.0% |
  rotate_psi_s:                             68.339    68.339   0.0% |
Set symmetry:                                0.003     0.003   0.0% |
Other:                                    1629.568  1629.568   0.6% |
-------------------------------------------------------------------
Total:                                             269740.078 100.0%

Memory usage: 1.57 GiB
Date: Mon Feb 20 12:37:52 2023
