
  ___ ___ ___ _ _ _  
 |   |   |_  | | | | 
 | | | | | . | | | | 
 |__ |  _|___|_____|  22.8.0
 |___|_|             

User:   vazumah@r265.ib.bridges2.psc.edu
Date:   Fri Mar 10 21:51:26 2023
Arch:   x86_64
Pid:    57582
CWD:    /jet/home/vazumah/Calcs/LiMEAS/proton_donors/propanediol13_z/bridge/8.085_1.617/N2_y
Python: 3.11.0
gpaw:   /jet/home/vazumah/.conda/envs/GPAW_mpich/lib/python3.11/site-packages/gpaw
_gpaw:  /jet/home/vazumah/.conda/envs/GPAW_mpich/lib/python3.11/site-packages/
        _gpaw.cpython-311-x86_64-linux-gnu.so
ase:    /jet/home/vazumah/.conda/envs/GPAW_mpich/lib/python3.11/site-packages/ase (version 3.22.1)
numpy:  /jet/home/vazumah/.conda/envs/GPAW_mpich/lib/python3.11/site-packages/numpy (version 1.24.2)
scipy:  /jet/home/vazumah/.conda/envs/GPAW_mpich/lib/python3.11/site-packages/scipy (version 1.10.1)
libxc:  5.2.3
units:  Angstrom and eV
cores: 128
OpenMP: True
OMP_NUM_THREADS: 1

Input parameters:
  h: 0.16
  kpts: {size: [4, 4, 1]}
  occupations: {name: fermi-dirac,
                width: 0.05}
  poissonsolver: {dipolelayer: xy}
  xc: BEEF-vdW

System changes: positions, numbers, cell, pbc, initial_charges, initial_magmoms 

Initialize ...

species:
  Li:
    name: Lithium
    id: 830b4218f175192f93f959cfc0aad614
    Z: 3.0
    valence: 1
    core: 2
    charge: 0.0
    file: /jet/home/vazumah/datasets/gpaw-setups-0.9.20000/Li.PBE.gz
    compensation charges: {type: gauss,
                           rc: 0.33,
                           lmax: 2}
    cutoffs: {filter: 1.91,
              core: 2.55}
    valence states:
      #              energy  rcut
      - 2s(1.00)    -2.874   1.058
      - 2p(0.00)    -1.090   1.058
      -  s          24.337   1.058
  
    # Using partial waves for Li as LCAO basis

  O:
    name: Oxygen
    id: 32ecd46bf208036f09c70b0ec9a88b78
    Z: 8.0
    valence: 6
    core: 2
    charge: 0.0
    file: /jet/home/vazumah/datasets/gpaw-setups-0.9.20000/O.PBE.gz
    compensation charges: {type: gauss,
                           rc: 0.21,
                           lmax: 2}
    cutoffs: {filter: 1.17,
              core: 0.83}
    valence states:
      #              energy  rcut
      - 2s(2.00)   -23.961   0.688
      - 2p(4.00)    -9.029   0.598
      -  s           3.251   0.688
      -  p          18.182   0.598
      -  d           0.000   0.619
  
    # Using partial waves for O as LCAO basis

  C:
    name: Carbon
    id: 4aa54d4b901d75f77cc0ea3eec22967b
    Z: 6.0
    valence: 4
    core: 2
    charge: 0.0
    file: /jet/home/vazumah/datasets/gpaw-setups-0.9.20000/C.PBE.gz
    compensation charges: {type: gauss,
                           rc: 0.20,
                           lmax: 2}
    cutoffs: {filter: 1.14,
              core: 1.14}
    valence states:
      #              energy  rcut
      - 2s(2.00)   -13.751   0.635
      - 2p(2.00)    -5.284   0.635
      -  s          13.461   0.635
      -  p          21.927   0.635
      -  d           0.000   0.635
  
    # Using partial waves for C as LCAO basis

  H:
    name: Hydrogen
    id: d65de229564ff8ea4db303e23b6d1ecf
    Z: 1.0
    valence: 1
    core: 0
    charge: 0.0
    file: /jet/home/vazumah/datasets/gpaw-setups-0.9.20000/H.PBE.gz
    compensation charges: {type: gauss,
                           rc: 0.15,
                           lmax: 2}
    cutoffs: {filter: 0.85,
              core: 0.53}
    valence states:
      #              energy  rcut
      - 1s(1.00)    -6.494   0.476
      -  s          20.717   0.476
      -  p           0.000   0.476
  
    # Using partial waves for H as LCAO basis

  N:
    name: Nitrogen
    id: f7500608b86eaa90eef8b1d9a670dc53
    Z: 7.0
    valence: 5
    core: 2
    charge: 0.0
    file: /jet/home/vazumah/datasets/gpaw-setups-0.9.20000/N.PBE.gz
    compensation charges: {type: gauss,
                           rc: 0.18,
                           lmax: 2}
    cutoffs: {filter: 1.11,
              core: 0.96}
    valence states:
      #              energy  rcut
      - 2s(2.00)   -18.583   0.603
      - 2p(3.00)    -7.089   0.529
      -  s           8.629   0.603
      -  p          20.123   0.529
      -  d           0.000   0.577
  
    # Using partial waves for N as LCAO basis

Reference energy: -17528.314784  # eV

Spin-paired calculation

Convergence criteria:
 Maximum [total energy] change in last 3 cyles: 0.0005 eV / electron
 Maximum integral of absolute [dens]ity change: 0.0001 electrons / valence electron
 Maximum integral of absolute [eigenst]ate change: 4e-08 eV^2 / valence electron
 Maximum number of scf [iter]ations: 333
 (Square brackets indicate name in SCF output, whereas a 'c' in
 the SCF output indicates the quantity has converged.)

Symmetries present (total): 1

  ( 1  0  0)
  ( 0  1  0)
  ( 0  0  1)

16 k-points: 4 x 4 x 1 Monkhorst-Pack grid
8 k-points in the irreducible part of the Brillouin zone
       k-points in crystal coordinates                weights
   0:     0.12500000   -0.37500000    0.00000000          2/16
   1:     0.12500000   -0.12500000    0.00000000          2/16
   2:     0.12500000    0.12500000    0.00000000          2/16
   3:     0.12500000    0.37500000    0.00000000          2/16
   4:     0.37500000   -0.37500000    0.00000000          2/16
   5:     0.37500000   -0.12500000    0.00000000          2/16
   6:     0.37500000    0.12500000    0.00000000          2/16
   7:     0.37500000    0.37500000    0.00000000          2/16

Wave functions: Uniform real-space grid
  Kinetic energy operator: 6*3+1=19 point O(h^6) finite-difference Laplacian
  ScaLapack parameters: grid=1x1, blocksize=None
  Wavefunction extrapolation:
    Improved wavefunction reuse through dual PAW basis 

Occupation numbers: Fermi-Dirac:
  width: 0.0500  # eV
 

Eigensolver
   Davidson(niter=2) 

Densities:
  Coarse grid: 60*60*176 grid
  Fine grid: 120*120*352 grid
  Total Charge: 0.000000 

Density mixing:
  Method: separate
  Backend: pulay
  Linear mixing parameter: 0.05
  old densities: 5
  Damping of long wavelength oscillations: 50 

Hamiltonian:
  XC and Coulomb potentials evaluated on a 120*120*352 grid
  Using the BEEF-vdW Exchange-Correlation functional
  Interpolation: tri-quintic (5. degree polynomial)
  Poisson solver: FastPoissonSolver using
    Stencil: 6*3+1=19 point O(h^6) finite-difference Laplacian
    FFT axes: [0, 1]
    FST axes: [2]

Dipole correction along z-axis 

XC parameters: BEEF-vdW with 2 nearest neighbor stencil

Memory estimate:
  Process memory now: 130.38 MiB
  Calculator: 93.74 MiB
    Density: 23.40 MiB
      Arrays: 7.76 MiB
      Localized functions: 12.69 MiB
      Mixer: 2.95 MiB
    Hamiltonian: 6.08 MiB
      Arrays: 5.07 MiB
      XC: 0.00 MiB
      Poisson: 0.00 MiB
      vbar: 1.00 MiB
    Wavefunctions: 64.26 MiB
      Arrays psit_nG: 30.12 MiB
      Eigensolver: 33.47 MiB
      Projections: 0.02 MiB
      Projectors: 0.67 MiB

Total number of cores used: 128
Parallelization over k-points: 8
Domain decomposition: 2 x 2 x 4

Number of atoms: 51
Number of atomic orbitals: 180
Number of bands in calculation: 51
Number of valence electrons: 78
Bands to converge: occupied

... initialized

Initializing position-dependent things.

Density initialized from atomic densities
Creating initial wave functions:
  51 bands from LCAO basis set

       .-----------------------.  
      /|                       |  
     / |                       |  
    /  |                       |  
   /   |                       |  
  /    |                       |  
 *     |                       |  
 |     |                       |  
 |     |                       |  
 |     |                       |  
 |     |                       |  
 |     |              O H      |  
 |     |                       |  
 |     |           H  C        |  
 |     |            H CH H     |  
 |     |                       |  
 |     |             C         |  
 |     |           H  OH       |  
 |   Li|     Li      LiN       |  
 |     |  Li      Li  H   Li   |  
 | Li  |   Li      Li          |  
 |     |Li      Li      Li     |  
 Li    | Li      Li            |  
 |   LLi     LLi     LLi       |  
 |     |  Li      Li      Li   |  
 | Li  |   Li      Li          |  
 |     |Li      Li      Li     |  
 Li    | Li      Li            |  
 |    Li      Li      Li       |  
 |     |                       |  
 |     |                       |  
 |     |                       |  
 |     |                       |  
 |     |                       |  
 |     |                       |  
 |     .-----------------------.  
 |    /                       /   
 |   /                       /    
 |  /                       /     
 | /                       /      
 |/                       /       
 *-----------------------*        

Positions:
   0 Li     1.617037    1.617037   10.000000    ( 0.0000,  0.0000,  0.0000)
   1 Li     4.851111    1.617037   10.000000    ( 0.0000,  0.0000,  0.0000)
   2 Li     8.085185    1.617037   10.000000    ( 0.0000,  0.0000,  0.0000)
   3 Li     1.617037    4.851111   10.000000    ( 0.0000,  0.0000,  0.0000)
   4 Li     4.851111    4.851111   10.000000    ( 0.0000,  0.0000,  0.0000)
   5 Li     8.085185    4.851111   10.000000    ( 0.0000,  0.0000,  0.0000)
   6 Li     1.617037    8.085185   10.000000    ( 0.0000,  0.0000,  0.0000)
   7 Li     4.851111    8.085185   10.000000    ( 0.0000,  0.0000,  0.0000)
   8 Li     8.085185    8.085185   10.000000    ( 0.0000,  0.0000,  0.0000)
   9 Li     0.000000    0.000000   11.617037    ( 0.0000,  0.0000,  0.0000)
  10 Li     3.234074    0.000000   11.617037    ( 0.0000,  0.0000,  0.0000)
  11 Li     6.468148    0.000000   11.617037    ( 0.0000,  0.0000,  0.0000)
  12 Li     0.000000    3.234074   11.617037    ( 0.0000,  0.0000,  0.0000)
  13 Li     3.234074    3.234074   11.617037    ( 0.0000,  0.0000,  0.0000)
  14 Li     6.468148    3.234074   11.617037    ( 0.0000,  0.0000,  0.0000)
  15 Li     0.000000    6.468148   11.617037    ( 0.0000,  0.0000,  0.0000)
  16 Li     3.234074    6.468148   11.617037    ( 0.0000,  0.0000,  0.0000)
  17 Li     6.468148    6.468148   11.617037    ( 0.0000,  0.0000,  0.0000)
  18 Li     1.617038    1.617038   13.469728    ( 0.0000,  0.0000,  0.0000)
  19 Li     4.851111    1.617038   13.469729    ( 0.0000,  0.0000,  0.0000)
  20 Li     8.085184    1.617038   13.469728    ( 0.0000,  0.0000,  0.0000)
  21 Li     1.617038    4.851111   13.469729    ( 0.0000,  0.0000,  0.0000)
  22 Li     4.851111    4.851111   13.469730    ( 0.0000,  0.0000,  0.0000)
  23 Li     8.085184    4.851111   13.469729    ( 0.0000,  0.0000,  0.0000)
  24 Li     1.617038    8.085184   13.469728    ( 0.0000,  0.0000,  0.0000)
  25 Li     4.851111    8.085184   13.469729    ( 0.0000,  0.0000,  0.0000)
  26 Li     8.085184    8.085184   13.469728    ( 0.0000,  0.0000,  0.0000)
  27 Li    -0.000000   -0.000000   15.445939    ( 0.0000,  0.0000,  0.0000)
  28 Li     3.234074    0.000000   15.445939    ( 0.0000,  0.0000,  0.0000)
  29 Li     6.468148    0.000000   15.445939    ( 0.0000,  0.0000,  0.0000)
  30 Li     0.000000    3.234074   15.445939    ( 0.0000,  0.0000,  0.0000)
  31 Li     3.234076    3.234076   15.445938    ( 0.0000,  0.0000,  0.0000)
  32 Li     6.468146    3.234076   15.445938    ( 0.0000,  0.0000,  0.0000)
  33 Li     0.000000    6.468148   15.445939    ( 0.0000,  0.0000,  0.0000)
  34 Li     3.234076    6.468146   15.445938    ( 0.0000,  0.0000,  0.0000)
  35 Li     6.468146    6.468146   15.445938    ( 0.0000,  0.0000,  0.0000)
  36 O      8.085185    1.617037   18.445939    ( 0.0000,  0.0000,  0.0000)
  37 O      8.091295    1.596708   23.308281    ( 0.0000,  0.0000,  0.0000)
  38 C      8.070738    1.615492   20.841854    ( 0.0000,  0.0000,  0.0000)
  39 C      8.082307    0.749217   19.590809    ( 0.0000,  0.0000,  0.0000)
  40 C      8.094667    0.785225   22.124471    ( 0.0000,  0.0000,  0.0000)
  41 H      8.945398    2.275999   20.819771    ( 0.0000,  0.0000,  0.0000)
  42 H      7.182733    2.252603   20.841713    ( 0.0000,  0.0000,  0.0000)
  43 H      8.975854    0.108959   19.585879    ( 0.0000,  0.0000,  0.0000)
  44 H      7.195621    0.100540   19.577267    ( 0.0000,  0.0000,  0.0000)
  45 H      8.961990    0.109659   22.125172    ( 0.0000,  0.0000,  0.0000)
  46 H      7.194564    0.169134   22.201319    ( 0.0000,  0.0000,  0.0000)
  47 H      8.090052    1.072680   17.650414    ( 0.0000,  0.0000,  0.0000)
  48 H      8.865812    2.171748   23.275699    ( 0.0000,  0.0000,  0.0000)
  49 N      8.085000    1.617000   16.945939    ( 0.0000,  0.0000,  0.0000)
  50 N      8.085000    2.713622   16.945939    ( 0.0000,  0.0000,  0.0000)

Unit cell:
           periodic     x           y           z      points  spacing
  1. axis:    yes    9.702222    0.000000    0.000000    60     0.1617
  2. axis:    yes    0.000000    9.702222    0.000000    60     0.1617
  3. axis:    no     0.000000    0.000000   28.351111   176     0.1611

  Lengths:   9.702222   9.702222  28.351111
  Angles:   90.000000  90.000000  90.000000

Effective grid spacing dv^(1/3) = 0.1615

     iter     time        total  log10-change:
                         energy  eigst   dens
iter:   1 21:51:41  -817.194371
iter:   2 21:51:49   116.731537  +2.69  +0.05
iter:   3 21:51:57   192.814950  +3.39  -0.12
iter:   4 21:52:05  -211.526790  +3.43  -0.21
Writing to output.gpw (mode='')

iter:   5 21:52:13  -335.566234  +2.97  -0.19
iter:   6 21:52:20  -322.166779  +2.50  -0.33
iter:   7 21:52:28  -333.593545  +2.16  -0.47
iter:   8 21:52:36  -353.695058  +2.15  -0.48
iter:   9 21:52:44  -507.978022  +2.62  -0.49
Writing to output.gpw (mode='')

iter:  10 21:52:52  -358.632943  +1.95  -0.29
iter:  11 21:53:00  -374.268254  +1.53  -0.64
iter:  12 21:53:08  -362.985560  +1.45  -0.58
iter:  13 21:53:15  -362.443929  +1.20  -0.67
iter:  14 21:53:23  -359.502360  +1.28  -0.67
Writing to output.gpw (mode='')

iter:  15 21:53:31  -353.194632  +1.19  -0.66
iter:  16 21:53:40  -351.779441  +0.65  -0.68
iter:  17 21:53:51  -350.689442  +0.12  -0.71
iter:  18 21:54:03  -348.847742  +0.26  -0.74
iter:  19 21:54:12  -344.602143  +0.64  -0.73
Writing to output.gpw (mode='')

iter:  20 21:54:20  -343.734807  +0.61  -0.84
iter:  21 21:54:28  -343.779196  +0.40  -0.96
iter:  22 21:54:40  -343.688869  +0.01  -1.03
iter:  23 21:54:49  -343.114339  -0.11  -1.07
iter:  24 21:54:57  -342.820963  -0.30  -1.25
Writing to output.gpw (mode='')

iter:  25 21:55:05  -342.824370  -0.10  -1.34
iter:  26 21:55:13  -342.694266  -0.41  -1.32
iter:  27 21:55:20  -342.625470  -0.73  -1.44
iter:  28 21:55:28  -342.587004  -0.83  -1.52
iter:  29 21:55:36  -342.577585  -0.82  -1.59
Writing to output.gpw (mode='')

iter:  30 21:55:44  -342.556147c -1.31  -1.87
iter:  31 21:55:52  -342.566867c -1.02  -1.95
iter:  32 21:56:00  -342.550035c -1.52  -1.83
iter:  33 21:56:08  -342.558931c -1.35  -2.14
iter:  34 21:56:15  -342.561425c -1.71  -2.11
Writing to output.gpw (mode='')

iter:  35 21:56:23  -342.564651c -1.84  -2.18
iter:  36 21:56:31  -342.566201c -1.98  -2.18
iter:  37 21:56:39  -342.567180c -1.89  -2.18
iter:  38 21:56:47  -342.566461c -2.17  -2.20
iter:  39 21:56:55  -342.566650c -2.37  -2.32
Writing to output.gpw (mode='')

iter:  40 21:57:03  -342.567437c -2.39  -2.37
iter:  41 21:57:11  -342.570067c -2.18  -2.45
iter:  42 21:57:18  -342.570502c -2.77  -2.68
iter:  43 21:57:26  -342.571274c -2.47  -2.73
iter:  44 21:57:34  -342.571624c -2.75  -2.83
Writing to output.gpw (mode='')

iter:  45 21:57:42  -342.572224c -2.60  -2.89
iter:  46 21:57:50  -342.572826c -2.81  -2.95
iter:  47 21:57:58  -342.573033c -3.05  -3.03
iter:  48 21:58:06  -342.573096c -3.01  -3.28
iter:  49 21:58:13  -342.573540c -3.06  -3.34
Writing to output.gpw (mode='')

iter:  50 21:58:21  -342.573533c -3.22  -3.46
iter:  51 21:58:29  -342.573590c -3.42  -3.65
iter:  52 21:58:37  -342.573742c -3.23  -3.76
iter:  53 21:58:45  -342.573780c -3.43  -3.86
iter:  54 21:58:53  -342.573847c -3.62  -3.94
Writing to output.gpw (mode='')

iter:  55 21:59:01  -342.573912c -3.78  -4.00
iter:  56 21:59:09  -342.573918c -3.83  -4.02c
iter:  57 21:59:16  -342.573960c -4.09  -4.11c
iter:  58 21:59:24  -342.573999c -3.84  -4.19c
iter:  59 21:59:32  -342.574010c -4.01  -4.27c
Writing to output.gpw (mode='')

iter:  60 21:59:45  -342.574038c -4.06  -4.38c
iter:  61 21:59:53  -342.574041c -4.38  -4.47c
iter:  62 22:00:01  -342.574056c -4.46  -4.60c
iter:  63 22:00:09  -342.574065c -4.40  -4.63c
iter:  64 22:00:17  -342.574071c -4.42  -4.66c
Writing to output.gpw (mode='')

iter:  65 22:00:25  -342.574082c -4.56  -4.72c
iter:  66 22:00:33  -342.574083c -4.61  -4.78c
iter:  67 22:00:41  -342.574088c -4.88  -4.80c
iter:  68 22:00:48  -342.574089c -4.89  -4.78c
iter:  69 22:00:56  -342.574094c -4.95  -4.65c
Writing to output.gpw (mode='')

iter:  70 22:01:04  -342.574096c -4.89  -4.73c
iter:  71 22:01:12  -342.574097c -5.20  -4.79c
iter:  72 22:01:20  -342.574099c -5.07  -4.74c
iter:  73 22:01:28  -342.574100c -5.30  -4.75c
iter:  74 22:01:36  -342.574100c -5.31  -4.72c
Writing to output.gpw (mode='')

iter:  75 22:01:43  -342.574102c -5.29  -4.69c
iter:  76 22:01:51  -342.574102c -5.41  -4.69c
iter:  77 22:01:59  -342.574102c -5.53  -4.67c
iter:  78 22:02:07  -342.574103c -5.58  -4.61c
iter:  79 22:02:15  -342.574104c -5.58  -4.64c
Writing to output.gpw (mode='')

iter:  80 22:02:23  -342.574104c -5.55  -4.70c
iter:  81 22:02:31  -342.574104c -5.77  -4.71c
iter:  82 22:02:38  -342.574104c -5.79  -4.70c
iter:  83 22:02:46  -342.574104c -5.96  -4.65c
iter:  84 22:02:54  -342.574105c -5.97  -4.66c
Writing to output.gpw (mode='')

iter:  85 22:03:02  -342.574107c -6.04  -4.69c
iter:  86 22:03:10  -342.574109c -6.11  -4.74c
iter:  87 22:03:18  -342.574112c -5.89  -4.87c
iter:  88 22:03:26  -342.574109c -6.23  -4.96c
iter:  89 22:03:36  -342.574109c -6.24  -4.96c
Writing to output.gpw (mode='')

iter:  90 22:03:44  -342.574109c -6.20  -5.01c
iter:  91 22:03:52  -342.574109c -6.49  -5.21c
iter:  92 22:04:00  -342.574109c -6.49  -5.24c
iter:  93 22:04:08  -342.574110c -6.49  -5.29c
iter:  94 22:04:16  -342.574110c -6.60  -5.37c
Writing to output.gpw (mode='')

iter:  95 22:04:24  -342.574109c -6.59  -5.43c
iter:  96 22:04:32  -342.574109c -6.74  -5.48c
iter:  97 22:04:46  -342.574109c -6.91  -5.68c
iter:  98 22:04:54  -342.574110c -6.81  -5.70c
iter:  99 22:05:02  -342.574110c -6.85  -5.75c
Writing to output.gpw (mode='')

iter: 100 22:05:10  -342.574110c -6.87  -6.00c
iter: 101 22:05:18  -342.574110c -6.90  -6.08c
iter: 102 22:05:26  -342.574110c -7.01  -6.09c
iter: 103 22:05:34  -342.574110c -7.00  -6.10c
iter: 104 22:05:42  -342.574110c -7.15  -6.17c
Writing to output.gpw (mode='')

iter: 105 22:05:50  -342.574110c -7.22  -6.37c
iter: 106 22:05:58  -342.574110c -7.23  -6.46c
iter: 107 22:06:05  -342.574110c -7.29  -6.46c
iter: 108 22:06:13  -342.574110c -7.34  -6.39c
iter: 109 22:06:21  -342.574110c -7.49c -6.40c

Converged after 109 iterations.

Dipole moment: (0.221829, -17.245751, 0.004060) |e|*Ang

Energy contributions relative to reference atoms: (reference = -17528.314784)

Kinetic:       +229.058743
Potential:     -206.261820
External:        +0.000000
XC:            -366.431824
Entropy (-ST):   -0.176855
Local:           +1.149218
--------------------------
Free energy:   -342.662537
Extrapolated:  -342.574110

Dipole-layer corrected work functions: 3.388447, 3.380643 eV

Showing only first 2 kpts
 Kpt  Band  Eigenvalues  Occupancy
  0    37     -3.62848    1.98490
  0    38     -3.53292    1.90217
  0    39     -3.31759    0.41534
  0    40     -3.13216    0.01277

  1    37     -3.41676    1.31143
  1    38     -3.39429    1.09710
  1    39     -3.32555    0.47016
  1    40     -3.30041    0.31349


Fermi level: -3.38454

Gap: 0.039 eV
Transition (v -> c):
  (s=0, k=1, n=38, [0.12, -0.12, 0.00]) -> (s=0, k=7, n=39, [0.38, 0.38, 0.00])
Writing to output.gpw (mode='')


Forces in eV/Ang:
  0 Li    0.02310    0.00552   -0.27508
  1 Li   -0.02306    0.00546   -0.27515
  2 Li   -0.00002   -0.01036   -0.28255
  3 Li    0.01186   -0.00409   -0.27731
  4 Li   -0.01183   -0.00408   -0.27718
  5 Li    0.00001    0.02134   -0.27755
  6 Li   -0.00313   -0.00019   -0.27513
  7 Li    0.00315   -0.00020   -0.27517
  8 Li   -0.00004   -0.01235   -0.26741
  9 Li   -0.00529   -0.00711    0.28845
 10 Li    0.00004    0.01563    0.24561
 11 Li    0.00528   -0.00718    0.28843
 12 Li   -0.00877   -0.00267    0.32099
 13 Li   -0.00001   -0.00745    0.22692
 14 Li    0.00875   -0.00259    0.32085
 15 Li   -0.00345    0.01212    0.24597
 16 Li   -0.00005   -0.00743    0.27703
 17 Li    0.00352    0.01227    0.24583
 18 Li   -0.00961    0.00850    0.04225
 19 Li    0.00951    0.00851    0.04177
 20 Li   -0.00001   -0.02417   -0.21739
 21 Li   -0.03071   -0.02546    0.05700
 22 Li    0.03078   -0.02537    0.05693
 23 Li   -0.00011    0.05053   -0.09375
 24 Li   -0.00130    0.01353    0.04093
 25 Li    0.00123    0.01330    0.04073
 26 Li    0.00000   -0.00339    0.06807
 27 Li    0.09264   -0.13847   -0.11046
 28 Li   -0.00037    0.02332   -0.01240
 29 Li   -0.09234   -0.13768   -0.10861
 30 Li   -0.10282    0.04238    0.12867
 31 Li   -0.00046   -0.00746   -0.02797
 32 Li    0.10262    0.04047    0.12972
 33 Li    0.02311    0.05880   -0.02802
 34 Li   -0.00012   -0.01396   -0.01165
 35 Li   -0.02295    0.05851   -0.02790
 36 O    -0.04293    0.65586   20.77213
 37 O    -0.01110   -0.07793   -0.11723
 38 C     0.01184    0.12562    0.08557
 39 C    -0.00732   -1.15932    1.28413
 40 C     0.02232   -0.02399    0.10663
 41 H     0.00883    0.00515   -0.01130
 42 H    -0.00694    0.01459   -0.01640
 43 H    -0.03053   -0.00589   -0.03215
 44 H     0.01326   -0.01666   -0.03340
 45 H    -0.01877    0.01528    0.00257
 46 H     0.03832    0.01841   -0.00964
 47 H     0.12963  -12.61068    5.89936
 48 H     0.01009   -0.01248    0.03374
 49 N    -0.09687    1.93174  -21.90401
 50 N     0.00844   11.16515   -5.99093

System changes: positions 

Initializing position-dependent things.

Density initialized from wave functions
       .-----------------------.  
      /|                       |  
     / |                       |  
    /  |                       |  
   /   |                       |  
  /    |                       |  
 *     |                       |  
 |     |                       |  
 |     |                       |  
 |     |                       |  
 |     |                       |  
 |     |              O H      |  
 |     |                       |  
 |     |           H  C        |  
 |     |            H CH H     |  
 |     |                       |  
 |     Li            C Li      |  
 |     |           H  OH       |  
 |   Li|     Li      LiN       |  
 |     |  Li      Li  H   Li   |  
 |     |   Li      Li      Li  |  
 |     |Li      Li      Li     |  
 |     | Li                    |  
 |   LLi     LLi     LLi       |  
 |     |  Li      Li      Li   |  
 | Li  |   Li      Li          |  
 |     |Li      Li      Li     |  
 Li    | Li      Li            |  
 |    Li      Li      Li       |  
 |     |                       |  
 |     |                       |  
 |     |                       |  
 |     |                       |  
 |     |                       |  
 |     |                       |  
 |     .-----------------------.  
 |    /                       /   
 |   /                       /    
 |  /                       /     
 | /                       /      
 |/                       /       
 *-----------------------*        

Positions:
   0 Li     1.617037    1.617037   10.000000    ( 0.0000,  0.0000,  0.0000)
   1 Li     4.851111    1.617037   10.000000    ( 0.0000,  0.0000,  0.0000)
   2 Li     8.085185    1.617037   10.000000    ( 0.0000,  0.0000,  0.0000)
   3 Li     1.617037    4.851111   10.000000    ( 0.0000,  0.0000,  0.0000)
   4 Li     4.851111    4.851111   10.000000    ( 0.0000,  0.0000,  0.0000)
   5 Li     8.085185    4.851111   10.000000    ( 0.0000,  0.0000,  0.0000)
   6 Li     1.617037    8.085185   10.000000    ( 0.0000,  0.0000,  0.0000)
   7 Li     4.851111    8.085185   10.000000    ( 0.0000,  0.0000,  0.0000)
   8 Li     8.085185    8.085185   10.000000    ( 0.0000,  0.0000,  0.0000)
   9 Li     0.000000    0.000000   11.617037    ( 0.0000,  0.0000,  0.0000)
  10 Li     3.234074    0.000000   11.617037    ( 0.0000,  0.0000,  0.0000)
  11 Li     6.468148    0.000000   11.617037    ( 0.0000,  0.0000,  0.0000)
  12 Li     0.000000    3.234074   11.617037    ( 0.0000,  0.0000,  0.0000)
  13 Li     3.234074    3.234074   11.617037    ( 0.0000,  0.0000,  0.0000)
  14 Li     6.468148    3.234074   11.617037    ( 0.0000,  0.0000,  0.0000)
  15 Li     0.000000    6.468148   11.617037    ( 0.0000,  0.0000,  0.0000)
  16 Li     3.234074    6.468148   11.617037    ( 0.0000,  0.0000,  0.0000)
  17 Li     6.468148    6.468148   11.617037    ( 0.0000,  0.0000,  0.0000)
  18 Li     1.617021    1.617054   13.469805    ( 0.0000,  0.0000,  0.0000)
  19 Li     4.851128    1.617054   13.469805    ( 0.0000,  0.0000,  0.0000)
  20 Li     8.085184    1.616994   13.469332    ( 0.0000,  0.0000,  0.0000)
  21 Li     1.616983    4.851065   13.469833    ( 0.0000,  0.0000,  0.0000)
  22 Li     4.851167    4.851065   13.469834    ( 0.0000,  0.0000,  0.0000)
  23 Li     8.085183    4.851203   13.469559    ( 0.0000,  0.0000,  0.0000)
  24 Li     1.617036    8.085209   13.469802    ( 0.0000,  0.0000,  0.0000)
  25 Li     4.851113    8.085208   13.469804    ( 0.0000,  0.0000,  0.0000)
  26 Li     8.085184    8.085178   13.469852    ( 0.0000,  0.0000,  0.0000)
  27 Li     0.000169   -0.000252   15.445738    ( 0.0000,  0.0000,  0.0000)
  28 Li     3.234073    0.000042   15.445916    ( 0.0000,  0.0000,  0.0000)
  29 Li     6.467980   -0.000250   15.445741    ( 0.0000,  0.0000,  0.0000)
  30 Li    -0.000187    3.234151   15.446173    ( 0.0000,  0.0000,  0.0000)
  31 Li     3.234076    3.234063   15.445887    ( 0.0000,  0.0000,  0.0000)
  32 Li     6.468332    3.234150   15.446174    ( 0.0000,  0.0000,  0.0000)
  33 Li     0.000042    6.468255   15.445888    ( 0.0000,  0.0000,  0.0000)
  34 Li     3.234076    6.468120   15.445917    ( 0.0000,  0.0000,  0.0000)
  35 Li     6.468104    6.468252   15.445887    ( 0.0000,  0.0000,  0.0000)
  36 O      8.085107    1.618230   18.483725    ( 0.0000,  0.0000,  0.0000)
  37 O      8.091275    1.596566   23.308068    ( 0.0000,  0.0000,  0.0000)
  38 C      8.070760    1.615721   20.842010    ( 0.0000,  0.0000,  0.0000)
  39 C      8.082293    0.747109   19.593145    ( 0.0000,  0.0000,  0.0000)
  40 C      8.094708    0.785181   22.124665    ( 0.0000,  0.0000,  0.0000)
  41 H      8.945415    2.276008   20.819751    ( 0.0000,  0.0000,  0.0000)
  42 H      7.182720    2.252630   20.841683    ( 0.0000,  0.0000,  0.0000)
  43 H      8.975798    0.108948   19.585821    ( 0.0000,  0.0000,  0.0000)
  44 H      7.195645    0.100510   19.577207    ( 0.0000,  0.0000,  0.0000)
  45 H      8.961956    0.109687   22.125176    ( 0.0000,  0.0000,  0.0000)
  46 H      7.194634    0.169168   22.201302    ( 0.0000,  0.0000,  0.0000)
  47 H      8.090288    1.049740   17.661145    ( 0.0000,  0.0000,  0.0000)
  48 H      8.865831    2.171725   23.275760    ( 0.0000,  0.0000,  0.0000)
  49 N      8.084824    1.620514   16.906094    ( 0.0000,  0.0000,  0.0000)
  50 N      8.085015    2.733932   16.935041    ( 0.0000,  0.0000,  0.0000)

Unit cell:
           periodic     x           y           z      points  spacing
  1. axis:    yes    9.702222    0.000000    0.000000    60     0.1617
  2. axis:    yes    0.000000    9.702222    0.000000    60     0.1617
  3. axis:    no     0.000000    0.000000   28.351111   176     0.1611

  Lengths:   9.702222   9.702222  28.351111
  Angles:   90.000000  90.000000  90.000000

Effective grid spacing dv^(1/3) = 0.1615

     iter     time        total  log10-change:
                         energy  eigst   dens
iter:   1 22:06:31  -345.288940  -0.54
iter:   2 22:06:39  -345.096655  -0.61  -1.40
iter:   3 22:06:47  -344.679520  -0.94  -1.33
iter:   4 22:06:55  -344.651307  -1.49  -1.77
Writing to output.gpw (mode='')

iter:   5 22:07:03  -344.776538  -1.12  -1.96
iter:   6 22:07:11  -344.606964  -1.38  -1.57
iter:   7 22:07:19  -344.609224  -1.87  -2.30
iter:   8 22:07:27  -344.610639c -1.75  -2.38
iter:   9 22:07:35  -344.600558c -2.22  -2.24
Writing to output.gpw (mode='')

iter:  10 22:07:43  -344.600840c -2.35  -2.53
iter:  11 22:07:51  -344.601095c -2.83  -2.75
iter:  12 22:07:59  -344.601533c -2.93  -2.83
iter:  13 22:08:07  -344.600968c -2.94  -2.92
iter:  14 22:08:15  -344.601232c -3.35  -3.00
Writing to output.gpw (mode='')

iter:  15 22:08:23  -344.601129c -3.43  -3.08
iter:  16 22:08:31  -344.601244c -3.58  -3.22
iter:  17 22:08:39  -344.601308c -3.97  -3.37
iter:  18 22:08:47  -344.601434c -3.96  -3.43
iter:  19 22:08:55  -344.601243c -4.02  -3.45
Writing to output.gpw (mode='')

iter:  20 22:09:03  -344.601363c -4.48  -3.47
iter:  21 22:09:11  -344.601397c -4.48  -3.74
iter:  22 22:09:19  -344.601392c -4.50  -3.85
iter:  23 22:09:27  -344.601408c -4.69  -3.91
iter:  24 22:09:38  -344.601406c -4.75  -3.94
Writing to output.gpw (mode='')

iter:  25 22:09:50  -344.601428c -4.98  -4.03c
iter:  26 22:09:58  -344.601423c -4.93  -4.01c
iter:  27 22:10:06  -344.601424c -5.33  -4.04c
iter:  28 22:10:14  -344.601379c -5.05  -4.03c
iter:  29 22:10:22  -344.601397c -5.12  -3.87
Writing to output.gpw (mode='')

iter:  30 22:10:30  -344.601402c -5.34  -3.92
iter:  31 22:10:38  -344.601410c -5.23  -3.93
iter:  32 22:10:46  -344.601447c -5.56  -3.85
iter:  33 22:10:54  -344.601455c -5.98  -3.99
iter:  34 22:11:02  -344.601453c -5.93  -3.96
Writing to output.gpw (mode='')

iter:  35 22:11:10  -344.601442c -5.83  -3.96
iter:  36 22:11:18  -344.601423c -5.89  -4.00c
iter:  37 22:11:26  -344.601416c -6.13  -4.07c
iter:  38 22:11:34  -344.601411c -6.24  -4.40c
iter:  39 22:11:42  -344.601427c -6.07  -4.47c
Writing to output.gpw (mode='')

iter:  40 22:11:50  -344.601417c -6.25  -4.53c
iter:  41 22:11:58  -344.601421c -6.50  -4.69c
iter:  42 22:12:06  -344.601422c -6.64  -4.75c
iter:  43 22:12:14  -344.601419c -6.85  -4.86c
iter:  44 22:12:22  -344.601419c -6.79  -5.03c
Writing to output.gpw (mode='')

iter:  45 22:12:30  -344.601419c -6.85  -5.07c
iter:  46 22:12:38  -344.601418c -7.17  -5.08c
iter:  47 22:12:46  -344.601419c -7.23  -5.20c
iter:  48 22:12:54  -344.601419c -7.10  -5.22c
iter:  49 22:13:02  -344.601420c -7.45c -5.27c

Converged after 49 iterations.

Dipole moment: (0.095169, -17.167321, -0.070115) |e|*Ang

Energy contributions relative to reference atoms: (reference = -17528.314784)

Kinetic:       +219.998720
Potential:     -200.576300
External:        +0.000000
XC:            -365.087143
Entropy (-ST):   -0.178245
Local:           +1.152426
--------------------------
Free energy:   -344.690542
Extrapolated:  -344.601420

Dipole-layer corrected work functions: 3.392298, 3.527083 eV

Showing only first 2 kpts
 Kpt  Band  Eigenvalues  Occupancy
  0    37     -3.70066    1.98399
  0    38     -3.60702    1.90021
  0    39     -3.39710    0.44478
  0    40     -3.20854    0.01308

  1    37     -3.49742    1.36038
  1    38     -3.46469    1.04995
  1    39     -3.40196    0.47932
  1    40     -3.36900    0.28036


Fermi level: -3.45969

Gap: 0.034 eV
Transition (v -> c):
  (s=0, k=1, n=38, [0.12, -0.12, 0.00]) -> (s=0, k=7, n=39, [0.38, 0.38, 0.00])
Writing to output.gpw (mode='')


Forces in eV/Ang:
  0 Li    0.02365    0.00575   -0.27553
  1 Li   -0.02363    0.00569   -0.27558
  2 Li   -0.00002   -0.01020   -0.28281
  3 Li    0.01213   -0.00326   -0.27782
  4 Li   -0.01211   -0.00323   -0.27771
  5 Li    0.00001    0.02124   -0.27796
  6 Li   -0.00243   -0.00003   -0.27579
  7 Li    0.00245   -0.00003   -0.27583
  8 Li   -0.00004   -0.01329   -0.26766
  9 Li   -0.00585   -0.00629    0.28905
 10 Li    0.00005    0.01506    0.24536
 11 Li    0.00583   -0.00636    0.28903
 12 Li   -0.00947   -0.00265    0.32302
 13 Li   -0.00000   -0.00804    0.22653
 14 Li    0.00945   -0.00255    0.32287
 15 Li   -0.00338    0.01295    0.24529
 16 Li   -0.00006   -0.00831    0.27400
 17 Li    0.00347    0.01310    0.24516
 18 Li   -0.00806    0.00813    0.03897
 19 Li    0.00798    0.00812    0.03850
 20 Li   -0.00004   -0.02344   -0.21000
 21 Li   -0.03034   -0.02653    0.05670
 22 Li    0.03039   -0.02645    0.05658
 23 Li   -0.00011    0.05021   -0.09296
 24 Li   -0.00199    0.01308    0.04183
 25 Li    0.00191    0.01284    0.04162
 26 Li    0.00000   -0.00476    0.06358
 27 Li    0.07511   -0.11706   -0.08682
 28 Li   -0.00036    0.02109   -0.01460
 29 Li   -0.07461   -0.11603   -0.08470
 30 Li   -0.09695    0.02396    0.14917
 31 Li   -0.00046   -0.00499   -0.03106
 32 Li    0.09697    0.02150    0.15041
 33 Li    0.02341    0.05418   -0.02848
 34 Li   -0.00010   -0.01265   -0.01271
 35 Li   -0.02327    0.05382   -0.02834
 36 O    -0.03128   -0.31337   15.93340
 37 O    -0.00632   -0.07141   -0.07523
 38 C     0.01250   -0.03712    0.32909
 39 C    -0.00544   -0.84055    1.47007
 40 C     0.02025    0.02901    0.09926
 41 H     0.01283   -0.00260   -0.02850
 42 H    -0.00999    0.00707   -0.03229
 43 H     0.02886   -0.07573    0.02259
 44 H    -0.04630   -0.08555    0.01967
 45 H    -0.01405    0.01136    0.00381
 46 H     0.03448    0.01575   -0.00778
 47 H     0.09119   -8.04330    4.46029
 48 H     0.00366   -0.01777    0.03071
 49 N    -0.07641    1.35105  -17.55492
 50 N     0.00994    8.04391   -4.70214

System changes: positions 

Initializing position-dependent things.

Density initialized from wave functions
       .-----------------------.  
      /|                       |  
     / |                       |  
    /  |                       |  
   /   |                       |  
  /    |                       |  
 *     |                       |  
 |     |                       |  
 |     |                       |  
 |     |                       |  
 |     |                       |  
 |     |              O H      |  
 |     |                       |  
 |     |           H  C        |  
 |     |            H CH H     |  
 |     |                       |  
 |     Li            C Li      |  
 |     |           H  OH       |  
 |   Li|     Li      LiN       |  
 |     |  Li      Li  H   Li   |  
 |     |   Li      Li      Li  |  
 |     |Li      Li      Li     |  
 |     | Li                    |  
 |   LLi     LLi     LLi       |  
 |     |  Li      Li      Li   |  
 | Li  |   Li      Li          |  
 |     |Li      Li      Li     |  
 Li    | Li      Li            |  
 |    Li      Li      Li       |  
 |     |                       |  
 |     |                       |  
 |     |                       |  
 |     |                       |  
 |     |                       |  
 |     |                       |  
 |     .-----------------------.  
 |    /                       /   
 |   /                       /    
 |  /                       /     
 | /                       /      
 |/                       /       
 *-----------------------*        

Positions:
   0 Li     1.617037    1.617037   10.000000    ( 0.0000,  0.0000,  0.0000)
   1 Li     4.851111    1.617037   10.000000    ( 0.0000,  0.0000,  0.0000)
   2 Li     8.085185    1.617037   10.000000    ( 0.0000,  0.0000,  0.0000)
   3 Li     1.617037    4.851111   10.000000    ( 0.0000,  0.0000,  0.0000)
   4 Li     4.851111    4.851111   10.000000    ( 0.0000,  0.0000,  0.0000)
   5 Li     8.085185    4.851111   10.000000    ( 0.0000,  0.0000,  0.0000)
   6 Li     1.617037    8.085185   10.000000    ( 0.0000,  0.0000,  0.0000)
   7 Li     4.851111    8.085185   10.000000    ( 0.0000,  0.0000,  0.0000)
   8 Li     8.085185    8.085185   10.000000    ( 0.0000,  0.0000,  0.0000)
   9 Li     0.000000    0.000000   11.617037    ( 0.0000,  0.0000,  0.0000)
  10 Li     3.234074    0.000000   11.617037    ( 0.0000,  0.0000,  0.0000)
  11 Li     6.468148    0.000000   11.617037    ( 0.0000,  0.0000,  0.0000)
  12 Li     0.000000    3.234074   11.617037    ( 0.0000,  0.0000,  0.0000)
  13 Li     3.234074    3.234074   11.617037    ( 0.0000,  0.0000,  0.0000)
  14 Li     6.468148    3.234074   11.617037    ( 0.0000,  0.0000,  0.0000)
  15 Li     0.000000    6.468148   11.617037    ( 0.0000,  0.0000,  0.0000)
  16 Li     3.234074    6.468148   11.617037    ( 0.0000,  0.0000,  0.0000)
  17 Li     6.468148    6.468148   11.617037    ( 0.0000,  0.0000,  0.0000)
  18 Li     1.616999    1.617085   13.469943    ( 0.0000,  0.0000,  0.0000)
  19 Li     4.851150    1.617085   13.469941    ( 0.0000,  0.0000,  0.0000)
  20 Li     8.085183    1.616902   13.468510    ( 0.0000,  0.0000,  0.0000)
  21 Li     1.616858    4.850945   13.470068    ( 0.0000,  0.0000,  0.0000)
  22 Li     4.851291    4.850946   13.470068    ( 0.0000,  0.0000,  0.0000)
  23 Li     8.085183    4.851411   13.469176    ( 0.0000,  0.0000,  0.0000)
  24 Li     1.617022    8.085260   13.469984    ( 0.0000,  0.0000,  0.0000)
  25 Li     4.851126    8.085258   13.469985    ( 0.0000,  0.0000,  0.0000)
  26 Li     8.085184    8.085147   13.470083    ( 0.0000,  0.0000,  0.0000)
  27 Li     0.000348   -0.000577   15.445557    ( 0.0000,  0.0000,  0.0000)
  28 Li     3.234072    0.000113   15.445838    ( 0.0000,  0.0000,  0.0000)
  29 Li     6.467805   -0.000569   15.445571    ( 0.0000,  0.0000,  0.0000)
  30 Li    -0.000548    3.234109   15.446956    ( 0.0000,  0.0000,  0.0000)
  31 Li     3.234074    3.234061   15.445733    ( 0.0000,  0.0000,  0.0000)
  32 Li     6.468695    3.234094   15.446963    ( 0.0000,  0.0000,  0.0000)
  33 Li     0.000142    6.468447   15.445765    ( 0.0000,  0.0000,  0.0000)
  34 Li     3.234076    6.468077   15.445855    ( 0.0000,  0.0000,  0.0000)
  35 Li     6.468004    6.468441   15.445765    ( 0.0000,  0.0000,  0.0000)
  36 O      8.085066    1.609443   18.513140    ( 0.0000,  0.0000,  0.0000)
  37 O      8.091285    1.596318   23.308077    ( 0.0000,  0.0000,  0.0000)
  38 C      8.070817    1.614310   20.845266    ( 0.0000,  0.0000,  0.0000)
  39 C      8.082285    0.746047   19.600736    ( 0.0000,  0.0000,  0.0000)
  40 C      8.094777    0.785712   22.125024    ( 0.0000,  0.0000,  0.0000)
  41 H      8.945499    2.275937   20.819499    ( 0.0000,  0.0000,  0.0000)
  42 H      7.182655    2.252601   20.841425    ( 0.0000,  0.0000,  0.0000)
  43 H      8.976377    0.108092   19.586338    ( 0.0000,  0.0000,  0.0000)
  44 H      7.194992    0.099620   19.577698    ( 0.0000,  0.0000,  0.0000)
  45 H      8.961934    0.109704   22.125202    ( 0.0000,  0.0000,  0.0000)
  46 H      7.194749    0.169213   22.201283    ( 0.0000,  0.0000,  0.0000)
  47 H      8.090373    1.051277   17.668728    ( 0.0000,  0.0000,  0.0000)
  48 H      8.865796    2.171610   23.275865    ( 0.0000,  0.0000,  0.0000)
  49 N      8.084662    1.621694   16.866112    ( 0.0000,  0.0000,  0.0000)
  50 N      8.085069    2.743550   16.925287    ( 0.0000,  0.0000,  0.0000)

Unit cell:
           periodic     x           y           z      points  spacing
  1. axis:    yes    9.702222    0.000000    0.000000    60     0.1617
  2. axis:    yes    0.000000    9.702222    0.000000    60     0.1617
  3. axis:    no     0.000000    0.000000   28.351111   176     0.1611

  Lengths:   9.702222   9.702222  28.351111
  Angles:   90.000000  90.000000  90.000000

Effective grid spacing dv^(1/3) = 0.1615

     iter     time        total  log10-change:
                         energy  eigst   dens
iter:   1 22:13:12  -345.918398  -0.82
iter:   2 22:13:19  -345.988675  -1.15  -1.69
iter:   3 22:13:27  -345.849890  -1.33  -1.58
iter:   4 22:13:35  -345.844735  -1.97  -2.05
Writing to output.gpw (mode='')

iter:   5 22:13:43  -345.838885c -1.53  -2.24
iter:   6 22:13:51  -345.844021c -1.66  -2.10
iter:   7 22:13:59  -345.860505c -1.95  -2.21
iter:   8 22:14:07  -345.839628c -2.65  -2.11
iter:   9 22:14:15  -345.830870c -2.09  -2.33
Writing to output.gpw (mode='')

iter:  10 22:14:23  -345.829844c -3.09  -2.34
iter:  11 22:14:31  -345.829693c -3.47  -2.92
iter:  12 22:14:43  -345.828917c -3.19  -2.97
iter:  13 22:14:52  -345.829225c -3.40  -2.94
iter:  14 22:15:00  -345.829772c -3.70  -3.15
Writing to output.gpw (mode='')

iter:  15 22:15:08  -345.829557c -3.97  -3.27
iter:  16 22:15:16  -345.829609c -3.87  -3.34
iter:  17 22:15:24  -345.829660c -4.42  -3.59
iter:  18 22:15:32  -345.829721c -4.31  -3.67
iter:  19 22:15:40  -345.829646c -4.37  -3.68
Writing to output.gpw (mode='')

iter:  20 22:15:48  -345.829675c -4.93  -3.97
iter:  21 22:15:55  -345.829672c -4.71  -3.99
iter:  22 22:16:03  -345.829690c -4.64  -4.02c
iter:  23 22:16:11  -345.829685c -4.92  -4.04c
iter:  24 22:16:19  -345.829691c -5.12  -3.95
Writing to output.gpw (mode='')

iter:  25 22:16:27  -345.829669c -5.15  -3.99
iter:  26 22:16:35  -345.829671c -5.20  -3.93
iter:  27 22:16:43  -345.829683c -5.24  -3.97
iter:  28 22:16:51  -345.829699c -5.42  -4.00
iter:  29 22:16:59  -345.829701c -5.68  -4.06c
Writing to output.gpw (mode='')

iter:  30 22:17:07  -345.829702c -5.55  -4.25c
iter:  31 22:17:15  -345.829717c -5.84  -4.27c
iter:  32 22:17:23  -345.829717c -5.64  -4.36c
iter:  33 22:17:31  -345.829717c -5.83  -4.45c
iter:  34 22:17:38  -345.829711c -6.11  -4.52c
Writing to output.gpw (mode='')

iter:  35 22:17:47  -345.829718c -5.90  -4.70c
iter:  36 22:17:54  -345.829717c -6.44  -4.77c
iter:  37 22:18:02  -345.829714c -6.15  -4.83c
iter:  38 22:18:10  -345.829714c -6.30  -4.97c
iter:  39 22:18:18  -345.829720c -6.64  -5.05c
Writing to output.gpw (mode='')

iter:  40 22:18:26  -345.829718c -6.75  -5.16c
iter:  41 22:18:34  -345.829718c -6.66  -5.31c
iter:  42 22:18:42  -345.829718c -6.91  -5.31c
iter:  43 22:18:50  -345.829718c -6.92  -5.38c
iter:  44 22:18:58  -345.829717c -6.89  -5.50c
Writing to output.gpw (mode='')

iter:  45 22:19:06  -345.829717c -7.13  -5.71c
iter:  46 22:19:14  -345.829717c -7.21  -5.82c
iter:  47 22:19:22  -345.829718c -7.09  -5.87c
iter:  48 22:19:33  -345.829718c -7.43c -5.94c

Converged after 48 iterations.

Dipole moment: (0.004531, -17.070203, -0.128897) |e|*Ang

Energy contributions relative to reference atoms: (reference = -17528.314784)

Kinetic:       +215.271965
Potential:     -197.674003
External:        +0.000000
XC:            -364.493118
Entropy (-ST):   -0.178809
Local:           +1.154843
--------------------------
Free energy:   -345.919122
Extrapolated:  -345.829718

Dipole-layer corrected work functions: 3.395478, 3.643263 eV

Showing only first 2 kpts
 Kpt  Band  Eigenvalues  Occupancy
  0    37     -3.75654    1.98273
  0    38     -3.66727    1.90128
  0    39     -3.45562    0.43678
  0    40     -3.27410    0.01470

  1    37     -3.56082    1.39226
  1    38     -3.52086    1.01486
  1    39     -3.46650    0.51562
  1    40     -3.42254    0.25204


Fermi level: -3.51937

Gap: 0.028 eV
Transition (v -> c):
  (s=0, k=1, n=38, [0.12, -0.12, 0.00]) -> (s=0, k=7, n=39, [0.38, 0.38, 0.00])
Writing to output.gpw (mode='')


Forces in eV/Ang:
  0 Li    0.02414    0.00600   -0.27588
  1 Li   -0.02411    0.00593   -0.27591
  2 Li   -0.00002   -0.00992   -0.28260
  3 Li    0.01196   -0.00207   -0.27818
  4 Li   -0.01194   -0.00203   -0.27807
  5 Li    0.00001    0.02112   -0.27820
  6 Li   -0.00170    0.00037   -0.27668
  7 Li    0.00172    0.00036   -0.27673
  8 Li   -0.00004   -0.01465   -0.26772
  9 Li   -0.00618   -0.00555    0.28894
 10 Li    0.00006    0.01454    0.24556
 11 Li    0.00615   -0.00564    0.28891
 12 Li   -0.01044   -0.00247    0.32434
 13 Li   -0.00000   -0.00901    0.22634
 14 Li    0.01041   -0.00237    0.32417
 15 Li   -0.00326    0.01436    0.24439
 16 Li   -0.00007   -0.00997    0.27112
 17 Li    0.00337    0.01454    0.24426
 18 Li   -0.00739    0.00774    0.03715
 19 Li    0.00733    0.00772    0.03669
 20 Li   -0.00008   -0.02263   -0.19812
 21 Li   -0.02980   -0.02772    0.05663
 22 Li    0.02985   -0.02766    0.05647
 23 Li   -0.00011    0.04900   -0.08771
 24 Li   -0.00256    0.01209    0.04251
 25 Li    0.00248    0.01183    0.04230
 26 Li    0.00000   -0.00539    0.05827
 27 Li    0.05819   -0.09979   -0.06842
 28 Li   -0.00035    0.01984   -0.01562
 29 Li   -0.05750   -0.09852   -0.06614
 30 Li   -0.08655    0.01119    0.15423
 31 Li   -0.00048   -0.00343   -0.03292
 32 Li    0.08672    0.00819    0.15558
 33 Li    0.02247    0.04792   -0.02912
 34 Li   -0.00009   -0.01089   -0.01345
 35 Li   -0.02234    0.04747   -0.02896
 36 O    -0.02532   -0.45039   12.80931
 37 O    -0.00236   -0.05980   -0.03178
 38 C     0.01239   -0.02548    0.45189
 39 C    -0.00088   -0.86720    1.51989
 40 C     0.01891    0.01247    0.14919
 41 H    -0.00207   -0.02502   -0.02386
 42 H     0.00709   -0.01513   -0.02698
 43 H     0.04347   -0.12328    0.10990
 44 H    -0.05879   -0.13031    0.10625
 45 H    -0.01655    0.01333    0.00692
 46 H     0.03727    0.01747   -0.00454
 47 H     0.07160   -5.80545    3.89454
 48 H    -0.00035   -0.01953    0.03014
 49 N    -0.05778    1.08150  -15.13683
 50 N     0.01084    6.36746   -3.83114

System changes: positions 

Initializing position-dependent things.

Density initialized from wave functions
       .-----------------------.  
      /|                       |  
     / |                       |  
    /  |                       |  
   /   |                       |  
  /    |                       |  
 *     |                       |  
 |     |                       |  
 |     |                       |  
 |     |                       |  
 |     |                       |  
 |     |              O H      |  
 |     |                       |  
 |     |           H  C        |  
 |     |            H CH H     |  
 |     |                       |  
 |     Li            C Li      |  
 |     |           H  OH       |  
 |   Li|     Li      LiN       |  
 |     |  Li      Li  H   Li   |  
 |     |   Li      Li      Li  |  
 |     |Li      Li      Li     |  
 |     | Li                    |  
 |   LLi     LLi     LLi       |  
 |     |  Li      Li      Li   |  
 | Li  |   Li      Li          |  
 |     |Li      Li      Li     |  
 Li    | Li      Li            |  
 |    Li      Li      Li       |  
 |     |                       |  
 |     |                       |  
 |     |                       |  
 |     |                       |  
 |     |                       |  
 |     |                       |  
 |     .-----------------------.  
 |    /                       /   
 |   /                       /    
 |  /                       /     
 | /                       /      
 |/                       /       
 *-----------------------*        

Positions:
   0 Li     1.617037    1.617037   10.000000    ( 0.0000,  0.0000,  0.0000)
   1 Li     4.851111    1.617037   10.000000    ( 0.0000,  0.0000,  0.0000)
   2 Li     8.085185    1.617037   10.000000    ( 0.0000,  0.0000,  0.0000)
   3 Li     1.617037    4.851111   10.000000    ( 0.0000,  0.0000,  0.0000)
   4 Li     4.851111    4.851111   10.000000    ( 0.0000,  0.0000,  0.0000)
   5 Li     8.085185    4.851111   10.000000    ( 0.0000,  0.0000,  0.0000)
   6 Li     1.617037    8.085185   10.000000    ( 0.0000,  0.0000,  0.0000)
   7 Li     4.851111    8.085185   10.000000    ( 0.0000,  0.0000,  0.0000)
   8 Li     8.085185    8.085185   10.000000    ( 0.0000,  0.0000,  0.0000)
   9 Li     0.000000    0.000000   11.617037    ( 0.0000,  0.0000,  0.0000)
  10 Li     3.234074    0.000000   11.617037    ( 0.0000,  0.0000,  0.0000)
  11 Li     6.468148    0.000000   11.617037    ( 0.0000,  0.0000,  0.0000)
  12 Li     0.000000    3.234074   11.617037    ( 0.0000,  0.0000,  0.0000)
  13 Li     3.234074    3.234074   11.617037    ( 0.0000,  0.0000,  0.0000)
  14 Li     6.468148    3.234074   11.617037    ( 0.0000,  0.0000,  0.0000)
  15 Li     0.000000    6.468148   11.617037    ( 0.0000,  0.0000,  0.0000)
  16 Li     3.234074    6.468148   11.617037    ( 0.0000,  0.0000,  0.0000)
  17 Li     6.468148    6.468148   11.617037    ( 0.0000,  0.0000,  0.0000)
  18 Li     1.616973    1.617121   13.470110    ( 0.0000,  0.0000,  0.0000)
  19 Li     4.851176    1.617121   13.470107    ( 0.0000,  0.0000,  0.0000)
  20 Li     8.085182    1.616791   13.467577    ( 0.0000,  0.0000,  0.0000)
  21 Li     1.616705    4.850783   13.470368    ( 0.0000,  0.0000,  0.0000)
  22 Li     4.851445    4.850784   13.470367    ( 0.0000,  0.0000,  0.0000)
  23 Li     8.085182    4.851662   13.468749    ( 0.0000,  0.0000,  0.0000)
  24 Li     1.617001    8.085315   13.470221    ( 0.0000,  0.0000,  0.0000)
  25 Li     4.851147    8.085311   13.470220    ( 0.0000,  0.0000,  0.0000)
  26 Li     8.085184    8.085107   13.470332    ( 0.0000,  0.0000,  0.0000)
  27 Li     0.000444   -0.000871   15.445451    ( 0.0000,  0.0000,  0.0000)
  28 Li     3.234070    0.000198   15.445736    ( 0.0000,  0.0000,  0.0000)
  29 Li     6.467715   -0.000854   15.445479    ( 0.0000,  0.0000,  0.0000)
  30 Li    -0.000904    3.233978   15.447926    ( 0.0000,  0.0000,  0.0000)
  31 Li     3.234071    3.234067   15.445528    ( 0.0000,  0.0000,  0.0000)
  32 Li     6.469054    3.233940   15.447943    ( 0.0000,  0.0000,  0.0000)
  33 Li     0.000257    6.468633   15.445603    ( 0.0000,  0.0000,  0.0000)
  34 Li     3.234076    6.468039   15.445773    ( 0.0000,  0.0000,  0.0000)
  35 Li     6.467890    6.468624   15.445604    ( 0.0000,  0.0000,  0.0000)
  36 O      8.085036    1.600785   18.533070    ( 0.0000,  0.0000,  0.0000)
  37 O      8.091327    1.596116   23.308443    ( 0.0000,  0.0000,  0.0000)
  38 C      8.070886    1.613368   20.849871    ( 0.0000,  0.0000,  0.0000)
  39 C      8.082323    0.742971   19.610211    ( 0.0000,  0.0000,  0.0000)
  40 C      8.094857    0.785951   22.126131    ( 0.0000,  0.0000,  0.0000)
  41 H      8.945405    2.275604   20.819310    ( 0.0000,  0.0000,  0.0000)
  42 H      7.182797    2.252323   20.841232    ( 0.0000,  0.0000,  0.0000)
  43 H      8.977036    0.106718   19.587838    ( 0.0000,  0.0000,  0.0000)
  44 H      7.194265    0.098234   19.579165    ( 0.0000,  0.0000,  0.0000)
  45 H      8.961854    0.109768   22.125267    ( 0.0000,  0.0000,  0.0000)
  46 H      7.194946    0.169304   22.201292    ( 0.0000,  0.0000,  0.0000)
  47 H      8.090407    1.060992   17.677668    ( 0.0000,  0.0000,  0.0000)
  48 H      8.865731    2.171464   23.276005    ( 0.0000,  0.0000,  0.0000)
  49 N      8.084596    1.622397   16.826118    ( 0.0000,  0.0000,  0.0000)
  50 N      8.085141    2.748680   16.918015    ( 0.0000,  0.0000,  0.0000)

Unit cell:
           periodic     x           y           z      points  spacing
  1. axis:    yes    9.702222    0.000000    0.000000    60     0.1617
  2. axis:    yes    0.000000    9.702222    0.000000    60     0.1617
  3. axis:    no     0.000000    0.000000   28.351111   176     0.1611

  Lengths:   9.702222   9.702222  28.351111
  Angles:   90.000000  90.000000  90.000000

Effective grid spacing dv^(1/3) = 0.1615

     iter     time        total  log10-change:
                         energy  eigst   dens
iter:   1 22:19:48  -346.716593  -0.98
iter:   2 22:19:56  -346.726256  -1.49  -2.04
iter:   3 22:20:04  -346.709055c -1.99  -1.98
iter:   4 22:20:12  -346.707492c -2.30  -2.25
Writing to output.gpw (mode='')

iter:   5 22:20:20  -346.700685c -2.02  -2.38
iter:   6 22:20:28  -346.700171c -2.71  -2.61
iter:   7 22:20:36  -346.700887c -2.44  -2.69
iter:   8 22:20:44  -346.699941c -2.95  -2.70
iter:   9 22:20:52  -346.699935c -3.45  -2.93
Writing to output.gpw (mode='')

iter:  10 22:21:00  -346.700103c -3.48  -3.00
iter:  11 22:21:08  -346.700359c -3.52  -3.28
iter:  12 22:21:16  -346.700182c -3.91  -3.24
iter:  13 22:21:24  -346.700203c -4.00  -3.37
iter:  14 22:21:32  -346.700140c -4.11  -3.43
Writing to output.gpw (mode='')

iter:  15 22:21:40  -346.700142c -4.18  -3.53
iter:  16 22:21:48  -346.700169c -4.52  -3.58
iter:  17 22:21:56  -346.700202c -4.38  -3.66
iter:  18 22:22:05  -346.700224c -4.62  -3.86
iter:  19 22:22:13  -346.700196c -4.82  -3.96
Writing to output.gpw (mode='')

iter:  20 22:22:21  -346.700259c -4.90  -3.96
iter:  21 22:22:28  -346.700235c -5.02  -3.99
iter:  22 22:22:37  -346.700211c -5.09  -4.09c
iter:  23 22:22:45  -346.700225c -5.22  -4.20c
iter:  24 22:22:53  -346.700242c -5.42  -4.32c
Writing to output.gpw (mode='')

iter:  25 22:23:01  -346.700238c -5.46  -4.43c
iter:  26 22:23:09  -346.700239c -5.58  -4.47c
iter:  27 22:23:17  -346.700238c -5.68  -4.48c
iter:  28 22:23:25  -346.700251c -5.89  -4.54c
iter:  29 22:23:33  -346.700247c -6.02  -4.70c
Writing to output.gpw (mode='')

iter:  30 22:23:41  -346.700244c -5.91  -4.94c
iter:  31 22:23:52  -346.700243c -6.12  -5.03c
iter:  32 22:24:04  -346.700243c -6.25  -5.04c
iter:  33 22:24:12  -346.700243c -6.36  -5.08c
iter:  34 22:24:20  -346.700242c -6.59  -5.22c
Writing to output.gpw (mode='')

iter:  35 22:24:28  -346.700242c -6.60  -5.38c
iter:  36 22:24:42  -346.700242c -6.69  -5.40c
iter:  37 22:24:52  -346.700243c -6.87  -5.37c
iter:  38 22:25:00  -346.700243c -6.88  -5.41c
iter:  39 22:25:08  -346.700243c -6.87  -5.50c
Writing to output.gpw (mode='')

iter:  40 22:25:16  -346.700244c -6.87  -5.52c
iter:  41 22:25:24  -346.700244c -7.22  -5.53c
iter:  42 22:25:32  -346.700244c -7.18  -5.72c
iter:  43 22:25:40  -346.700244c -7.31  -5.82c
iter:  44 22:25:48  -346.700244c -7.17  -5.86c
Writing to output.gpw (mode='')

iter:  45 22:25:56  -346.700244c -7.40c -5.92c

Converged after 45 iterations.

Dipole moment: (-0.064118, -16.997233, -0.172013) |e|*Ang

Energy contributions relative to reference atoms: (reference = -17528.314784)

Kinetic:       +212.085753
Potential:     -195.718025
External:        +0.000000
XC:            -364.135026
Entropy (-ST):   -0.178728
Local:           +1.156419
--------------------------
Free energy:   -346.789608
Extrapolated:  -346.700244

Dipole-layer corrected work functions: 3.397896, 3.728564 eV

Showing only first 2 kpts
 Kpt  Band  Eigenvalues  Occupancy
  0    37     -3.79628    1.98126
  0    38     -3.71250    1.90383
  0    39     -3.49526    0.40870
  0    40     -3.32848    0.01812

  1    37     -3.60721    1.41351
  1    38     -3.56274    0.99514
  1    39     -3.51561    0.55684
  1    40     -3.46042    0.22687


Fermi level: -3.56323

No gap

Forces in eV/Ang:
  0 Li    0.02455    0.00624   -0.27616
  1 Li   -0.02453    0.00617   -0.27617
  2 Li   -0.00002   -0.00935   -0.28201
  3 Li    0.01167   -0.00078   -0.27847
  4 Li   -0.01165   -0.00074   -0.27837
  5 Li    0.00001    0.02099   -0.27826
  6 Li   -0.00092    0.00087   -0.27755
  7 Li    0.00094    0.00086   -0.27760
  8 Li   -0.00004   -0.01602   -0.26755
  9 Li   -0.00649   -0.00481    0.28887
 10 Li    0.00007    0.01396    0.24575
 11 Li    0.00644   -0.00491    0.28883
 12 Li   -0.01117   -0.00217    0.32512
 13 Li   -0.00001   -0.01034    0.22619
 14 Li    0.01115   -0.00208    0.32494
 15 Li   -0.00312    0.01561    0.24343
 16 Li   -0.00008   -0.01161    0.26876
 17 Li    0.00324    0.01579    0.24331
 18 Li   -0.00708    0.00720    0.03599
 19 Li    0.00703    0.00718    0.03555
 20 Li   -0.00012   -0.02156   -0.18422
 21 Li   -0.02887   -0.02894    0.05628
 22 Li    0.02892   -0.02891    0.05608
 23 Li   -0.00010    0.04758   -0.08104
 24 Li   -0.00343    0.01104    0.04319
 25 Li    0.00335    0.01077    0.04299
 26 Li   -0.00000   -0.00637    0.05242
 27 Li    0.04130   -0.08380   -0.05323
 28 Li   -0.00033    0.01899   -0.01616
 29 Li   -0.04049   -0.08237   -0.05096
 30 Li   -0.07998    0.00056    0.15427
 31 Li   -0.00048   -0.00232   -0.03434
 32 Li    0.08035   -0.00276    0.15571
 33 Li    0.02091    0.04177   -0.02959
 34 Li   -0.00008   -0.00897   -0.01384
 35 Li   -0.02079    0.04129   -0.02939
 36 O    -0.02243   -0.42920   10.66387
 37 O    -0.00118   -0.05373    0.01578
 38 C     0.01082   -0.03488    0.47777
 39 C     0.00093   -0.85425    1.44659
 40 C     0.01959    0.01141    0.19571
 41 H    -0.00520   -0.03653   -0.01216
 42 H     0.01184   -0.02645   -0.01445
 43 H     0.06012   -0.17260    0.18696
 44 H    -0.07171   -0.17651    0.18329
 45 H    -0.01407    0.01042    0.01321
 46 H     0.03377    0.01389    0.00242
 47 H     0.05614   -4.45665    3.41641
 48 H    -0.00114   -0.01862    0.03042
 49 N    -0.05312    0.93477  -13.44577
 50 N     0.01020    5.31220   -3.25943

System changes: positions 

Initializing position-dependent things.

Density initialized from wave functions
       .-----------------------.  
      /|                       |  
     / |                       |  
    /  |                       |  
   /   |                       |  
  /    |                       |  
 *     |                       |  
 |     |                       |  
 |     |                       |  
 |     |                       |  
 |     |                       |  
 |     |              O H      |  
 |     |                       |  
 |     |           H  C        |  
 |     |            H CH H     |  
 |     |                       |  
 |     Li            C Li      |  
 |     |           H  OH       |  
 |   Li|     Li      LiN       |  
 |     |  Li      Li  H   Li   |  
 |     |   Li      Li      Li  |  
 |     |Li      Li      Li     |  
 |     | Li                    |  
 |   LLi     LLi     LLi       |  
 |     |  Li      Li      Li   |  
 | Li  |   Li      Li          |  
 |     |Li      Li      Li     |  
 Li    | Li      Li            |  
 |    Li      Li      Li       |  
 |     |                       |  
 |     |                       |  
 |     |                       |  
 |     |                       |  
 |     |                       |  
 |     |                       |  
 |     .-----------------------.  
 |    /                       /   
 |   /                       /    
 |  /                       /     
 | /                       /      
 |/                       /       
 *-----------------------*        

Positions:
   0 Li     1.617037    1.617037   10.000000    ( 0.0000,  0.0000,  0.0000)
   1 Li     4.851111    1.617037   10.000000    ( 0.0000,  0.0000,  0.0000)
   2 Li     8.085185    1.617037   10.000000    ( 0.0000,  0.0000,  0.0000)
   3 Li     1.617037    4.851111   10.000000    ( 0.0000,  0.0000,  0.0000)
   4 Li     4.851111    4.851111   10.000000    ( 0.0000,  0.0000,  0.0000)
   5 Li     8.085185    4.851111   10.000000    ( 0.0000,  0.0000,  0.0000)
   6 Li     1.617037    8.085185   10.000000    ( 0.0000,  0.0000,  0.0000)
   7 Li     4.851111    8.085185   10.000000    ( 0.0000,  0.0000,  0.0000)
   8 Li     8.085185    8.085185   10.000000    ( 0.0000,  0.0000,  0.0000)
   9 Li     0.000000    0.000000   11.617037    ( 0.0000,  0.0000,  0.0000)
  10 Li     3.234074    0.000000   11.617037    ( 0.0000,  0.0000,  0.0000)
  11 Li     6.468148    0.000000   11.617037    ( 0.0000,  0.0000,  0.0000)
  12 Li     0.000000    3.234074   11.617037    ( 0.0000,  0.0000,  0.0000)
  13 Li     3.234074    3.234074   11.617037    ( 0.0000,  0.0000,  0.0000)
  14 Li     6.468148    3.234074   11.617037    ( 0.0000,  0.0000,  0.0000)
  15 Li     0.000000    6.468148   11.617037    ( 0.0000,  0.0000,  0.0000)
  16 Li     3.234074    6.468148   11.617037    ( 0.0000,  0.0000,  0.0000)
  17 Li     6.468148    6.468148   11.617037    ( 0.0000,  0.0000,  0.0000)
  18 Li     1.616941    1.617158   13.470301    ( 0.0000,  0.0000,  0.0000)
  19 Li     4.851207    1.617158   13.470295    ( 0.0000,  0.0000,  0.0000)
  20 Li     8.085181    1.616672   13.466628    ( 0.0000,  0.0000,  0.0000)
  21 Li     1.616537    4.850584   13.470713    ( 0.0000,  0.0000,  0.0000)
  22 Li     4.851613    4.850585   13.470709    ( 0.0000,  0.0000,  0.0000)
  23 Li     8.085182    4.851939   13.468325    ( 0.0000,  0.0000,  0.0000)
  24 Li     1.616967    8.085369   13.470501    ( 0.0000,  0.0000,  0.0000)
  25 Li     4.851180    8.085363   13.470499    ( 0.0000,  0.0000,  0.0000)
  26 Li     8.085184    8.085051   13.470569    ( 0.0000,  0.0000,  0.0000)
  27 Li     0.000416   -0.001095   15.445426    ( 0.0000,  0.0000,  0.0000)
  28 Li     3.234068    0.000294   15.445617    ( 0.0000,  0.0000,  0.0000)
  29 Li     6.467750   -0.001065   15.445471    ( 0.0000,  0.0000,  0.0000)
  30 Li    -0.001273    3.233761   15.448997    ( 0.0000,  0.0000,  0.0000)
  31 Li     3.234068    3.234080   15.445282    ( 0.0000,  0.0000,  0.0000)
  32 Li     6.469429    3.233695   15.449024    ( 0.0000,  0.0000,  0.0000)
  33 Li     0.000372    6.468796   15.445411    ( 0.0000,  0.0000,  0.0000)
  34 Li     3.234075    6.468012   15.445676    ( 0.0000,  0.0000,  0.0000)
  35 Li     6.467775    6.468783   15.445414    ( 0.0000,  0.0000,  0.0000)
  36 O      8.084999    1.593408   18.546783    ( 0.0000,  0.0000,  0.0000)
  37 O      8.091369    1.595916   23.309284    ( 0.0000,  0.0000,  0.0000)
  38 C      8.070944    1.612456   20.854709    ( 0.0000,  0.0000,  0.0000)
  39 C      8.082374    0.738985   19.619722    ( 0.0000,  0.0000,  0.0000)
  40 C      8.094967    0.786151   22.127904    ( 0.0000,  0.0000,  0.0000)
  41 H      8.945288    2.275144   20.819268    ( 0.0000,  0.0000,  0.0000)
  42 H      7.182982    2.251929   20.841191    ( 0.0000,  0.0000,  0.0000)
  43 H      8.977856    0.104753   19.590235    ( 0.0000,  0.0000,  0.0000)
  44 H      7.193410    0.096285   19.581528    ( 0.0000,  0.0000,  0.0000)
  45 H      8.961790    0.109806   22.125415    ( 0.0000,  0.0000,  0.0000)
  46 H      7.195130    0.169363   22.201381    ( 0.0000,  0.0000,  0.0000)
  47 H      8.090378    1.074264   17.686331    ( 0.0000,  0.0000,  0.0000)
  48 H      8.865670    2.171323   23.276180    ( 0.0000,  0.0000,  0.0000)
  49 N      8.084487    1.623242   16.786127    ( 0.0000,  0.0000,  0.0000)
  50 N      8.085211    2.751931   16.911978    ( 0.0000,  0.0000,  0.0000)

Unit cell:
           periodic     x           y           z      points  spacing
  1. axis:    yes    9.702222    0.000000    0.000000    60     0.1617
  2. axis:    yes    0.000000    9.702222    0.000000    60     0.1617
  3. axis:    no     0.000000    0.000000   28.351111   176     0.1611

  Lengths:   9.702222   9.702222  28.351111
  Angles:   90.000000  90.000000  90.000000

Effective grid spacing dv^(1/3) = 0.1615

     iter     time        total  log10-change:
                         energy  eigst   dens
iter:   1 22:26:05  -347.385764  -1.08
iter:   2 22:26:13  -347.389577  -1.72  -2.19
iter:   3 22:26:21  -347.383834c -2.16  -2.19
iter:   4 22:26:29  -347.384458c -2.43  -2.36
Writing to output.gpw (mode='')

iter:   5 22:26:37  -347.380633c -2.22  -2.42
iter:   6 22:26:45  -347.379226c -2.99  -2.65
iter:   7 22:26:53  -347.379457c -2.60  -2.84
iter:   8 22:27:01  -347.379335c -3.09  -2.77
iter:   9 22:27:09  -347.379805c -3.31  -3.06
Writing to output.gpw (mode='')

iter:  10 22:27:17  -347.379634c -3.51  -3.16
iter:  11 22:27:25  -347.379651c -3.86  -3.28
iter:  12 22:27:32  -347.379426c -3.96  -3.28
iter:  13 22:27:40  -347.379501c -4.28  -3.53
iter:  14 22:27:48  -347.379526c -4.66  -3.62
Writing to output.gpw (mode='')

iter:  15 22:27:56  -347.379548c -4.50  -3.70
iter:  16 22:28:04  -347.379556c -4.62  -3.92
iter:  17 22:28:12  -347.379556c -5.06  -3.94
iter:  18 22:28:20  -347.379559c -5.08  -4.06c
iter:  19 22:28:28  -347.379564c -5.00  -4.13c
Writing to output.gpw (mode='')

iter:  20 22:28:36  -347.379586c -5.38  -4.41c
iter:  21 22:28:44  -347.379575c -5.73  -4.42c
iter:  22 22:28:52  -347.379576c -5.65  -4.51c
iter:  23 22:29:00  -347.379579c -5.85  -4.53c
iter:  24 22:29:07  -347.379576c -5.91  -4.71c
Writing to output.gpw (mode='')

iter:  25 22:29:15  -347.379570c -5.81  -4.82c
iter:  26 22:29:23  -347.379579c -6.08  -4.81c
iter:  27 22:29:31  -347.379577c -6.20  -4.90c
iter:  28 22:29:45  -347.379579c -6.24  -4.96c
iter:  29 22:29:53  -347.379579c -6.36  -5.10c
Writing to output.gpw (mode='')

iter:  30 22:30:01  -347.379579c -6.29  -5.06c
iter:  31 22:30:09  -347.379580c -6.49  -5.13c
iter:  32 22:30:17  -347.379579c -6.76  -5.37c
iter:  33 22:30:25  -347.379580c -6.68  -5.42c
iter:  34 22:30:33  -347.379581c -6.84  -5.46c
Writing to output.gpw (mode='')

iter:  35 22:30:41  -347.379581c -7.00  -5.47c
iter:  36 22:30:49  -347.379580c -7.10  -5.46c
iter:  37 22:30:56  -347.379580c -6.98  -5.34c
iter:  38 22:31:04  -347.379579c -7.16  -5.41c
iter:  39 22:31:12  -347.379580c -7.06  -5.38c
Writing to output.gpw (mode='')

iter:  40 22:31:20  -347.379580c -7.38  -5.41c
iter:  41 22:31:28  -347.379580c -7.49c -5.31c

Converged after 41 iterations.

Dipole moment: (-0.119392, -16.937393, -0.205858) |e|*Ang

Energy contributions relative to reference atoms: (reference = -17528.314784)

Kinetic:       +209.455973
Potential:     -194.056153
External:        +0.000000
XC:            -363.850160
Entropy (-ST):   -0.178155
Local:           +1.159837
--------------------------
Free energy:   -347.468658
Extrapolated:  -347.379580

Dipole-layer corrected work functions: 3.399819, 3.795548 eV

Showing only first 2 kpts
 Kpt  Band  Eigenvalues  Occupancy
  0    37     -3.82668    1.97969
  0    38     -3.74857    1.90674
  0    39     -3.52410    0.37339
  0    40     -3.37628    0.02359

  1    37     -3.64358    1.42927
  1    38     -3.59648    0.98801
  1    39     -3.55432    0.59164
  1    40     -3.48895    0.20409


Fermi level: -3.59768

No gap
Writing to output.gpw (mode='')


Forces in eV/Ang:
  0 Li    0.02493    0.00642   -0.27646
  1 Li   -0.02491    0.00636   -0.27645
  2 Li   -0.00002   -0.00848   -0.28124
  3 Li    0.01145    0.00042   -0.27881
  4 Li   -0.01144    0.00047   -0.27872
  5 Li    0.00000    0.02088   -0.27825
  6 Li   -0.00006    0.00136   -0.27838
  7 Li    0.00008    0.00135   -0.27842
  8 Li   -0.00004   -0.01722   -0.26722
  9 Li   -0.00679   -0.00409    0.28913
 10 Li    0.00007    0.01335    0.24576
 11 Li    0.00674   -0.00420    0.28908
 12 Li   -0.01158   -0.00188    0.32563
 13 Li   -0.00001   -0.01180    0.22606
 14 Li    0.01156   -0.00180    0.32546
 15 Li   -0.00294    0.01645    0.24251
 16 Li   -0.00008   -0.01290    0.26699
 17 Li    0.00307    0.01663    0.24239
 18 Li   -0.00688    0.00659    0.03505
 19 Li    0.00685    0.00656    0.03464
 20 Li   -0.00015   -0.02052   -0.16981
 21 Li   -0.02771   -0.03011    0.05563
 22 Li    0.02777   -0.03010    0.05539
 23 Li   -0.00009    0.04628   -0.07451
 24 Li   -0.00463    0.01020    0.04390
 25 Li    0.00456    0.00993    0.04373
 26 Li   -0.00001   -0.00801    0.04626
 27 Li    0.02457   -0.06796   -0.03981
 28 Li   -0.00030    0.01820   -0.01654
 29 Li   -0.02360   -0.06637   -0.03759
 30 Li   -0.07789   -0.00906    0.15351
 31 Li   -0.00047   -0.00142   -0.03558
 32 Li    0.07842   -0.01258    0.15500
 33 Li    0.01907    0.03630   -0.02970
 34 Li   -0.00008   -0.00715   -0.01400
 35 Li   -0.01895    0.03579   -0.02947
 36 O    -0.02015   -0.39506    9.18921
 37 O     0.00229   -0.04778    0.05987
 38 C     0.00777   -0.04454    0.46401
 39 C    -0.00328   -0.79533    1.28384
 40 C     0.01820    0.00939    0.22747
 41 H    -0.00693   -0.04599    0.00079
 42 H     0.01441   -0.03549   -0.00073
 43 H     0.06834   -0.21103    0.24662
 44 H    -0.07687   -0.21240    0.24348
 45 H    -0.01107    0.00720    0.02281
 46 H     0.03051    0.01016    0.01237
 47 H     0.04883   -3.60126    2.96284
 48 H    -0.00278   -0.01716    0.03260
 49 N    -0.03761    0.74699  -11.93363
 50 N     0.00989    4.57018   -2.92278

System changes: positions 

Initializing position-dependent things.

Density initialized from wave functions
       .-----------------------.  
      /|                       |  
     / |                       |  
    /  |                       |  
   /   |                       |  
  /    |                       |  
 *     |                       |  
 |     |                       |  
 |     |                       |  
 |     |                       |  
 |     |                       |  
 |     |              O H      |  
 |     |                       |  
 |     |           H  C        |  
 |     |            H CH H     |  
 |     |                       |  
 |     Li            C Li      |  
 |     |           H  OH       |  
 |   Li|     Li      LHN       |  
 |     |  Li      Li  N   Li   |  
 |     |   Li      Li      Li  |  
 |     |Li      Li      Li     |  
 |     | Li                    |  
 |   LLi     LLi     LLi       |  
 |     |  Li      Li      Li   |  
 | Li  |   Li      Li          |  
 |     |Li      Li      Li     |  
 Li    | Li      Li            |  
 |    Li      Li      Li       |  
 |     |                       |  
 |     |                       |  
 |     |                       |  
 |     |                       |  
 |     |                       |  
 |     |                       |  
 |     .-----------------------.  
 |    /                       /   
 |   /                       /    
 |  /                       /     
 | /                       /      
 |/                       /       
 *-----------------------*        

Positions:
   0 Li     1.617037    1.617037   10.000000    ( 0.0000,  0.0000,  0.0000)
   1 Li     4.851111    1.617037   10.000000    ( 0.0000,  0.0000,  0.0000)
   2 Li     8.085185    1.617037   10.000000    ( 0.0000,  0.0000,  0.0000)
   3 Li     1.617037    4.851111   10.000000    ( 0.0000,  0.0000,  0.0000)
   4 Li     4.851111    4.851111   10.000000    ( 0.0000,  0.0000,  0.0000)
   5 Li     8.085185    4.851111   10.000000    ( 0.0000,  0.0000,  0.0000)
   6 Li     1.617037    8.085185   10.000000    ( 0.0000,  0.0000,  0.0000)
   7 Li     4.851111    8.085185   10.000000    ( 0.0000,  0.0000,  0.0000)
   8 Li     8.085185    8.085185   10.000000    ( 0.0000,  0.0000,  0.0000)
   9 Li     0.000000    0.000000   11.617037    ( 0.0000,  0.0000,  0.0000)
  10 Li     3.234074    0.000000   11.617037    ( 0.0000,  0.0000,  0.0000)
  11 Li     6.468148    0.000000   11.617037    ( 0.0000,  0.0000,  0.0000)
  12 Li     0.000000    3.234074   11.617037    ( 0.0000,  0.0000,  0.0000)
  13 Li     3.234074    3.234074   11.617037    ( 0.0000,  0.0000,  0.0000)
  14 Li     6.468148    3.234074   11.617037    ( 0.0000,  0.0000,  0.0000)
  15 Li     0.000000    6.468148   11.617037    ( 0.0000,  0.0000,  0.0000)
  16 Li     3.234074    6.468148   11.617037    ( 0.0000,  0.0000,  0.0000)
  17 Li     6.468148    6.468148   11.617037    ( 0.0000,  0.0000,  0.0000)
  18 Li     1.616902    1.617197   13.470529    ( 0.0000,  0.0000,  0.0000)
  19 Li     4.851247    1.617196   13.470520    ( 0.0000,  0.0000,  0.0000)
  20 Li     8.085179    1.616539   13.465632    ( 0.0000,  0.0000,  0.0000)
  21 Li     1.616348    4.850333   13.471121    ( 0.0000,  0.0000,  0.0000)
  22 Li     4.851803    4.850333   13.471115    ( 0.0000,  0.0000,  0.0000)
  23 Li     8.085181    4.852260   13.467884    ( 0.0000,  0.0000,  0.0000)
  24 Li     1.616913    8.085426   13.470846    ( 0.0000,  0.0000,  0.0000)
  25 Li     4.851234    8.085419   13.470843    ( 0.0000,  0.0000,  0.0000)
  26 Li     8.085184    8.084965   13.470792    ( 0.0000,  0.0000,  0.0000)
  27 Li     0.000226   -0.001226   15.445497    ( 0.0000,  0.0000,  0.0000)
  28 Li     3.234066    0.000405   15.445474    ( 0.0000,  0.0000,  0.0000)
  29 Li     6.467951   -0.001180   15.445560    ( 0.0000,  0.0000,  0.0000)
  30 Li    -0.001729    3.233427   15.450242    ( 0.0000,  0.0000,  0.0000)
  31 Li     3.234064    3.234099   15.444977    ( 0.0000,  0.0000,  0.0000)
  32 Li     6.469893    3.233326   15.450283    ( 0.0000,  0.0000,  0.0000)
  33 Li     0.000489    6.468942   15.445180    ( 0.0000,  0.0000,  0.0000)
  34 Li     3.234075    6.467997   15.445560    ( 0.0000,  0.0000,  0.0000)
  35 Li     6.467659    6.468925   15.445185    ( 0.0000,  0.0000,  0.0000)
  36 O      8.084955    1.586537   18.558517    ( 0.0000,  0.0000,  0.0000)
  37 O      8.091456    1.595718   23.310715    ( 0.0000,  0.0000,  0.0000)
  38 C      8.070972    1.611436   20.859739    ( 0.0000,  0.0000,  0.0000)
  39 C      8.082358    0.734615   19.628620    ( 0.0000,  0.0000,  0.0000)
  40 C      8.095083    0.786321   22.130338    ( 0.0000,  0.0000,  0.0000)
  41 H      8.945149    2.274523   20.819399    ( 0.0000,  0.0000,  0.0000)
  42 H      7.183207    2.251393   20.841329    ( 0.0000,  0.0000,  0.0000)
  43 H      8.978824    0.102096   19.593617    ( 0.0000,  0.0000,  0.0000)
  44 H      7.192433    0.093672   19.584881    ( 0.0000,  0.0000,  0.0000)
  45 H      8.961751    0.109813   22.125715    ( 0.0000,  0.0000,  0.0000)
  46 H      7.195312    0.169388   22.201612    ( 0.0000,  0.0000,  0.0000)
  47 H      8.090358    1.089691   17.694136    ( 0.0000,  0.0000,  0.0000)
  48 H      8.865589    2.171183   23.276428    ( 0.0000,  0.0000,  0.0000)
  49 N      8.084513    1.623087   16.746128    ( 0.0000,  0.0000,  0.0000)
  50 N      8.085289    2.754506   16.905063    ( 0.0000,  0.0000,  0.0000)

Unit cell:
           periodic     x           y           z      points  spacing
  1. axis:    yes    9.702222    0.000000    0.000000    60     0.1617
  2. axis:    yes    0.000000    9.702222    0.000000    60     0.1617
  3. axis:    no     0.000000    0.000000   28.351111   176     0.1611

  Lengths:   9.702222   9.702222  28.351111
  Angles:   90.000000  90.000000  90.000000

Effective grid spacing dv^(1/3) = 0.1615

     iter     time        total  log10-change:
                         energy  eigst   dens
iter:   1 22:31:38  -347.963235  -1.13
iter:   2 22:31:46  -347.970426  -1.67  -2.13
iter:   3 22:31:54  -347.959116c -2.22  -2.08
iter:   4 22:32:02  -347.958846c -2.55  -2.32
Writing to output.gpw (mode='')

iter:   5 22:32:10  -347.956286c -2.25  -2.49
iter:   6 22:32:18  -347.955178c -3.01  -2.61
iter:   7 22:32:26  -347.955488c -2.54  -2.83
iter:   8 22:32:34  -347.954913c -3.31  -2.75
iter:   9 22:32:42  -347.954817c -3.45  -2.95
Writing to output.gpw (mode='')

iter:  10 22:32:50  -347.954862c -3.54  -3.08
iter:  11 22:32:58  -347.955352c -4.00  -3.23
iter:  12 22:33:06  -347.955099c -4.11  -3.31
iter:  13 22:33:14  -347.955170c -4.31  -3.55
iter:  14 22:33:22  -347.955052c -4.54  -3.62
Writing to output.gpw (mode='')

iter:  15 22:33:30  -347.955080c -4.45  -3.58
iter:  16 22:33:38  -347.955157c -4.54  -3.54
iter:  17 22:33:46  -347.955157c -5.14  -3.90
iter:  18 22:33:54  -347.955167c -5.09  -4.06c
iter:  19 22:34:02  -347.955160c -5.40  -4.12c
Writing to output.gpw (mode='')

iter:  20 22:34:10  -347.955183c -5.61  -4.15c
iter:  21 22:34:18  -347.955177c -5.51  -4.33c
iter:  22 22:34:26  -347.955182c -5.74  -4.37c
iter:  23 22:34:34  -347.955182c -5.70  -4.42c
iter:  24 22:34:47  -347.955184c -5.96  -4.44c
Writing to output.gpw (mode='')

iter:  25 22:34:55  -347.955176c -6.06  -4.53c
iter:  26 22:35:03  -347.955178c -6.46  -4.60c
iter:  27 22:35:11  -347.955180c -6.35  -4.65c
iter:  28 22:35:19  -347.955181c -6.57  -4.74c
iter:  29 22:35:29  -347.955180c -6.49  -4.81c
Writing to output.gpw (mode='')

iter:  30 22:35:38  -347.955177c -6.60  -4.93c
iter:  31 22:35:45  -347.955179c -6.68  -4.99c
iter:  32 22:35:53  -347.955179c -7.20  -4.94c
iter:  33 22:36:01  -347.955182c -6.86  -5.01c
iter:  34 22:36:09  -347.955180c -7.20  -5.17c
Writing to output.gpw (mode='')

iter:  35 22:36:17  -347.955181c -7.29  -5.22c
iter:  36 22:36:25  -347.955180c -7.10  -5.32c
iter:  37 22:36:33  -347.955181c -7.58c -5.37c

Converged after 37 iterations.

Dipole moment: (-0.171344, -16.879370, -0.237076) |e|*Ang

Energy contributions relative to reference atoms: (reference = -17528.314784)

Kinetic:       +206.916560
Potential:     -192.368077
External:        +0.000000
XC:            -363.577421
Entropy (-ST):   -0.177530
Local:           +1.162522
--------------------------
Free energy:   -348.043946
Extrapolated:  -347.955181

Dipole-layer corrected work functions: 3.401449, 3.857190 eV

Showing only first 2 kpts
 Kpt  Band  Eigenvalues  Occupancy
  0    37     -3.85424    1.97799
  0    38     -3.78129    1.90865
  0    39     -3.55033    0.34165
  0    40     -3.42200    0.03115

  1    37     -3.67699    1.44362
  1    38     -3.62822    0.98904
  1    39     -3.58871    0.61482
  1    40     -3.51467    0.18341


Fermi level: -3.62932

No gap
Writing to output.gpw (mode='')


Forces in eV/Ang:
  0 Li    0.02529    0.00654   -0.27685
  1 Li   -0.02528    0.00649   -0.27682
  2 Li   -0.00001   -0.00740   -0.28047
  3 Li    0.01134    0.00148   -0.27917
  4 Li   -0.01135    0.00154   -0.27909
  5 Li    0.00001    0.02068   -0.27825
  6 Li    0.00094    0.00179   -0.27911
  7 Li   -0.00093    0.00178   -0.27915
  8 Li   -0.00004   -0.01816   -0.26683
  9 Li   -0.00710   -0.00339    0.28985
 10 Li    0.00007    0.01265    0.24561
 11 Li    0.00704   -0.00350    0.28977
 12 Li   -0.01175   -0.00164    0.32602
 13 Li   -0.00002   -0.01319    0.22592
 14 Li    0.01173   -0.00157    0.32585
 15 Li   -0.00265    0.01686    0.24170
 16 Li   -0.00008   -0.01381    0.26579
 17 Li    0.00278    0.01703    0.24159
 18 Li   -0.00644    0.00593    0.03372
 19 Li    0.00643    0.00590    0.03335
 20 Li   -0.00018   -0.01947   -0.15479
 21 Li   -0.02638   -0.03118    0.05456
 22 Li    0.02644   -0.03119    0.05430
 23 Li   -0.00008    0.04526   -0.06912
 24 Li   -0.00613    0.00966    0.04453
 25 Li    0.00607    0.00941    0.04439
 26 Li   -0.00001   -0.01026    0.03979
 27 Li    0.00673   -0.05066   -0.02568
 28 Li   -0.00028    0.01716   -0.01698
 29 Li   -0.00571   -0.04904   -0.02361
 30 Li   -0.08117   -0.01931    0.15581
 31 Li   -0.00045   -0.00045   -0.03675
 32 Li    0.08187   -0.02281    0.15734
 33 Li    0.01743    0.03166   -0.02942
 34 Li   -0.00009   -0.00549   -0.01400
 35 Li   -0.01731    0.03116   -0.02917
 36 O    -0.01938   -0.21906    7.91608
 37 O     0.00575   -0.04383    0.09901
 38 C     0.00780   -0.05345    0.43500
 39 C    -0.00732   -0.74235    1.14899
 40 C     0.01551    0.00528    0.24506
 41 H    -0.00885   -0.05537    0.01376
 42 H     0.01579   -0.04350    0.01313
 43 H     0.06625   -0.23945    0.29439
 44 H    -0.07580   -0.23895    0.29046
 45 H    -0.00836    0.00425    0.03562
 46 H     0.02700    0.00612    0.02560
 47 H     0.04098   -3.02441    2.53976
 48 H    -0.00313   -0.01357    0.03645
 49 N    -0.03700    0.86394  -10.63964
 50 N     0.00833    3.82256   -2.67936

System changes: positions 

Initializing position-dependent things.

Density initialized from wave functions
       .-----------------------.  
      /|                       |  
     / |                       |  
    /  |                       |  
   /   |                       |  
  /    |                       |  
 *     |                       |  
 |     |                       |  
 |     |                       |  
 |     |                       |  
 |     |                       |  
 |     |              O H      |  
 |     |                       |  
 |     |           H  C        |  
 |     |            H CH H     |  
 |     |                       |  
 |     |             C Li      Li 
 |     |           H  OH       |  
 |   Li|     Li      LHN       |  
 |     |  Li      Li  N   Li   |  
 |     |   Li      Li      Li  |  
 |     |Li      Li      Li     |  
 |     | Li                    |  
 |   LLi     LLi     LLi       |  
 |     |  Li      Li      Li   |  
 | Li  |   Li      Li          |  
 |     |Li      Li      Li     |  
 Li    | Li      Li            |  
 |    Li      Li      Li       |  
 |     |                       |  
 |     |                       |  
 |     |                       |  
 |     |                       |  
 |     |                       |  
 |     |                       |  
 |     .-----------------------.  
 |    /                       /   
 |   /                       /    
 |  /                       /     
 | /                       /      
 |/                       /       
 *-----------------------*        

Positions:
[...]

Showing only first 2 kpts
 Kpt  Band  Eigenvalues  Occupancy
  0    37     -3.76206    1.88626
  0    38     -3.66293    1.39089
  0    39     -3.56490    0.48655
  0    40     -3.51113    0.19766

  1    37     -3.81559    1.95949
  1    38     -3.67291    1.47204
  1    39     -3.49048    0.13531
  1    40     -3.45781    0.07276


Fermi level: -3.62164

No gap
Writing to output.gpw (mode='')


Forces in eV/Ang:
  0 Li   -0.01606   -0.00713   -0.26734
  1 Li    0.01477   -0.00688   -0.26775
  2 Li   -0.00050    0.00293   -0.26628
  3 Li    0.01234   -0.00210   -0.30296
  4 Li   -0.01063   -0.00277   -0.30119
  5 Li    0.00008   -0.01044   -0.29186
  6 Li   -0.00389   -0.01116   -0.26947
  7 Li    0.00429   -0.01232   -0.27330
  8 Li   -0.00108    0.02797   -0.32223
  9 Li   -0.01976   -0.04088    0.23925
 10 Li    0.00671   -0.05425    0.15759
 11 Li    0.02375   -0.03161    0.24674
 12 Li   -0.02264    0.04047    0.24899
 13 Li   -0.00646    0.09202    0.28197
 14 Li    0.02021    0.04266    0.24689
 15 Li   -0.06322   -0.07374    0.35388
 16 Li   -0.00178    0.03284    0.37134
 17 Li    0.05656   -0.07406    0.36184
 18 Li    0.00058    0.01854    0.02525
 19 Li    0.00652    0.00300    0.02034
 20 Li   -0.01233    0.00564    0.01631
 21 Li    0.02623   -0.00573    0.01085
 22 Li   -0.00106   -0.00531    0.00674
 23 Li    0.00378   -0.02744    0.02636
 24 Li   -0.00102    0.00767    0.00452
 25 Li   -0.00959   -0.00445    0.00606
 26 Li   -0.00340   -0.01420   -0.01053
 27 Li    0.02340   -0.03122   -0.01983
 28 Li    0.00065    0.00076    0.02045
 29 Li    0.01628    0.02468   -0.02136
 30 Li   -0.00846    0.01789   -0.00754
 31 Li    0.00388    0.00454    0.03964
 32 Li    0.01399    0.03114   -0.02750
 33 Li   -0.00609    0.00624    0.00914
 34 Li   -0.00025    0.00642    0.00503
 35 Li    0.00524   -0.01526    0.00506
 36 O    -0.01284    0.01068   -0.01089
 37 O    -0.02302    0.02592    0.00159
 38 C     0.00608    0.04877    0.02043
 39 C     0.00692    0.01235    0.00897
 40 C     0.01175   -0.01031    0.01116
 41 H     0.03955    0.04246    0.00154
 42 H    -0.03693    0.03392    0.00990
 43 H     0.02825    0.00560   -0.04620
 44 H    -0.03917    0.01162   -0.04952
 45 H     0.02047   -0.04666   -0.01784
 46 H     0.00232   -0.01203    0.00819
 47 H    -0.00402    0.02392    0.02767
 48 H    -0.00086   -0.00811   -0.00320
 49 N     0.00648    0.02045   -0.00974
 50 N    -0.02429   -0.03262    0.00430

System changes: positions 

Initializing position-dependent things.

Density initialized from wave functions
       .-----------------------.  
      /|                       |  
     / |                       |  
    /  |                       |  
   /   |                       |  
  /    |                       |  
 *     |                       |  
 |     |                       |  
 |     |                       |  
 |     |                       |  
 |     |                       |  
 |     |              O H      |  
 |     |                       |  
 |     |           H  CH       |  
 |     |            H C  H     |  
 |     |                       |  
 |     |           H C         |  
 |     |              OH       |  
 |   Li|     Li      LH        |  
 |     |  Li      Li      Li   |  
 | Li  |   Li      Li          |  
 |     |Li      Li    NNLi     |  
 |     | Li       Li    Li     |  
 |   LLi     LLi     LLi       |  
 |     |  Li      Li      Li   |  
 | Li  |   Li      Li          |  
 |     |Li      Li      Li     |  
 Li    | Li      Li            |  
 |    Li      Li      Li       |  
 |     |                       |  
 |     |                       |  
 |     |                       |  
 |     |                       |  
 |     |                       |  
 |     |                       |  
 |     .-----------------------.  
 |    /                       /   
 |   /                       /    
 |  /                       /     
 | /                       /      
 |/                       /       
 *-----------------------*        

Positions:
   0 Li     1.617037    1.617037   10.000000    ( 0.0000,  0.0000,  0.0000)
   1 Li     4.851111    1.617037   10.000000    ( 0.0000,  0.0000,  0.0000)
   2 Li     8.085185    1.617037   10.000000    ( 0.0000,  0.0000,  0.0000)
   3 Li     1.617037    4.851111   10.000000    ( 0.0000,  0.0000,  0.0000)
   4 Li     4.851111    4.851111   10.000000    ( 0.0000,  0.0000,  0.0000)
   5 Li     8.085185    4.851111   10.000000    ( 0.0000,  0.0000,  0.0000)
   6 Li     1.617037    8.085185   10.000000    ( 0.0000,  0.0000,  0.0000)
   7 Li     4.851111    8.085185   10.000000    ( 0.0000,  0.0000,  0.0000)
   8 Li     8.085185    8.085185   10.000000    ( 0.0000,  0.0000,  0.0000)
   9 Li     0.000000    0.000000   11.617037    ( 0.0000,  0.0000,  0.0000)
  10 Li     3.234074    0.000000   11.617037    ( 0.0000,  0.0000,  0.0000)
  11 Li     6.468148    0.000000   11.617037    ( 0.0000,  0.0000,  0.0000)
  12 Li     0.000000    3.234074   11.617037    ( 0.0000,  0.0000,  0.0000)
  13 Li     3.234074    3.234074   11.617037    ( 0.0000,  0.0000,  0.0000)
  14 Li     6.468148    3.234074   11.617037    ( 0.0000,  0.0000,  0.0000)
  15 Li     0.000000    6.468148   11.617037    ( 0.0000,  0.0000,  0.0000)
  16 Li     3.234074    6.468148   11.617037    ( 0.0000,  0.0000,  0.0000)
  17 Li     6.468148    6.468148   11.617037    ( 0.0000,  0.0000,  0.0000)
  18 Li     1.693478    1.577517   13.432697    ( 0.0000,  0.0000,  0.0000)
  19 Li     4.776414    1.607603   13.438852    ( 0.0000,  0.0000,  0.0000)
  20 Li     8.098030    1.632397   13.368604    ( 0.0000,  0.0000,  0.0000)
  21 Li     1.544516    4.861309   13.529284    ( 0.0000,  0.0000,  0.0000)
  22 Li     4.900005    4.867637   13.543223    ( 0.0000,  0.0000,  0.0000)
  23 Li     8.063066    4.539044   13.880980    ( 0.0000,  0.0000,  0.0000)
  24 Li     1.612209    8.161661   13.541814    ( 0.0000,  0.0000,  0.0000)
  25 Li     4.855508    8.177316   13.536426    ( 0.0000,  0.0000,  0.0000)
  26 Li     8.089893    8.042667   13.469573    ( 0.0000,  0.0000,  0.0000)
  27 Li    -0.284020    0.246324   15.414191    ( 0.0000,  0.0000,  0.0000)
  28 Li     3.237830    0.076529   15.524203    ( 0.0000,  0.0000,  0.0000)
  29 Li     6.721080    0.235414   15.394637    ( 0.0000,  0.0000,  0.0000)
  30 Li     0.106828    2.980087   15.677744    ( 0.0000,  0.0000,  0.0000)
  31 Li     3.219899    3.241056   15.378019    ( 0.0000,  0.0000,  0.0000)
  32 Li     6.365898    2.963996   15.747693    ( 0.0000,  0.0000,  0.0000)
  33 Li     0.032012    6.633600   15.499449    ( 0.0000,  0.0000,  0.0000)
  34 Li     3.224178    6.441006   15.443000    ( 0.0000,  0.0000,  0.0000)
  35 Li     6.420048    6.679592   15.509123    ( 0.0000,  0.0000,  0.0000)
  36 O      7.952643    1.646859   18.757991    ( 0.0000,  0.0000,  0.0000)
  37 O      8.132145    1.501196   23.603302    ( 0.0000,  0.0000,  0.0000)
  38 C      8.078473    1.556858   21.139106    ( 0.0000,  0.0000,  0.0000)
  39 C      8.042606    0.730019   19.862033    ( 0.0000,  0.0000,  0.0000)
  40 C      8.151898    0.710692   22.407947    ( 0.0000,  0.0000,  0.0000)
  41 H      8.945431    2.223958   21.089982    ( 0.0000,  0.0000,  0.0000)
  42 H      7.187910    2.188360   21.177645    ( 0.0000,  0.0000,  0.0000)
  43 H      8.948591    0.115210   19.779227    ( 0.0000,  0.0000,  0.0000)
  44 H      7.178271    0.051900   19.871192    ( 0.0000,  0.0000,  0.0000)
  45 H      9.044941    0.071843   22.389588    ( 0.0000,  0.0000,  0.0000)
  46 H      7.276339    0.061148   22.483754    ( 0.0000,  0.0000,  0.0000)
  47 H      8.039691    1.167069   17.920919    ( 0.0000,  0.0000,  0.0000)
  48 H      8.922650    2.053858   23.615405    ( 0.0000,  0.0000,  0.0000)
  49 N      8.082089    1.762722   15.391992    ( 0.0000,  0.0000,  0.0000)
  50 N      8.073016    2.964183   14.842974    ( 0.0000,  0.0000,  0.0000)

Unit cell:
           periodic     x           y           z      points  spacing
  1. axis:    yes    9.702222    0.000000    0.000000    60     0.1617
  2. axis:    yes    0.000000    9.702222    0.000000    60     0.1617
  3. axis:    no     0.000000    0.000000   28.351111   176     0.1611

  Lengths:   9.702222   9.702222  28.351111
  Angles:   90.000000  90.000000  90.000000

Effective grid spacing dv^(1/3) = 0.1615

     iter     time        total  log10-change:
                         energy  eigst   dens
iter:   1 05:06:57  -353.246411  -2.48
iter:   2 05:07:05  -353.243703  -2.89  -2.30
iter:   3 05:07:12  -353.241943c -3.98  -2.52
iter:   4 05:07:20  -353.241851c -3.97  -2.96
Writing to output.gpw (mode='')

iter:   5 05:07:28  -353.241820c -3.64  -3.16
iter:   6 05:07:36  -353.241799c -3.65  -3.37
iter:   7 05:07:44  -353.241806c -4.48  -3.31
iter:   8 05:07:52  -353.241802c -4.82  -3.73
iter:   9 05:08:00  -353.241786c -5.24  -3.76
Writing to output.gpw (mode='')

iter:  10 05:08:08  -353.241785c -5.07  -3.87
iter:  11 05:08:16  -353.241789c -5.66  -4.04c
iter:  12 05:08:24  -353.241785c -5.81  -4.11c
iter:  13 05:08:32  -353.241789c -5.62  -4.26c
iter:  14 05:08:40  -353.241788c -6.05  -4.34c
Writing to output.gpw (mode='')

iter:  15 05:08:48  -353.241787c -6.38  -4.46c
iter:  16 05:08:55  -353.241785c -6.37  -4.52c
iter:  17 05:09:03  -353.241787c -6.61  -4.64c
iter:  18 05:09:11  -353.241787c -6.87  -4.87c
iter:  19 05:09:19  -353.241787c -6.99  -4.96c
Writing to output.gpw (mode='')

iter:  20 05:09:27  -353.241786c -6.92  -5.01c
iter:  21 05:09:36  -353.241786c -7.24  -5.10c
iter:  22 05:09:49  -353.241786c -7.49c -5.20c

Converged after 22 iterations.

Dipole moment: (0.560587, -21.627437, -0.202716) |e|*Ang

Energy contributions relative to reference atoms: (reference = -17528.314784)

Kinetic:       +174.650326
Potential:     -167.583191
External:        +0.000000
XC:            -361.423411
Entropy (-ST):   -0.171576
Local:           +1.200278
--------------------------
Free energy:   -353.327574
Extrapolated:  -353.241786

Dipole-layer corrected work functions: 3.424895, 3.814585 eV

Showing only first 2 kpts
 Kpt  Band  Eigenvalues  Occupancy
  0    37     -3.76016    1.88625
  0    38     -3.66101    1.39072
  0    39     -3.56325    0.48838
  0    40     -3.50906    0.19706

  1    37     -3.81403    1.95976
  1    38     -3.67117    1.47330
  1    39     -3.48895    0.13626
  1    40     -3.45621    0.07319


Fermi level: -3.61974

No gap
Writing to output.gpw (mode='')


Forces in eV/Ang:
  0 Li   -0.01612   -0.00713   -0.26745
  1 Li    0.01488   -0.00693   -0.26779
  2 Li   -0.00053    0.00292   -0.26651
  3 Li    0.01225   -0.00217   -0.30302
  4 Li   -0.01061   -0.00285   -0.30133
  5 Li    0.00009   -0.01043   -0.29216
  6 Li   -0.00389   -0.01119   -0.26977
  7 Li    0.00429   -0.01232   -0.27354
  8 Li   -0.00103    0.02811   -0.32210
  9 Li   -0.01890   -0.04073    0.23930
 10 Li    0.00663   -0.05308    0.15942
 11 Li    0.02283   -0.03189    0.24659
 12 Li   -0.02256    0.03997    0.24944
 13 Li   -0.00602    0.09169    0.28219
 14 Li    0.02024    0.04236    0.24696
 15 Li   -0.06277   -0.07431    0.35477
 16 Li   -0.00166    0.03264    0.37250
 17 Li    0.05632   -0.07449    0.36253
 18 Li    0.00098    0.01786    0.02413
 19 Li    0.00539    0.00264    0.01919
 20 Li   -0.01159    0.00649    0.01595
 21 Li    0.02551   -0.00495    0.01008
 22 Li   -0.00124   -0.00477    0.00606
 23 Li    0.00311   -0.01202    0.01868
 24 Li   -0.00060    0.00752    0.00429
 25 Li   -0.00938   -0.00415    0.00595
 26 Li   -0.00369   -0.01429   -0.01041
 27 Li    0.02283   -0.02956   -0.02033
 28 Li    0.00072    0.00056    0.02034
 29 Li    0.01426    0.02061   -0.02138
 30 Li    0.00134    0.01763   -0.00439
 31 Li    0.00347    0.00469    0.03911
 32 Li    0.00467    0.03314   -0.02460
 33 Li   -0.00560    0.00613    0.00854
 34 Li   -0.00006    0.00614    0.00536
 35 Li    0.00499   -0.01484    0.00463
 36 O    -0.00781    0.03157   -0.01507
 37 O    -0.02563    0.01095    0.02861
 38 C     0.00217    0.04103   -0.02427
 39 C     0.00479    0.01591   -0.03062
 40 C     0.01032    0.01041   -0.01078
 41 H     0.03392    0.02524    0.01202
 42 H    -0.02881    0.01630    0.02166
 43 H     0.00865    0.00490   -0.02783
 44 H    -0.02384    0.00610   -0.02597
 45 H    -0.00780   -0.03193   -0.00673
 46 H     0.02598   -0.00505    0.00799
 47 H    -0.00144    0.01521    0.03781
 48 H     0.00647   -0.00701   -0.00936
 49 N     0.00895   -0.00959    0.00442
 50 N    -0.02840   -0.01550    0.00034

Timing:                                      incl.     excl.
-------------------------------------------------------------------
Density initialized from wave functions:     8.277     8.275   0.0% |
 Symmetrize density:                         0.002     0.002   0.0% |
Forces:                                     48.809    48.809   0.2% |
Hamiltonian:                               560.590     0.011   0.0% |
 Atomic:                                     0.019     0.019   0.0% |
  XC Correction:                             0.000     0.000   0.0% |
 Calculate atomic Hamiltonians:              0.033     0.033   0.0% |
 Communicate:                               10.333    10.333   0.0% |
 Hartree integrate/restrict:                 2.467     2.467   0.0% |
 Initialize Hamiltonian:                     0.000     0.000   0.0% |
 Poisson:                                   27.943    10.400   0.0% |
  Communicate from 1D:                       2.598     2.598   0.0% |
  Communicate from 2D:                       2.680     2.680   0.0% |
  Communicate to 1D:                         1.532     1.532   0.0% |
  Communicate to 2D:                         3.351     3.351   0.0% |
  FFT 1D:                                    3.963     3.963   0.0% |
  FFT 2D:                                    3.418     3.418   0.0% |
 XC 3D grid:                               519.314    84.421   0.3% |
  VdW-DF integral:                         434.893     3.616   0.0% |
   Convolution:                             38.044    38.044   0.1% |
   FFT:                                     16.718    16.718   0.1% |
   gather:                                 145.434   145.434   0.6% |
   hmm1:                                    14.731    14.731   0.1% |
   hmm2:                                    19.059    19.059   0.1% |
   iFFT:                                    17.126    17.126   0.1% |
   potential:                              176.466     4.673   0.0% |
    collect:                                26.988    26.988   0.1% |
    p1:                                     79.070    79.070   0.3% |
    p2:                                     29.641    29.641   0.1% |
    sum:                                    36.094    36.094   0.1% |
   splines:                                  3.699     3.699   0.0% |
 vbar:                                       0.470     0.470   0.0% |
LCAO initialization:                         1.213     0.183   0.0% |
 LCAO eigensolver:                           0.215     0.000   0.0% |
  Calculate projections:                     0.000     0.000   0.0% |
  DenseAtomicCorrection:                     0.000     0.000   0.0% |
  Distribute overlap matrix:                 0.189     0.189   0.0% |
  Orbital Layouts:                           0.024     0.024   0.0% |
  Potential matrix:                          0.001     0.001   0.0% |
  Sum over cells:                            0.001     0.001   0.0% |
 LCAO to grid:                               0.704     0.704   0.0% |
 Set positions (LCAO WFS):                   0.111     0.067   0.0% |
  Basic WFS set positions:                   0.001     0.001   0.0% |
  Basis functions set positions:             0.000     0.000   0.0% |
  P tci:                                     0.000     0.000   0.0% |
  ST tci:                                    0.012     0.012   0.0% |
  mktci:                                     0.031     0.031   0.0% |
Redistribute:                                0.055     0.055   0.0% |
SCF-cycle:                               25575.496   513.422   2.0% ||
 Davidson:                                7395.881  2222.773   8.5% |--|
  Apply hamiltonian:                       470.819   470.819   1.8% ||
  Subspace diag:                          1372.873     0.350   0.0% |
   calc_h_matrix:                          728.325   244.974   0.9% |
    Apply hamiltonian:                     483.351   483.351   1.8% ||
   diagonalize:                             48.530    48.530   0.2% |
   rotate_psi:                             595.668   595.668   2.3% ||
  calc. matrices:                         2354.749  1226.794   4.7% |-|
   Apply hamiltonian:                     1127.956  1127.956   4.3% |-|
  diagonalize:                              21.787    21.787   0.1% |
  rotate_psi:                              952.879   952.879   3.6% ||
 Density:                                  128.822     0.084   0.0% |
  Atomic density matrices:                  16.715    16.715   0.1% |
  Mix:                                      54.616    54.616   0.2% |
  Multipole moments:                         5.398     5.398   0.0% |
  Pseudo density:                           52.009    51.943   0.2% |
   Symmetrize density:                       0.066     0.066   0.0% |
 Hamiltonian:                            17518.635     0.346   0.0% |
  Atomic:                                    0.719     0.711   0.0% |
   XC Correction:                            0.008     0.008   0.0% |
  Calculate atomic Hamiltonians:             1.136     1.136   0.0% |
  Communicate:                             245.630   245.630   0.9% |
  Hartree integrate/restrict:               78.797    78.797   0.3% |
  Poisson:                                 845.277   311.539   1.2% |
   Communicate from 1D:                     83.451    83.451   0.3% |
   Communicate from 2D:                     86.650    86.650   0.3% |
   Communicate to 1D:                       48.930    48.930   0.2% |
   Communicate to 2D:                       97.454    97.454   0.4% |
   FFT 1D:                                 107.957   107.957   0.4% |
   FFT 2D:                                 109.296   109.296   0.4% |
  XC 3D grid:                            16331.669  2654.404  10.1% |---|
   VdW-DF integral:                      13677.265   112.077   0.4% |
    Convolution:                          1212.042  1212.042   4.6% |-|
    FFT:                                   534.148   534.148   2.0% ||
    gather:                               4611.427  4611.427  17.5% |------|
    hmm1:                                  471.518   471.518   1.8% ||
    hmm2:                                  609.498   609.498   2.3% ||
    iFFT:                                  546.153   546.153   2.1% ||
    potential:                            5580.371   149.644   0.6% |
     collect:                              861.877   861.877   3.3% ||
     p1:                                  2523.732  2523.732   9.6% |---|
     p2:                                   944.222   944.222   3.6% ||
     sum:                                 1100.897  1100.897   4.2% |-|
    splines:                                 0.031     0.031   0.0% |
  vbar:                                     15.061    15.061   0.1% |
 Orthonormalize:                            18.735     0.013   0.0% |
  calc_s_matrix:                             3.102     3.102   0.0% |
  inverse-cholesky:                          4.576     4.576   0.0% |
  projections:                               0.002     0.002   0.0% |
  rotate_psi_s:                             11.042    11.042   0.0% |
Set symmetry:                                0.003     0.003   0.0% |
Other:                                     109.177   109.177   0.4% |
-------------------------------------------------------------------
Total:                                             26303.620 100.0%

Memory usage: 1.20 GiB
Date: Sat Mar 11 05:09:49 2023
