
  ___ ___ ___ _ _ _  
 |   |   |_  | | | | 
 | | | | | . | | | | 
 |__ |  _|___|_____|  22.8.0
 |___|_|             

User:   vazumah@r218.ib.bridges2.psc.edu
Date:   Fri Mar 10 18:36:48 2023
Arch:   x86_64
Pid:    10550
CWD:    /jet/home/vazumah/Calcs/LiMEAS/proton_donors/propan_1_ol_x/bridge/8.085_1.617/N2_x
Python: 3.11.0
gpaw:   /jet/home/vazumah/.conda/envs/GPAW_mpich/lib/python3.11/site-packages/gpaw
_gpaw:  /jet/home/vazumah/.conda/envs/GPAW_mpich/lib/python3.11/site-packages/
        _gpaw.cpython-311-x86_64-linux-gnu.so
ase:    /jet/home/vazumah/.conda/envs/GPAW_mpich/lib/python3.11/site-packages/ase (version 3.22.1)
numpy:  /jet/home/vazumah/.conda/envs/GPAW_mpich/lib/python3.11/site-packages/numpy (version 1.24.2)
scipy:  /jet/home/vazumah/.conda/envs/GPAW_mpich/lib/python3.11/site-packages/scipy (version 1.10.1)
libxc:  5.2.3
units:  Angstrom and eV
cores: 128
OpenMP: True
OMP_NUM_THREADS: 1

Input parameters:
  h: 0.16
  kpts: {size: [4, 4, 1]}
  occupations: {name: fermi-dirac,
                width: 0.05}
  poissonsolver: {dipolelayer: xy}
  xc: BEEF-vdW

System changes: positions, numbers, cell, pbc, initial_charges, initial_magmoms 

Initialize ...

species:
  Li:
    name: Lithium
    id: 830b4218f175192f93f959cfc0aad614
    Z: 3.0
    valence: 1
    core: 2
    charge: 0.0
    file: /jet/home/vazumah/datasets/gpaw-setups-0.9.20000/Li.PBE.gz
    compensation charges: {type: gauss,
                           rc: 0.33,
                           lmax: 2}
    cutoffs: {filter: 1.91,
              core: 2.55}
    valence states:
      #              energy  rcut
      - 2s(1.00)    -2.874   1.058
      - 2p(0.00)    -1.090   1.058
      -  s          24.337   1.058
  
    # Using partial waves for Li as LCAO basis

  O:
    name: Oxygen
    id: 32ecd46bf208036f09c70b0ec9a88b78
    Z: 8.0
    valence: 6
    core: 2
    charge: 0.0
    file: /jet/home/vazumah/datasets/gpaw-setups-0.9.20000/O.PBE.gz
    compensation charges: {type: gauss,
                           rc: 0.21,
                           lmax: 2}
    cutoffs: {filter: 1.17,
              core: 0.83}
    valence states:
      #              energy  rcut
      - 2s(2.00)   -23.961   0.688
      - 2p(4.00)    -9.029   0.598
      -  s           3.251   0.688
      -  p          18.182   0.598
      -  d           0.000   0.619
  
    # Using partial waves for O as LCAO basis

  C:
    name: Carbon
    id: 4aa54d4b901d75f77cc0ea3eec22967b
    Z: 6.0
    valence: 4
    core: 2
    charge: 0.0
    file: /jet/home/vazumah/datasets/gpaw-setups-0.9.20000/C.PBE.gz
    compensation charges: {type: gauss,
                           rc: 0.20,
                           lmax: 2}
    cutoffs: {filter: 1.14,
              core: 1.14}
    valence states:
      #              energy  rcut
      - 2s(2.00)   -13.751   0.635
      - 2p(2.00)    -5.284   0.635
      -  s          13.461   0.635
      -  p          21.927   0.635
      -  d           0.000   0.635
  
    # Using partial waves for C as LCAO basis

  H:
    name: Hydrogen
    id: d65de229564ff8ea4db303e23b6d1ecf
    Z: 1.0
    valence: 1
    core: 0
    charge: 0.0
    file: /jet/home/vazumah/datasets/gpaw-setups-0.9.20000/H.PBE.gz
    compensation charges: {type: gauss,
                           rc: 0.15,
                           lmax: 2}
    cutoffs: {filter: 0.85,
              core: 0.53}
    valence states:
      #              energy  rcut
      - 1s(1.00)    -6.494   0.476
      -  s          20.717   0.476
      -  p           0.000   0.476
  
    # Using partial waves for H as LCAO basis

  N:
    name: Nitrogen
    id: f7500608b86eaa90eef8b1d9a670dc53
    Z: 7.0
    valence: 5
    core: 2
    charge: 0.0
    file: /jet/home/vazumah/datasets/gpaw-setups-0.9.20000/N.PBE.gz
    compensation charges: {type: gauss,
                           rc: 0.18,
                           lmax: 2}
    cutoffs: {filter: 1.11,
              core: 0.96}
    valence states:
      #              energy  rcut
      - 2s(2.00)   -18.583   0.603
      - 2p(3.00)    -7.089   0.529
      -  s           8.629   0.603
      -  p          20.123   0.529
      -  d           0.000   0.577
  
    # Using partial waves for N as LCAO basis

Reference energy: -15487.462483  # eV

Spin-paired calculation

Convergence criteria:
 Maximum [total energy] change in last 3 cyles: 0.0005 eV / electron
 Maximum integral of absolute [dens]ity change: 0.0001 electrons / valence electron
 Maximum integral of absolute [eigenst]ate change: 4e-08 eV^2 / valence electron
 Maximum number of scf [iter]ations: 333
 (Square brackets indicate name in SCF output, whereas a 'c' in
 the SCF output indicates the quantity has converged.)

Symmetries present (total): 1

  ( 1  0  0)
  ( 0  1  0)
  ( 0  0  1)

16 k-points: 4 x 4 x 1 Monkhorst-Pack grid
8 k-points in the irreducible part of the Brillouin zone
       k-points in crystal coordinates                weights
   0:     0.12500000   -0.37500000    0.00000000          2/16
   1:     0.12500000   -0.12500000    0.00000000          2/16
   2:     0.12500000    0.12500000    0.00000000          2/16
   3:     0.12500000    0.37500000    0.00000000          2/16
   4:     0.37500000   -0.37500000    0.00000000          2/16
   5:     0.37500000   -0.12500000    0.00000000          2/16
   6:     0.37500000    0.12500000    0.00000000          2/16
   7:     0.37500000    0.37500000    0.00000000          2/16

Wave functions: Uniform real-space grid
  Kinetic energy operator: 6*3+1=19 point O(h^6) finite-difference Laplacian
  ScaLapack parameters: grid=1x1, blocksize=None
  Wavefunction extrapolation:
    Improved wavefunction reuse through dual PAW basis 

Occupation numbers: Fermi-Dirac:
  width: 0.0500  # eV
 

Eigensolver
   Davidson(niter=2) 

Densities:
  Coarse grid: 60*60*164 grid
  Fine grid: 120*120*328 grid
  Total Charge: 0.000000 

Density mixing:
  Method: separate
  Backend: pulay
  Linear mixing parameter: 0.05
  old densities: 5
  Damping of long wavelength oscillations: 50 

Hamiltonian:
  XC and Coulomb potentials evaluated on a 120*120*328 grid
  Using the BEEF-vdW Exchange-Correlation functional
  Interpolation: tri-quintic (5. degree polynomial)
  Poisson solver: FastPoissonSolver using
    Stencil: 6*3+1=19 point O(h^6) finite-difference Laplacian
    FFT axes: [0, 1]
    FST axes: [2]

Dipole correction along z-axis 

XC parameters: BEEF-vdW with 2 nearest neighbor stencil

Memory estimate:
  Process memory now: 127.09 MiB
  Calculator: 84.83 MiB
    Density: 22.60 MiB
      Arrays: 7.22 MiB
      Localized functions: 12.63 MiB
      Mixer: 2.75 MiB
    Hamiltonian: 5.72 MiB
      Arrays: 4.72 MiB
      XC: 0.00 MiB
      Poisson: 0.00 MiB
      vbar: 1.00 MiB
    Wavefunctions: 56.51 MiB
      Arrays psit_nG: 26.37 MiB
      Eigensolver: 29.47 MiB
      Projections: 0.01 MiB
      Projectors: 0.66 MiB

Total number of cores used: 128
Parallelization over k-points: 8
Domain decomposition: 2 x 2 x 4

Number of atoms: 50
Number of atomic orbitals: 176
Number of bands in calculation: 48
Number of valence electrons: 72
Bands to converge: occupied

... initialized

Initializing position-dependent things.

Density initialized from atomic densities
Creating initial wave functions:
  48 bands from LCAO basis set

       .-----------------------.  
      /|                       |  
     / |                       |  
    /  |                       |  
   /   |                       |  
  /    |                       |  
 *     |                       |  
 |     |                       |  
 |     |                       |  
 |     |                       |  
 |     |                       |  
 |     |                       |  
 |     |                       |  
 |     |H                 H    |  
 | H   |C                 C    |  
 |  CLi|HH   Li      LO   H    |  
 | H   |           N  H        |  
 | Li  |  LLi     LLi     Li   |  
 |     |                       |  
 Li    |LLi     LLi     Li     |  
 |   Li|     Li      Li        |  
 |    Li  Li  Li  Li  Li  Li   |  
 | Li  |   Li      Li          |  
 |     |Li      Li      Li     |  
 Li    | Li      Li            |  
 |    Li      Li      Li       |  
 |     |                       |  
 |     |                       |  
 |     |                       |  
 |     |                       |  
 |     |                       |  
 |     |                       |  
 |     .-----------------------.  
 |    /                       /   
 |   /                       /    
 |  /                       /     
 | /                       /      
 |/                       /       
 *-----------------------*        

Positions:
   0 Li     1.617037    1.617037   10.000000    ( 0.0000,  0.0000,  0.0000)
   1 Li     4.851111    1.617037   10.000000    ( 0.0000,  0.0000,  0.0000)
   2 Li     8.085185    1.617037   10.000000    ( 0.0000,  0.0000,  0.0000)
   3 Li     1.617037    4.851111   10.000000    ( 0.0000,  0.0000,  0.0000)
   4 Li     4.851111    4.851111   10.000000    ( 0.0000,  0.0000,  0.0000)
   5 Li     8.085185    4.851111   10.000000    ( 0.0000,  0.0000,  0.0000)
   6 Li     1.617037    8.085185   10.000000    ( 0.0000,  0.0000,  0.0000)
   7 Li     4.851111    8.085185   10.000000    ( 0.0000,  0.0000,  0.0000)
   8 Li     8.085185    8.085185   10.000000    ( 0.0000,  0.0000,  0.0000)
   9 Li     0.000000    0.000000   11.617037    ( 0.0000,  0.0000,  0.0000)
  10 Li     3.234074    0.000000   11.617037    ( 0.0000,  0.0000,  0.0000)
  11 Li     6.468148    0.000000   11.617037    ( 0.0000,  0.0000,  0.0000)
  12 Li     0.000000    3.234074   11.617037    ( 0.0000,  0.0000,  0.0000)
  13 Li     3.234074    3.234074   11.617037    ( 0.0000,  0.0000,  0.0000)
  14 Li     6.468148    3.234074   11.617037    ( 0.0000,  0.0000,  0.0000)
  15 Li     0.000000    6.468148   11.617037    ( 0.0000,  0.0000,  0.0000)
  16 Li     3.234074    6.468148   11.617037    ( 0.0000,  0.0000,  0.0000)
  17 Li     6.468148    6.468148   11.617037    ( 0.0000,  0.0000,  0.0000)
  18 Li     1.617038    1.617038   13.469728    ( 0.0000,  0.0000,  0.0000)
  19 Li     4.851111    1.617038   13.469729    ( 0.0000,  0.0000,  0.0000)
  20 Li     8.085184    1.617038   13.469728    ( 0.0000,  0.0000,  0.0000)
  21 Li     1.617038    4.851111   13.469729    ( 0.0000,  0.0000,  0.0000)
  22 Li     4.851111    4.851111   13.469730    ( 0.0000,  0.0000,  0.0000)
  23 Li     8.085184    4.851111   13.469729    ( 0.0000,  0.0000,  0.0000)
  24 Li     1.617038    8.085184   13.469728    ( 0.0000,  0.0000,  0.0000)
  25 Li     4.851111    8.085184   13.469729    ( 0.0000,  0.0000,  0.0000)
  26 Li     8.085184    8.085184   13.469728    ( 0.0000,  0.0000,  0.0000)
  27 Li    -0.000000   -0.000000   15.445939    ( 0.0000,  0.0000,  0.0000)
  28 Li     3.234074    0.000000   15.445939    ( 0.0000,  0.0000,  0.0000)
  29 Li     6.468148    0.000000   15.445939    ( 0.0000,  0.0000,  0.0000)
  30 Li     0.000000    3.234074   15.445939    ( 0.0000,  0.0000,  0.0000)
  31 Li     3.234076    3.234076   15.445938    ( 0.0000,  0.0000,  0.0000)
  32 Li     6.468146    3.234076   15.445938    ( 0.0000,  0.0000,  0.0000)
  33 Li     0.000000    6.468148   15.445939    ( 0.0000,  0.0000,  0.0000)
  34 Li     3.234076    6.468146   15.445938    ( 0.0000,  0.0000,  0.0000)
  35 Li     6.468146    6.468146   15.445938    ( 0.0000,  0.0000,  0.0000)
  36 O      8.085185    1.617037   18.445939    ( 0.0000,  0.0000,  0.0000)
  37 C     10.519434    1.229416   18.445810    ( 0.0000,  0.0000,  0.0000)
  38 C      9.377245    2.239826   18.435257    ( 0.0000,  0.0000,  0.0000)
  39 C     11.899769    1.891829   18.452171    ( 0.0000,  0.0000,  0.0000)
  40 H     10.400821    0.586566   19.323111    ( 0.0000,  0.0000,  0.0000)
  41 H     10.425520    0.587658   17.560130    ( 0.0000,  0.0000,  0.0000)
  42 H      9.401053    2.859769   19.335148    ( 0.0000,  0.0000,  0.0000)
  43 H      9.470828    2.906729   17.567482    ( 0.0000,  0.0000,  0.0000)
  44 H     12.033306    2.517909   19.337849    ( 0.0000,  0.0000,  0.0000)
  45 H     12.697051    1.147054   18.452977    ( 0.0000,  0.0000,  0.0000)
  46 H     12.041318    2.527345   17.573910    ( 0.0000,  0.0000,  0.0000)
  47 H      8.036424    1.039479   17.674628    ( 0.0000,  0.0000,  0.0000)
  48 N      8.085000    1.617000   16.945939    ( 0.0000,  0.0000,  0.0000)
  49 N      6.988378    1.617000   16.945939    ( 0.0000,  0.0000,  0.0000)

Unit cell:
           periodic     x           y           z      points  spacing
  1. axis:    yes    9.702222    0.000000    0.000000    60     0.1617
  2. axis:    yes    0.000000    9.702222    0.000000    60     0.1617
  3. axis:    no     0.000000    0.000000   26.351111   164     0.1607

  Lengths:   9.702222   9.702222  26.351111
  Angles:   90.000000  90.000000  90.000000

Effective grid spacing dv^(1/3) = 0.1614

     iter     time        total  log10-change:
                         energy  eigst   dens
iter:   1 18:37:03  -578.647359
iter:   2 18:37:10  -125.165010  +2.71  -0.00
iter:   3 18:37:18  -138.786621  +3.05  -0.23
iter:   4 18:37:25  -232.724787  +2.99  -0.35
Writing to output.gpw (mode='')

iter:   5 18:37:32  -287.319549  +2.77  -0.42
iter:   6 18:37:39  -320.398098  +2.36  -0.61
iter:   7 18:37:47  -334.231969  +2.02  -0.62
iter:   8 18:37:54  -353.834295  +1.85  -0.60
iter:   9 18:38:01  -339.739230  +1.66  -0.54
Writing to output.gpw (mode='')

iter:  10 18:38:08  -363.151257  +1.81  -0.74
iter:  11 18:38:16  -376.794529  +2.01  -0.61
iter:  12 18:38:23  -366.576451  +1.69  -0.57
iter:  13 18:38:30  -337.797738  +1.03  -0.58
iter:  14 18:38:37  -338.245837  +0.61  -0.75
Writing to output.gpw (mode='')

iter:  15 18:38:44  -341.715138  +0.89  -0.75
iter:  16 18:38:52  -332.382016  +1.02  -0.69
iter:  17 18:38:59  -327.553623  +0.49  -0.63
iter:  18 18:39:06  -325.485694  +0.60  -0.72
iter:  19 18:39:13  -324.733641  +0.79  -0.83
Writing to output.gpw (mode='')

iter:  20 18:39:26  -324.517717  +0.18  -0.99
iter:  21 18:39:33  -323.927275  +0.57  -1.04
iter:  22 18:39:41  -323.626978  -0.20  -1.11
iter:  23 18:39:48  -323.506340  -0.62  -1.24
iter:  24 18:39:55  -323.479458  +0.01  -1.28
Writing to output.gpw (mode='')

iter:  25 18:40:02  -323.289526  -0.42  -1.32
iter:  26 18:40:10  -323.275515  -0.55  -1.56
iter:  27 18:40:17  -323.265658c -1.04  -1.63
iter:  28 18:40:24  -323.267607c -0.84  -1.67
iter:  29 18:40:31  -323.265647c -1.25  -1.80
Writing to output.gpw (mode='')

iter:  30 18:40:39  -323.259162c -1.27  -1.84
iter:  31 18:40:46  -323.256787c -1.81  -1.95
iter:  32 18:40:53  -323.258517c -1.57  -2.08
iter:  33 18:41:00  -323.258721c -1.84  -2.28
iter:  34 18:41:08  -323.259970c -2.14  -2.33
Writing to output.gpw (mode='')

iter:  35 18:41:15  -323.261376c -2.06  -2.37
iter:  36 18:41:22  -323.262118c -2.43  -2.61
iter:  37 18:41:30  -323.262501c -2.38  -2.70
iter:  38 18:41:37  -323.262777c -2.79  -2.73
iter:  39 18:41:44  -323.262971c -2.66  -2.82
Writing to output.gpw (mode='')

iter:  40 18:41:51  -323.263104c -2.86  -2.95
iter:  41 18:41:59  -323.263193c -3.03  -3.13
iter:  42 18:42:06  -323.263469c -3.01  -3.22
iter:  43 18:42:13  -323.263565c -3.14  -3.21
iter:  44 18:42:21  -323.263617c -3.42  -3.31
Writing to output.gpw (mode='')

iter:  45 18:42:28  -323.263703c -3.31  -3.43
iter:  46 18:42:35  -323.263769c -3.60  -3.47
iter:  47 18:42:42  -323.263857c -3.66  -3.48
iter:  48 18:42:50  -323.263901c -3.82  -3.69
iter:  49 18:42:57  -323.263954c -3.84  -3.76
Writing to output.gpw (mode='')

iter:  50 18:43:04  -323.263969c -3.82  -3.84
iter:  51 18:43:11  -323.263986c -3.93  -3.86
iter:  52 18:43:19  -323.264003c -4.07  -3.89
iter:  53 18:43:26  -323.264050c -4.28  -4.04c
iter:  54 18:43:33  -323.264063c -4.34  -4.13c
Writing to output.gpw (mode='')

iter:  55 18:43:40  -323.264073c -4.39  -4.11c
iter:  56 18:43:48  -323.264081c -4.43  -4.07c
iter:  57 18:43:55  -323.264087c -4.44  -4.08c
iter:  58 18:44:02  -323.264099c -4.59  -4.06c
iter:  59 18:44:10  -323.264103c -4.50  -4.04c
Writing to output.gpw (mode='')

iter:  60 18:44:23  -323.264103c -4.74  -4.04c
iter:  61 18:44:31  -323.264116c -4.82  -4.04c
iter:  62 18:44:38  -323.264096c -4.93  -3.90
iter:  63 18:44:46  -323.264100c -5.05  -4.18c
iter:  64 18:44:53  -323.264100c -5.03  -4.19c
Writing to output.gpw (mode='')

iter:  65 18:45:00  -323.264102c -4.90  -4.23c
iter:  66 18:45:08  -323.264104c -5.23  -4.55c
iter:  67 18:45:15  -323.264104c -5.20  -4.61c
iter:  68 18:45:22  -323.264104c -5.13  -4.64c
iter:  69 18:45:29  -323.264106c -4.99  -4.73c
Writing to output.gpw (mode='')

iter:  70 18:45:37  -323.264105c -5.42  -4.77c
iter:  71 18:45:44  -323.264105c -5.40  -4.77c
iter:  72 18:45:51  -323.264106c -5.29  -4.79c
iter:  73 18:45:58  -323.264107c -5.68  -4.77c
iter:  74 18:46:06  -323.264107c -5.66  -4.80c
Writing to output.gpw (mode='')

iter:  75 18:46:13  -323.264109c -5.67  -4.76c
iter:  76 18:46:20  -323.264109c -5.74  -4.76c
iter:  77 18:46:28  -323.264108c -6.00  -4.73c
iter:  78 18:46:42  -323.264108c -6.07  -4.84c
iter:  79 18:46:52  -323.264108c -6.08  -4.76c
Writing to output.gpw (mode='')

iter:  80 18:47:00  -323.264110c -6.18  -4.83c
iter:  81 18:47:07  -323.264109c -6.23  -4.70c
iter:  82 18:47:14  -323.264108c -6.27  -4.89c
iter:  83 18:47:22  -323.264108c -6.41  -5.46c
iter:  84 18:47:29  -323.264108c -6.46  -5.43c
Writing to output.gpw (mode='')

iter:  85 18:47:36  -323.264108c -6.46  -5.39c
iter:  86 18:47:43  -323.264108c -6.42  -5.34c
iter:  87 18:47:51  -323.264108c -6.36  -5.42c
iter:  88 18:47:58  -323.264108c -6.47  -5.46c
iter:  89 18:48:05  -323.264108c -6.60  -5.44c
Writing to output.gpw (mode='')

iter:  90 18:48:13  -323.264108c -6.82  -5.51c
iter:  91 18:48:20  -323.264108c -6.84  -5.50c
iter:  92 18:48:27  -323.264108c -6.80  -5.47c
iter:  93 18:48:34  -323.264108c -6.73  -5.44c
iter:  94 18:48:42  -323.264108c -6.95  -5.43c
Writing to output.gpw (mode='')

iter:  95 18:48:49  -323.264108c -6.88  -5.49c
iter:  96 18:48:56  -323.264108c -7.12  -5.44c
iter:  97 18:49:03  -323.264108c -6.99  -5.59c
iter:  98 18:49:11  -323.264108c -6.98  -5.66c
iter:  99 18:49:22  -323.264108c -7.20  -5.73c
Writing to output.gpw (mode='')

iter: 100 18:49:30  -323.264107c -7.13  -5.80c
iter: 101 18:49:38  -323.264107c -7.20  -5.84c
iter: 102 18:49:45  -323.264108c -7.24  -6.10c
iter: 103 18:49:52  -323.264108c -7.39  -6.10c
iter: 104 18:50:00  -323.264107c -7.41c -6.18c

Converged after 104 iterations.

Dipole moment: (9.984639, -5.542974, 0.191097) |e|*Ang

Energy contributions relative to reference atoms: (reference = -15487.462483)

Kinetic:       +221.438126
Potential:     -196.115714
External:        +0.000000
XC:            -349.278276
Entropy (-ST):   -0.179709
Local:           +0.781610
--------------------------
Free energy:   -323.353962
Extrapolated:  -323.264107

Dipole-layer corrected work functions: 3.405384, 3.038030 eV

Showing only first 2 kpts
 Kpt  Band  Eigenvalues  Occupancy
  0    34     -3.46932    1.98597
  0    35     -3.30238    1.66777
  0    36     -3.15278    0.40247
  0    37     -2.98672    0.01803

  1    34     -3.28208    1.53968
  1    35     -3.20063    0.79226
  1    36     -3.15658    0.42749
  1    37     -3.11496    0.21150


Fermi level: -3.22171

No gap
Writing to output.gpw (mode='')


Forces in eV/Ang:
  0 Li    0.00830   -0.00048   -0.26335
  1 Li   -0.01293   -0.00174   -0.27882
  2 Li    0.00462   -0.00107   -0.28361
  3 Li    0.00028    0.00333   -0.27358
  4 Li    0.00039    0.00916   -0.27696
  5 Li   -0.00041    0.01763   -0.27611
  6 Li    0.00071   -0.00246   -0.27502
  7 Li    0.00014   -0.00894   -0.28010
  8 Li   -0.00146   -0.01630   -0.27669
  9 Li    0.00359    0.00229    0.28971
 10 Li   -0.00359    0.00254    0.24554
 11 Li    0.00185    0.00950    0.31577
 12 Li    0.00436   -0.00386    0.29372
 13 Li   -0.00807   -0.00258    0.24576
 14 Li    0.00162   -0.00733    0.31327
 15 Li   -0.00891   -0.00176    0.23818
 16 Li    0.00342    0.00057    0.27188
 17 Li    0.00380   -0.00142    0.23628
 18 Li    0.00633    0.00082    0.04382
 19 Li   -0.05715    0.00340   -0.09906
 20 Li    0.02652   -0.00124   -0.20747
 21 Li   -0.01389   -0.01453    0.05947
 22 Li    0.02153   -0.03042    0.05380
 23 Li   -0.00426   -0.00997    0.03348
 24 Li   -0.01723    0.01685    0.05479
 25 Li    0.02435    0.02911    0.05606
 26 Li   -0.00812    0.01049    0.04879
 27 Li    0.04967   -0.06095   -0.16726
 28 Li   -0.02249   -0.07984   -0.10944
 29 Li   -0.11154    0.18937    0.12768
 30 Li    0.05931    0.08613   -0.22004
 31 Li    0.00624    0.08090   -0.14357
 32 Li   -0.04982   -0.18351    0.16783
 33 Li   -0.01484    0.00682   -0.01944
 34 Li    0.00114    0.00184   -0.00815
 35 Li    0.01337    0.00825   -0.01306
 36 O     6.05697    4.12364   17.27699
 37 C     0.12207    0.20233    0.12139
 38 C     1.69759    0.42294    2.83823
 39 C    -0.07239   -0.04839    0.20842
 40 H     0.01437   -0.04644   -0.06332
 41 H     0.11539   -0.11288    0.04509
 42 H     0.14409    0.03198    0.01359
 43 H    -0.01173    0.21243    0.37820
 44 H    -0.00993    0.01824    0.01767
 45 H     0.02580   -0.05666   -0.01643
 46 H    -0.05694    0.01411   -0.00480
 47 H     1.80504  -11.69735    6.42131
 48 N     7.29574    5.61181  -17.59279
 49 N   -16.98950    1.24389   -9.23288

System changes: positions 

Initializing position-dependent things.

Density initialized from wave functions
       .-----------------------.  
      /|                       |  
     / |                       |  
    /  |                       |  
   /   |                       |  
  /    |                       |  
 *     |                       |  
 |     |                       |  
 |     |                       |  
 |     |                       |  
 |     |                       |  
 |     |                       |  
 |     |                       |  
 |     LH      Li         H    |  
 | H   |C                 C    |  
 |  C  |HH   Li      LO   H  Li|  
 | H   |           N  H        |  
 | Li  |  LLi     LLi     Li   |  
 |     |                       |  
 |     |Li      LLi     Li     |  
 |   Li|     Li      Li        |  
 |    Li  Li  Li  Li  Li  Li   |  
 | Li  |   Li      Li          |  
 |     |Li      Li      Li     |  
 Li    | Li      Li            |  
 |    Li      Li      Li       |  
 |     |                       |  
 |     |                       |  
 |     |                       |  
 |     |                       |  
 |     |                       |  
 |     |                       |  
 |     .-----------------------.  
 |    /                       /   
 |   /                       /    
 |  /                       /     
 | /                       /      
 |/                       /       
 *-----------------------*        

Positions:
   0 Li     1.617037    1.617037   10.000000    ( 0.0000,  0.0000,  0.0000)
   1 Li     4.851111    1.617037   10.000000    ( 0.0000,  0.0000,  0.0000)
   2 Li     8.085185    1.617037   10.000000    ( 0.0000,  0.0000,  0.0000)
   3 Li     1.617037    4.851111   10.000000    ( 0.0000,  0.0000,  0.0000)
   4 Li     4.851111    4.851111   10.000000    ( 0.0000,  0.0000,  0.0000)
   5 Li     8.085185    4.851111   10.000000    ( 0.0000,  0.0000,  0.0000)
   6 Li     1.617037    8.085185   10.000000    ( 0.0000,  0.0000,  0.0000)
   7 Li     4.851111    8.085185   10.000000    ( 0.0000,  0.0000,  0.0000)
   8 Li     8.085185    8.085185   10.000000    ( 0.0000,  0.0000,  0.0000)
   9 Li     0.000000    0.000000   11.617037    ( 0.0000,  0.0000,  0.0000)
  10 Li     3.234074    0.000000   11.617037    ( 0.0000,  0.0000,  0.0000)
  11 Li     6.468148    0.000000   11.617037    ( 0.0000,  0.0000,  0.0000)
  12 Li     0.000000    3.234074   11.617037    ( 0.0000,  0.0000,  0.0000)
  13 Li     3.234074    3.234074   11.617037    ( 0.0000,  0.0000,  0.0000)
  14 Li     6.468148    3.234074   11.617037    ( 0.0000,  0.0000,  0.0000)
  15 Li     0.000000    6.468148   11.617037    ( 0.0000,  0.0000,  0.0000)
  16 Li     3.234074    6.468148   11.617037    ( 0.0000,  0.0000,  0.0000)
  17 Li     6.468148    6.468148   11.617037    ( 0.0000,  0.0000,  0.0000)
  18 Li     1.617051    1.617040   13.469816    ( 0.0000,  0.0000,  0.0000)
  19 Li     4.850996    1.617045   13.469530    ( 0.0000,  0.0000,  0.0000)
  20 Li     8.085237    1.617036   13.469310    ( 0.0000,  0.0000,  0.0000)
  21 Li     1.617010    4.851082   13.469849    ( 0.0000,  0.0000,  0.0000)
  22 Li     4.851154    4.851050   13.469839    ( 0.0000,  0.0000,  0.0000)
  23 Li     8.085175    4.851091   13.469797    ( 0.0000,  0.0000,  0.0000)
  24 Li     1.617003    8.085218   13.469838    ( 0.0000,  0.0000,  0.0000)
  25 Li     4.851160    8.085242   13.469842    ( 0.0000,  0.0000,  0.0000)
  26 Li     8.085168    8.085205   13.469826    ( 0.0000,  0.0000,  0.0000)
  27 Li     0.000100   -0.000123   15.445602    ( 0.0000,  0.0000,  0.0000)
  28 Li     3.234028   -0.000161   15.445718    ( 0.0000,  0.0000,  0.0000)
  29 Li     6.467924    0.000381   15.446196    ( 0.0000,  0.0000,  0.0000)
  30 Li     0.000119    3.234247   15.445496    ( 0.0000,  0.0000,  0.0000)
  31 Li     3.234089    3.234239   15.445649    ( 0.0000,  0.0000,  0.0000)
  32 Li     6.468045    3.233707   15.446276    ( 0.0000,  0.0000,  0.0000)
  33 Li    -0.000030    6.468162   15.445900    ( 0.0000,  0.0000,  0.0000)
  34 Li     3.234079    6.468149   15.445922    ( 0.0000,  0.0000,  0.0000)
  35 Li     6.468172    6.468162   15.445912    ( 0.0000,  0.0000,  0.0000)
  36 O      8.097387    1.625344   18.480745    ( 0.0000,  0.0000,  0.0000)
  37 C     10.519680    1.229824   18.446054    ( 0.0000,  0.0000,  0.0000)
  38 C      9.380665    2.240678   18.440975    ( 0.0000,  0.0000,  0.0000)
  39 C     11.899623    1.891732   18.452591    ( 0.0000,  0.0000,  0.0000)
  40 H     10.400850    0.586473   19.322983    ( 0.0000,  0.0000,  0.0000)
  41 H     10.425752    0.587431   17.560221    ( 0.0000,  0.0000,  0.0000)
  42 H      9.401343    2.859833   19.335175    ( 0.0000,  0.0000,  0.0000)
  43 H      9.470804    2.907157   17.568244    ( 0.0000,  0.0000,  0.0000)
  44 H     12.033286    2.517946   19.337885    ( 0.0000,  0.0000,  0.0000)
  45 H     12.697103    1.146940   18.452944    ( 0.0000,  0.0000,  0.0000)
  46 H     12.041203    2.527374   17.573900    ( 0.0000,  0.0000,  0.0000)
  47 H      8.040060    1.015914   17.687564    ( 0.0000,  0.0000,  0.0000)
  48 N      8.099698    1.628306   16.910497    ( 0.0000,  0.0000,  0.0000)
  49 N      6.954151    1.619506   16.927339    ( 0.0000,  0.0000,  0.0000)

Unit cell:
           periodic     x           y           z      points  spacing
  1. axis:    yes    9.702222    0.000000    0.000000    60     0.1617
  2. axis:    yes    0.000000    9.702222    0.000000    60     0.1617
  3. axis:    no     0.000000    0.000000   26.351111   164     0.1607

  Lengths:   9.702222   9.702222  26.351111
  Angles:   90.000000  90.000000  90.000000

Effective grid spacing dv^(1/3) = 0.1614

     iter     time        total  log10-change:
                         energy  eigst   dens
iter:   1 18:50:09  -327.415713  -0.29
iter:   2 18:50:16  -326.015589  -0.32  -1.27
iter:   3 18:50:23  -325.596763  -0.45  -1.26
iter:   4 18:50:31  -325.603253  -1.05  -1.64
Writing to output.gpw (mode='')

iter:   5 18:50:38  -325.906787  -1.27  -1.72
iter:   6 18:50:45  -325.703665  -1.15  -1.47
iter:   7 18:50:53  -325.558844  -1.02  -1.53
iter:   8 18:51:00  -325.572467  -1.64  -1.85
iter:   9 18:51:07  -325.535791  -1.95  -1.82
Writing to output.gpw (mode='')

iter:  10 18:51:15  -325.497002  -1.87  -1.94
iter:  11 18:51:22  -325.496476  -2.31  -2.14
iter:  12 18:51:29  -325.494675c -2.39  -2.14
iter:  13 18:51:37  -325.491110c -2.67  -2.20
iter:  14 18:51:47  -325.490910c -2.63  -2.70
Writing to output.gpw (mode='')

iter:  15 18:51:55  -325.491089c -2.96  -2.80
iter:  16 18:52:02  -325.490804c -3.34  -2.91
iter:  17 18:52:10  -325.491255c -3.06  -2.88
iter:  18 18:52:17  -325.491203c -3.58  -2.94
iter:  19 18:52:24  -325.491165c -3.95  -3.02
Writing to output.gpw (mode='')

iter:  20 18:52:32  -325.491120c -3.90  -3.12
iter:  21 18:52:39  -325.491206c -4.27  -3.43
iter:  22 18:52:46  -325.491120c -4.09  -3.29
iter:  23 18:52:54  -325.491129c -4.52  -3.62
iter:  24 18:53:01  -325.491121c -4.75  -3.63
Writing to output.gpw (mode='')

iter:  25 18:53:08  -325.491162c -4.63  -3.69
iter:  26 18:53:16  -325.491152c -4.70  -3.81
iter:  27 18:53:23  -325.491140c -5.31  -4.06c
iter:  28 18:53:30  -325.491146c -5.32  -4.09c
iter:  29 18:53:38  -325.491148c -5.52  -4.20c
Writing to output.gpw (mode='')

iter:  30 18:53:45  -325.491151c -5.53  -4.20c
iter:  31 18:53:52  -325.491140c -5.50  -4.24c
iter:  32 18:54:00  -325.491142c -5.98  -4.24c
iter:  33 18:54:07  -325.491141c -5.56  -4.24c
iter:  34 18:54:14  -325.491143c -6.07  -4.14c
Writing to output.gpw (mode='')

iter:  35 18:54:27  -325.491152c -5.81  -4.15c
iter:  36 18:54:34  -325.491150c -6.22  -4.21c
iter:  37 18:54:42  -325.491149c -6.27  -4.24c
iter:  38 18:54:49  -325.491149c -6.46  -4.25c
iter:  39 18:54:56  -325.491139c -6.30  -4.24c
Writing to output.gpw (mode='')

iter:  40 18:55:04  -325.491138c -6.85  -4.20c
iter:  41 18:55:11  -325.491148c -6.51  -4.19c
iter:  42 18:55:18  -325.491145c -6.47  -4.25c
iter:  43 18:55:26  -325.491147c -6.55  -4.21c
iter:  44 18:55:33  -325.491148c -6.46  -4.26c
Writing to output.gpw (mode='')

iter:  45 18:55:40  -325.491149c -6.72  -4.26c
iter:  46 18:55:48  -325.491144c -6.20  -4.25c
iter:  47 18:55:55  -325.491142c -6.44  -4.15c
iter:  48 18:56:02  -325.491140c -6.96  -4.31c
iter:  49 18:56:10  -325.491150c -5.84  -4.27c
Writing to output.gpw (mode='')

iter:  50 18:56:17  -325.491149c -7.06  -4.42c
iter:  51 18:56:24  -325.491152c -6.83  -4.57c
iter:  52 18:56:32  -325.491153c -6.97  -4.81c
iter:  53 18:56:39  -325.491151c -7.14  -4.85c
iter:  54 18:56:46  -325.491152c -7.42c -4.98c

Converged after 54 iterations.

Dipole moment: (9.932117, -5.357956, 0.117310) |e|*Ang

Energy contributions relative to reference atoms: (reference = -15487.462483)

Kinetic:       +207.234860
Potential:     -186.419105
External:        +0.000000
XC:            -346.998362
Entropy (-ST):   -0.183334
Local:           +0.783123
--------------------------
Free energy:   -325.582819
Extrapolated:  -325.491152

Dipole-layer corrected work functions: 3.409435, 3.183925 eV

Showing only first 2 kpts
 Kpt  Band  Eigenvalues  Occupancy
  0    34     -3.54339    1.98571
  0    35     -3.36415    1.58807
  0    36     -3.24454    0.52123
  0    37     -3.05610    0.01614

  1    34     -3.36264    1.57810
  1    35     -3.27002    0.73950
  1    36     -3.22656    0.39490
  1    37     -3.17849    0.17194


Fermi level: -3.29668

No gap
Writing to output.gpw (mode='')


Forces in eV/Ang:
  0 Li    0.00746   -0.00022   -0.26385
  1 Li   -0.01089   -0.00149   -0.27883
  2 Li    0.00382   -0.00114   -0.28439
  3 Li    0.00050    0.00531   -0.27460
  4 Li   -0.00026    0.01107   -0.27791
  5 Li   -0.00075    0.01847   -0.27746
  6 Li    0.00063   -0.00489   -0.27523
  7 Li    0.00011   -0.01136   -0.28106
  8 Li   -0.00185   -0.01722   -0.27847
  9 Li    0.00174    0.00358    0.29360
 10 Li   -0.00308    0.00225    0.24709
 11 Li    0.00237    0.00954    0.31878
 12 Li    0.00316   -0.00482    0.29724
 13 Li   -0.00756   -0.00294    0.24754
 14 Li    0.00147   -0.00759    0.31539
 15 Li   -0.00758   -0.00199    0.23613
 16 Li    0.00338    0.00162    0.26848
 17 Li    0.00339   -0.00113    0.23451
 18 Li    0.01022    0.00060    0.03253
 19 Li   -0.05809    0.00328   -0.10496
 20 Li    0.02284    0.00033   -0.19485
 21 Li   -0.01418   -0.01512    0.05908
 22 Li    0.02299   -0.02914    0.05164
 23 Li   -0.00378   -0.00423    0.02415
 24 Li   -0.01811    0.01829    0.05591
 25 Li    0.02485    0.02864    0.05443
 26 Li   -0.00735    0.00481    0.04071
 27 Li    0.02133   -0.03384   -0.11623
 28 Li   -0.02089   -0.08186   -0.10211
 29 Li   -0.07987    0.21539    0.19261
 30 Li    0.02016    0.04926   -0.14658
 31 Li    0.00828    0.08175   -0.13206
 32 Li   -0.00611   -0.21736    0.23848
 33 Li   -0.01028    0.00816   -0.02502
 34 Li    0.00091    0.00170   -0.01093
 35 Li    0.00814    0.00967   -0.02016
 36 O     4.73806    2.63408   13.13538
 37 C     0.19199    0.20811    0.13759
 38 C     1.45350    0.42723    2.55846
 39 C    -0.04496   -0.08030    0.18514
 40 H     0.02250   -0.04902   -0.06087
 41 H     0.09673   -0.09621    0.05385
 42 H     0.30083    0.17710    0.16118
 43 H     0.03736    0.18596    0.44570
 44 H    -0.00757    0.01888    0.01667
 45 H     0.03675   -0.04657   -0.01228
 46 H    -0.05489    0.01896   -0.00189
 47 H     1.63071   -7.78263    4.88893
 48 N     1.65000    3.26291  -13.73224
 49 N    -9.99964    1.02549   -7.62663

System changes: positions 

Initializing position-dependent things.

Density initialized from wave functions
       .-----------------------.  
      /|                       |  
     / |                       |  
    /  |                       |  
   /   |                       |  
  /    |                       |  
 *     |                       |  
 |     |                       |  
 |     |                       |  
 |     |                       |  
 |     |                       |  
 |     |                       |  
 |     |                       |  
 |     LH      Li         H    |  
 | H   |C                 C    |  
 |  C  |HH   Li      LO   H  Li|  
 | H   |           N  H        |  
 | Li  |  LLi     LLi     Li   |  
 |     |                       |  
 |     |Li      LLi     Li     |  
 |   Li|     Li      Li        |  
 |    Li  Li  Li  Li  Li  Li   |  
 | Li  |   Li      Li          |  
 |     |Li      Li      Li     |  
 Li    | Li      Li            |  
 |    Li      Li      Li       |  
 |     |                       |  
 |     |                       |  
 |     |                       |  
 |     |                       |  
 |     |                       |  
 |     |                       |  
 |     .-----------------------.  
 |    /                       /   
 |   /                       /    
 |  /                       /     
 | /                       /      
 |/                       /       
 *-----------------------*        

Positions:
   0 Li     1.617037    1.617037   10.000000    ( 0.0000,  0.0000,  0.0000)
   1 Li     4.851111    1.617037   10.000000    ( 0.0000,  0.0000,  0.0000)
   2 Li     8.085185    1.617037   10.000000    ( 0.0000,  0.0000,  0.0000)
   3 Li     1.617037    4.851111   10.000000    ( 0.0000,  0.0000,  0.0000)
   4 Li     4.851111    4.851111   10.000000    ( 0.0000,  0.0000,  0.0000)
   5 Li     8.085185    4.851111   10.000000    ( 0.0000,  0.0000,  0.0000)
   6 Li     1.617037    8.085185   10.000000    ( 0.0000,  0.0000,  0.0000)
   7 Li     4.851111    8.085185   10.000000    ( 0.0000,  0.0000,  0.0000)
   8 Li     8.085185    8.085185   10.000000    ( 0.0000,  0.0000,  0.0000)
   9 Li     0.000000    0.000000   11.617037    ( 0.0000,  0.0000,  0.0000)
  10 Li     3.234074    0.000000   11.617037    ( 0.0000,  0.0000,  0.0000)
  11 Li     6.468148    0.000000   11.617037    ( 0.0000,  0.0000,  0.0000)
  12 Li     0.000000    3.234074   11.617037    ( 0.0000,  0.0000,  0.0000)
  13 Li     3.234074    3.234074   11.617037    ( 0.0000,  0.0000,  0.0000)
  14 Li     6.468148    3.234074   11.617037    ( 0.0000,  0.0000,  0.0000)
  15 Li     0.000000    6.468148   11.617037    ( 0.0000,  0.0000,  0.0000)
  16 Li     3.234074    6.468148   11.617037    ( 0.0000,  0.0000,  0.0000)
  17 Li     6.468148    6.468148   11.617037    ( 0.0000,  0.0000,  0.0000)
  18 Li     1.617108    1.617041   13.469889    ( 0.0000,  0.0000,  0.0000)
  19 Li     4.850769    1.617057   13.469102    ( 0.0000,  0.0000,  0.0000)
  20 Li     8.085308    1.617044   13.468622    ( 0.0000,  0.0000,  0.0000)
  21 Li     1.616955    4.851021   13.470073    ( 0.0000,  0.0000,  0.0000)
  22 Li     4.851249    4.850944   13.470026    ( 0.0000,  0.0000,  0.0000)
  23 Li     8.085163    4.851101   13.469847    ( 0.0000,  0.0000,  0.0000)
  24 Li     1.616930    8.085294   13.470057    ( 0.0000,  0.0000,  0.0000)
  25 Li     4.851257    8.085350   13.470043    ( 0.0000,  0.0000,  0.0000)
  26 Li     8.085143    8.085198   13.469945    ( 0.0000,  0.0000,  0.0000)
  27 Li     0.000052   -0.000129   15.445390    ( 0.0000,  0.0000,  0.0000)
  28 Li     3.233956   -0.000483   15.445361    ( 0.0000,  0.0000,  0.0000)
  29 Li     6.467762    0.001324   15.447229    ( 0.0000,  0.0000,  0.0000)
  30 Li     0.000018    3.234268   15.445270    ( 0.0000,  0.0000,  0.0000)
  31 Li     3.234130    3.234556   15.445196    ( 0.0000,  0.0000,  0.0000)
  32 Li     6.468221    3.232721   15.447510    ( 0.0000,  0.0000,  0.0000)
  33 Li    -0.000048    6.468199   15.445779    ( 0.0000,  0.0000,  0.0000)
  34 Li     3.234081    6.468155   15.445867    ( 0.0000,  0.0000,  0.0000)
  35 Li     6.468180    6.468206   15.445802    ( 0.0000,  0.0000,  0.0000)
  36 O      8.109498    1.628630   18.512108    ( 0.0000,  0.0000,  0.0000)
  37 C     10.520733    1.230646   18.446654    ( 0.0000,  0.0000,  0.0000)
  38 C      9.385112    2.242331   18.449484    ( 0.0000,  0.0000,  0.0000)
  39 C     11.899576    1.891279   18.453193    ( 0.0000,  0.0000,  0.0000)
  40 H     10.400973    0.586274   19.322761    ( 0.0000,  0.0000,  0.0000)
  41 H     10.426037    0.587139   17.560467    ( 0.0000,  0.0000,  0.0000)
  42 H      9.403208    2.861172   19.336464    ( 0.0000,  0.0000,  0.0000)
  43 H      9.471170    2.907747   17.570257    ( 0.0000,  0.0000,  0.0000)
  44 H     12.033268    2.518021   19.337944    ( 0.0000,  0.0000,  0.0000)
  45 H     12.697293    1.146808   18.452916    ( 0.0000,  0.0000,  0.0000)
  46 H     12.041003    2.527468   17.573906    ( 0.0000,  0.0000,  0.0000)
  47 H      8.045502    1.003989   17.699278    ( 0.0000,  0.0000,  0.0000)
  48 N      8.080280    1.630080   16.875572    ( 0.0000,  0.0000,  0.0000)
  49 N      6.947762    1.622433   16.905491    ( 0.0000,  0.0000,  0.0000)

Unit cell:
           periodic     x           y           z      points  spacing
  1. axis:    yes    9.702222    0.000000    0.000000    60     0.1617
  2. axis:    yes    0.000000    9.702222    0.000000    60     0.1617
  3. axis:    no     0.000000    0.000000   26.351111   164     0.1607

  Lengths:   9.702222   9.702222  26.351111
  Angles:   90.000000  90.000000  90.000000

Effective grid spacing dv^(1/3) = 0.1614

     iter     time        total  log10-change:
                         energy  eigst   dens
iter:   1 18:56:55  -326.896886  -0.68
iter:   2 18:57:03  -326.863509  -0.82  -1.67
iter:   3 18:57:10  -326.796180  -1.44  -1.56
iter:   4 18:57:17  -326.796847  -1.70  -1.89
Writing to output.gpw (mode='')

iter:   5 18:57:24  -326.789397c -1.52  -1.89
iter:   6 18:57:32  -326.768972c -1.70  -1.83
iter:   7 18:57:39  -326.793669c -1.65  -2.09
iter:   8 18:57:46  -326.780009c -2.22  -2.01
iter:   9 18:57:54  -326.795702c -1.95  -2.08
Writing to output.gpw (mode='')

iter:  10 18:58:01  -326.742403  -1.23  -2.01
iter:  11 18:58:08  -326.733245  -1.96  -2.18
iter:  12 18:58:16  -326.733444c -2.24  -2.39
iter:  13 18:58:23  -326.747209c -1.50  -2.38
iter:  14 18:58:30  -326.730446c -1.58  -2.33
Writing to output.gpw (mode='')

iter:  15 18:58:37  -326.730855c -2.40  -2.66
iter:  16 18:58:45  -326.730784c -2.93  -2.79
iter:  17 18:58:52  -326.730904c -2.78  -2.88
iter:  18 18:58:59  -326.730790c -2.98  -2.90
iter:  19 18:59:06  -326.730586c -3.55  -3.07
Writing to output.gpw (mode='')

iter:  20 18:59:14  -326.730747c -3.76  -3.16
iter:  21 18:59:27  -326.730608c -3.56  -3.23
iter:  22 18:59:34  -326.730624c -3.67  -3.34
iter:  23 18:59:41  -326.730628c -4.29  -3.40
iter:  24 18:59:49  -326.730661c -4.34  -3.68
Writing to output.gpw (mode='')

iter:  25 18:59:56  -326.730642c -4.39  -3.76
iter:  26 19:00:03  -326.730643c -4.47  -3.78
iter:  27 19:00:11  -326.730641c -4.98  -3.70
iter:  28 19:00:18  -326.730647c -5.25  -3.87
iter:  29 19:00:25  -326.730656c -4.87  -3.96
Writing to output.gpw (mode='')

iter:  30 19:00:33  -326.730649c -5.51  -4.16c
iter:  31 19:00:40  -326.730661c -5.46  -4.19c
iter:  32 19:00:47  -326.730659c -5.43  -4.15c
iter:  33 19:00:55  -326.730662c -5.50  -4.29c
iter:  34 19:01:02  -326.730661c -6.20  -4.32c
Writing to output.gpw (mode='')

iter:  35 19:01:09  -326.730659c -5.90  -4.38c
iter:  36 19:01:16  -326.730648c -6.00  -4.46c
iter:  37 19:01:24  -326.730661c -6.25  -4.44c
iter:  38 19:01:31  -326.730659c -6.45  -4.54c
iter:  39 19:01:38  -326.730658c -6.50  -4.59c
Writing to output.gpw (mode='')

iter:  40 19:01:46  -326.730657c -6.44  -4.79c
iter:  41 19:01:53  -326.730657c -6.81  -4.88c
iter:  42 19:02:00  -326.730657c -6.75  -4.91c
iter:  43 19:02:07  -326.730656c -6.94  -5.04c
iter:  44 19:02:15  -326.730657c -7.09  -5.25c
Writing to output.gpw (mode='')

iter:  45 19:02:22  -326.730656c -7.03  -5.34c
iter:  46 19:02:29  -326.730657c -7.26  -5.39c
iter:  47 19:02:37  -326.730657c -7.52c -5.41c

Converged after 47 iterations.

Dipole moment: (9.963491, -5.377003, 0.087865) |e|*Ang

Energy contributions relative to reference atoms: (reference = -15487.462483)

Kinetic:       +203.676288
Potential:     -184.669049
External:        +0.000000
XC:            -346.434369
Entropy (-ST):   -0.182085
Local:           +0.787516
--------------------------
Free energy:   -326.821700
Extrapolated:  -326.730657

Dipole-layer corrected work functions: 3.410684, 3.241777 eV

Showing only first 2 kpts
 Kpt  Band  Eigenvalues  Occupancy
  0    34     -3.57375    1.98594
  0    35     -3.39554    1.59996
  0    36     -3.26886    0.48194
  0    37     -3.08495    0.01592

  1    34     -3.39583    1.60179
  1    35     -3.29801    0.72507
  1    36     -3.26236    0.43599
  1    37     -3.20174    0.15314


Fermi level: -3.32623

No gap
Writing to output.gpw (mode='')


Forces in eV/Ang:
  0 Li    0.00864   -0.00001   -0.26412
  1 Li   -0.01203   -0.00142   -0.27855
  2 Li    0.00444   -0.00101   -0.28389
  3 Li    0.00031    0.00510   -0.27538
  4 Li   -0.00058    0.01072   -0.27750
  5 Li   -0.00118    0.01932   -0.27715
  6 Li    0.00020   -0.00504   -0.27537
  7 Li    0.00007   -0.01163   -0.28072
  8 Li   -0.00231   -0.01828   -0.27817
  9 Li    0.00218    0.00306    0.29249
 10 Li   -0.00511    0.00177    0.24576
 11 Li    0.00288    0.01110    0.32117
 12 Li    0.00371   -0.00436    0.29607
 13 Li   -0.00972   -0.00283    0.24641
 14 Li    0.00145   -0.00919    0.31623
 15 Li   -0.00839   -0.00219    0.23656
 16 Li    0.00564    0.00253    0.26672
 17 Li    0.00372   -0.00085    0.23357
 18 Li    0.00865    0.00043    0.02872
 19 Li   -0.05722    0.00329   -0.09941
 20 Li    0.02712    0.00163   -0.19938
 21 Li   -0.01287   -0.01310    0.05699
 22 Li    0.02478   -0.03032    0.05430
 23 Li   -0.00466   -0.00715    0.02603
 24 Li   -0.01704    0.01719    0.05476
 25 Li    0.02555    0.03066    0.05686
 26 Li   -0.00799    0.00825    0.04507
 27 Li    0.02950   -0.03930   -0.11800
 28 Li   -0.01649   -0.07878   -0.10086
 29 Li   -0.09084    0.15064    0.14614
 30 Li    0.02250    0.04991   -0.12954
 31 Li    0.01263    0.07803   -0.12929
 32 Li   -0.00937   -0.15356    0.19097
 33 Li   -0.01207    0.01043   -0.02410
 34 Li    0.00190    0.00139   -0.01130
 35 Li    0.00770    0.01176   -0.02079
 36 O     3.90637    1.36996   10.64176
 37 C     0.23655    0.19508    0.17557
 38 C     1.08774    0.24806    2.06236
 39 C    -0.00192   -0.07666    0.15337
 40 H     0.03226   -0.05322   -0.05914
 41 H     0.07470   -0.06724    0.06127
 42 H     0.40709    0.33858    0.29634
 43 H     0.02946    0.13840    0.44550
 44 H    -0.00564    0.01768    0.01974
 45 H     0.04554   -0.04390   -0.01060
 46 H    -0.05365    0.01093    0.01190
 47 H     1.85638   -5.32361    4.77770
 48 N     2.28059    2.17600  -11.88701
 49 N    -9.75020    0.98882   -6.42842

System changes: positions 

Initializing position-dependent things.

Density initialized from wave functions
       .-----------------------.  
      /|                       |  
     / |                       |  
    /  |                       |  
   /   |                       |  
  /    |                       |  
 *     |                       |  
 |     |                       |  
 |     |                       |  
 |     |                       |  
 |     |                       |  
 |     |                       |  
 |     |                       |  
 |     LH      Li         H    |  
 | H   |C             O   C    |  
 |  C  |HH   Li      Li   H  Li|  
 | H   |           N  H        |  
 |     |  LLi     LLi N   LLi  |  
 |     |                       |  
 |     |Li      LLi     Li     |  
 |   Li|     Li      Li        |  
 |    Li  Li  Li  Li  Li  Li   |  
 | Li  |   Li      Li          |  
 |     |Li      Li      Li     |  
 Li    | Li      Li            |  
 |    Li      Li      Li       |  
 |     |                       |  
 |     |                       |  
 |     |                       |  
 |     |                       |  
 |     |                       |  
 |     |                       |  
 |     .-----------------------.  
 |    /                       /   
 |   /                       /    
 |  /                       /     
 | /                       /      
 |/                       /       
 *-----------------------*        

Positions:
   0 Li     1.617037    1.617037   10.000000    ( 0.0000,  0.0000,  0.0000)
   1 Li     4.851111    1.617037   10.000000    ( 0.0000,  0.0000,  0.0000)
   2 Li     8.085185    1.617037   10.000000    ( 0.0000,  0.0000,  0.0000)
   3 Li     1.617037    4.851111   10.000000    ( 0.0000,  0.0000,  0.0000)
   4 Li     4.851111    4.851111   10.000000    ( 0.0000,  0.0000,  0.0000)
   5 Li     8.085185    4.851111   10.000000    ( 0.0000,  0.0000,  0.0000)
   6 Li     1.617037    8.085185   10.000000    ( 0.0000,  0.0000,  0.0000)
   7 Li     4.851111    8.085185   10.000000    ( 0.0000,  0.0000,  0.0000)
   8 Li     8.085185    8.085185   10.000000    ( 0.0000,  0.0000,  0.0000)
   9 Li     0.000000    0.000000   11.617037    ( 0.0000,  0.0000,  0.0000)
  10 Li     3.234074    0.000000   11.617037    ( 0.0000,  0.0000,  0.0000)
  11 Li     6.468148    0.000000   11.617037    ( 0.0000,  0.0000,  0.0000)
  12 Li     0.000000    3.234074   11.617037    ( 0.0000,  0.0000,  0.0000)
  13 Li     3.234074    3.234074   11.617037    ( 0.0000,  0.0000,  0.0000)
  14 Li     6.468148    3.234074   11.617037    ( 0.0000,  0.0000,  0.0000)
  15 Li     0.000000    6.468148   11.617037    ( 0.0000,  0.0000,  0.0000)
  16 Li     3.234074    6.468148   11.617037    ( 0.0000,  0.0000,  0.0000)
  17 Li     6.468148    6.468148   11.617037    ( 0.0000,  0.0000,  0.0000)
  18 Li     1.617168    1.617041   13.469974    ( 0.0000,  0.0000,  0.0000)
  19 Li     4.850441    1.617076   13.468533    ( 0.0000,  0.0000,  0.0000)
  20 Li     8.085470    1.617069   13.467514    ( 0.0000,  0.0000,  0.0000)
  21 Li     1.616887    4.850955   13.470387    ( 0.0000,  0.0000,  0.0000)
  22 Li     4.851409    4.850769   13.470343    ( 0.0000,  0.0000,  0.0000)
  23 Li     8.085133    4.851072   13.469960    ( 0.0000,  0.0000,  0.0000)
  24 Li     1.616834    8.085394   13.470371    ( 0.0000,  0.0000,  0.0000)
  25 Li     4.851411    8.085535   13.470376    ( 0.0000,  0.0000,  0.0000)
  26 Li     8.085097    8.085236   13.470189    ( 0.0000,  0.0000,  0.0000)
  27 Li     0.000126   -0.000249   15.444962    ( 0.0000,  0.0000,  0.0000)
  28 Li     3.233895   -0.000928   15.444826    ( 0.0000,  0.0000,  0.0000)
  29 Li     6.467337    0.001939   15.448124    ( 0.0000,  0.0000,  0.0000)
  30 Li    -0.000038    3.234371   15.445000    ( 0.0000,  0.0000,  0.0000)
  31 Li     3.234239    3.234987   15.444528    ( 0.0000,  0.0000,  0.0000)
  32 Li     6.468370    3.232044   15.448686    ( 0.0000,  0.0000,  0.0000)
  33 Li    -0.000105    6.468279   15.445617    ( 0.0000,  0.0000,  0.0000)
  34 Li     3.234097    6.468160   15.445786    ( 0.0000,  0.0000,  0.0000)
  35 Li     6.468195    6.468293   15.445643    ( 0.0000,  0.0000,  0.0000)
  36 O      8.120309    1.621441   18.537419    ( 0.0000,  0.0000,  0.0000)
  37 C     10.522711    1.231719   18.447970    ( 0.0000,  0.0000,  0.0000)
  38 C      9.387955    2.242718   18.456975    ( 0.0000,  0.0000,  0.0000)
  39 C     11.899959    1.890698   18.453767    ( 0.0000,  0.0000,  0.0000)
  40 H     10.401258    0.585930   19.322444    ( 0.0000,  0.0000,  0.0000)
  41 H     10.426241    0.587009   17.560908    ( 0.0000,  0.0000,  0.0000)
  42 H      9.406973    2.864811   19.339718    ( 0.0000,  0.0000,  0.0000)
  43 H      9.471543    2.908126   17.573159    ( 0.0000,  0.0000,  0.0000)
  44 H     12.033259    2.518119   19.338070    ( 0.0000,  0.0000,  0.0000)
  45 H     12.697662    1.146623   18.452886    ( 0.0000,  0.0000,  0.0000)
  46 H     12.040712    2.527508   17.574071    ( 0.0000,  0.0000,  0.0000)
  47 H      8.056616    1.007874   17.718271    ( 0.0000,  0.0000,  0.0000)
  48 N      8.068377    1.624197   16.837840    ( 0.0000,  0.0000,  0.0000)
  49 N      6.928795    1.626785   16.883820    ( 0.0000,  0.0000,  0.0000)

Unit cell:
           periodic     x           y           z      points  spacing
  1. axis:    yes    9.702222    0.000000    0.000000    60     0.1617
  2. axis:    yes    0.000000    9.702222    0.000000    60     0.1617
  3. axis:    no     0.000000    0.000000   26.351111   164     0.1607

  Lengths:   9.702222   9.702222  26.351111
  Angles:   90.000000  90.000000  90.000000

Effective grid spacing dv^(1/3) = 0.1614

     iter     time        total  log10-change:
                         energy  eigst   dens
iter:   1 19:02:46  -327.820808  -0.85
iter:   2 19:02:53  -327.831057  -1.39  -2.13
iter:   3 19:03:01  -327.823916c -1.70  -2.04
iter:   4 19:03:08  -327.822316c -1.92  -2.27
Writing to output.gpw (mode='')

iter:   5 19:03:15  -327.816732c -1.78  -2.43
iter:   6 19:03:23  -327.814879c -2.46  -2.29
iter:   7 19:03:30  -327.815681c -2.18  -2.61
iter:   8 19:03:37  -327.814911c -2.50  -2.63
iter:   9 19:03:45  -327.815224c -2.77  -2.75
Writing to output.gpw (mode='')

iter:  10 19:03:52  -327.814747c -2.99  -2.87
iter:  11 19:04:00  -327.814859c -3.41  -3.04
iter:  12 19:04:07  -327.814862c -3.28  -3.17
iter:  13 19:04:14  -327.815017c -3.49  -3.23
iter:  14 19:04:27  -327.814977c -3.87  -3.35
Writing to output.gpw (mode='')

iter:  15 19:04:34  -327.814939c -3.73  -3.49
iter:  16 19:04:42  -327.814939c -3.98  -3.45
iter:  17 19:04:49  -327.815070c -3.79  -3.52
iter:  18 19:04:56  -327.815033c -4.17  -3.59
iter:  19 19:05:04  -327.815025c -4.07  -3.79
Writing to output.gpw (mode='')

iter:  20 19:05:11  -327.815035c -4.58  -3.89
iter:  21 19:05:19  -327.815051c -4.41  -3.87
iter:  22 19:05:26  -327.815055c -4.61  -3.81
iter:  23 19:05:33  -327.815071c -4.65  -3.80
iter:  24 19:05:41  -327.815074c -4.84  -3.77
Writing to output.gpw (mode='')

iter:  25 19:05:48  -327.815085c -4.87  -3.79
iter:  26 19:05:55  -327.815067c -4.92  -3.71
iter:  27 19:06:03  -327.815004c -4.87  -3.74
iter:  28 19:06:10  -327.815051c -5.08  -3.72
iter:  29 19:06:18  -327.815070c -5.33  -3.85
Writing to output.gpw (mode='')

iter:  30 19:06:25  -327.815080c -5.40  -3.84
iter:  31 19:06:32  -327.815092c -5.22  -3.86
iter:  32 19:06:40  -327.815055c -5.39  -3.94
iter:  33 19:06:47  -327.815070c -5.64  -3.99
iter:  34 19:06:54  -327.815055c -5.53  -4.06c
Writing to output.gpw (mode='')

iter:  35 19:07:02  -327.815071c -5.92  -4.16c
iter:  36 19:07:09  -327.815060c -6.02  -4.28c
iter:  37 19:07:17  -327.815077c -5.91  -4.42c
iter:  38 19:07:24  -327.815066c -6.24  -4.29c
iter:  39 19:07:31  -327.815061c -6.22  -4.73c
Writing to output.gpw (mode='')

iter:  40 19:07:39  -327.815064c -6.52  -4.81c
iter:  41 19:07:49  -327.815061c -6.51  -4.79c
iter:  42 19:07:57  -327.815061c -6.65  -4.99c
iter:  43 19:08:04  -327.815062c -6.92  -5.00c
iter:  44 19:08:11  -327.815063c -6.77  -5.12c
Writing to output.gpw (mode='')

iter:  45 19:08:19  -327.815063c -7.25  -5.25c
iter:  46 19:08:26  -327.815063c -7.22  -5.25c
iter:  47 19:08:34  -327.815063c -7.38  -5.24c
iter:  48 19:08:41  -327.815063c -7.30  -5.20c
iter:  49 19:08:48  -327.815063c -7.47c -5.15c

Converged after 49 iterations.

Dipole moment: (9.975825, -5.316338, 0.056031) |e|*Ang

Energy contributions relative to reference atoms: (reference = -15487.462483)

Kinetic:       +198.771819
Potential:     -181.592471
External:        +0.000000
XC:            -345.692396
Entropy (-ST):   -0.181892
Local:           +0.788931
--------------------------
Free energy:   -327.906009
Extrapolated:  -327.815063

Dipole-layer corrected work functions: 3.412339, 3.304628 eV

Showing only first 2 kpts
 Kpt  Band  Eigenvalues  Occupancy
  0    34     -3.60629    1.98602
  0    35     -3.42440    1.57784
  0    36     -3.30030    0.47604
  0    37     -3.11453    0.01509

  1    34     -3.43403    1.63842
  1    35     -3.32767    0.70126
  1    36     -3.29691    0.45185
  1    37     -3.22613    0.13234


Fermi level: -3.35848

No gap
Writing to output.gpw (mode='')


Forces in eV/Ang:
  0 Li    0.00937   -0.00003   -0.26435
  1 Li   -0.01207   -0.00166   -0.27872
  2 Li    0.00462   -0.00088   -0.28360
  3 Li   -0.00001    0.00560   -0.27620
  4 Li   -0.00099    0.01105   -0.27761
  5 Li   -0.00165    0.02013   -0.27740
  6 Li   -0.00000   -0.00577   -0.27573
  7 Li   -0.00019   -0.01233   -0.28084
  8 Li   -0.00277   -0.01915   -0.27863
  9 Li    0.00186    0.00324    0.29272
 10 Li   -0.00683    0.00130    0.24524
 11 Li    0.00335    0.01214    0.32324
 12 Li    0.00372   -0.00409    0.29555
 13 Li   -0.01128   -0.00277    0.24673
 14 Li    0.00129   -0.01031    0.31725
 15 Li   -0.00847   -0.00306    0.23701
 16 Li    0.00733    0.00362    0.26446
 17 Li    0.00398   -0.00062    0.23271
 18 Li    0.00828    0.00036    0.02373
 19 Li   -0.05686    0.00276   -0.09679
 20 Li    0.02832    0.00275   -0.19138
 21 Li   -0.01168   -0.01162    0.05582
 22 Li    0.02639   -0.03005    0.05492
 23 Li   -0.00511   -0.00725    0.02486
 24 Li   -0.01639    0.01671    0.05377
 25 Li    0.02599    0.03142    0.05765
 26 Li   -0.00814    0.00834    0.04415
 27 Li    0.01897   -0.02952   -0.10030
 28 Li   -0.01241   -0.07747   -0.09818
 29 Li   -0.08107    0.11585    0.13699
 30 Li    0.01142    0.04050   -0.10641
 31 Li    0.01472    0.07597   -0.12527
 32 Li    0.00318   -0.12583    0.18028
 33 Li   -0.01151    0.01138   -0.02459
 34 Li    0.00214    0.00111   -0.01214
 35 Li    0.00561    0.01223   -0.02325
 36 O     3.13723    0.83013    8.96030
 37 C     0.24890    0.16656    0.16868
 38 C     0.84237    0.15447    1.72002
 39 C     0.03704   -0.05842    0.13644
 40 H     0.04621   -0.05865   -0.04754
 41 H     0.06282   -0.03020    0.08543
 42 H     0.44258    0.38261    0.32595
 43 H    -0.00893    0.08317    0.45117
 44 H     0.00192    0.01569    0.01984
 45 H     0.06055   -0.04484   -0.00813
 46 H    -0.05044    0.00579    0.02069
 47 H     1.76788   -3.94697    4.38073
 48 N     1.18852    1.44643  -10.64329
 49 N    -7.75644    0.99363   -5.32379

System changes: positions 

Initializing position-dependent things.

Density initialized from wave functions
       .-----------------------.  
      /|                       |  
     / |                       |  
    /  |                       |  
   /   |                       |  
  /    |                       |  
 *     |                       |  
 |     |                       |  
 |     |                       |  
 |     |                       |  
 |     |                       |  
 |     |                       |  
 |     |                       |  
 |     LH      Li         H    |  
 | H   |C             O   C    |  
 |  C  |HH   Li      Li   H  Li|  
 | H   |              H        |  
 |     |  LLi     LNi N   LLi  |  
 |     |                       |  
 |     |Li      LLi     Li     |  
 |   Li|     Li      Li        |  
 |    Li  Li  Li  Li  Li  Li   |  
 | Li  |   Li      Li          |  
 |     |Li      Li      Li     |  
 Li    | Li      Li            |  
 |    Li      Li      Li       |  
 |     |                       |  
 |     |                       |  
 |     |                       |  
 |     |                       |  
 |     |                       |  
 |     |                       |  
 |     .-----------------------.  
 |    /                       /   
 |   /                       /    
 |  /                       /     
 | /                       /      
 |/                       /       
 *-----------------------*        

Positions:
   0 Li     1.617037    1.617037   10.000000    ( 0.0000,  0.0000,  0.0000)
   1 Li     4.851111    1.617037   10.000000    ( 0.0000,  0.0000,  0.0000)
   2 Li     8.085185    1.617037   10.000000    ( 0.0000,  0.0000,  0.0000)
   3 Li     1.617037    4.851111   10.000000    ( 0.0000,  0.0000,  0.0000)
   4 Li     4.851111    4.851111   10.000000    ( 0.0000,  0.0000,  0.0000)
   5 Li     8.085185    4.851111   10.000000    ( 0.0000,  0.0000,  0.0000)
   6 Li     1.617037    8.085185   10.000000    ( 0.0000,  0.0000,  0.0000)
   7 Li     4.851111    8.085185   10.000000    ( 0.0000,  0.0000,  0.0000)
   8 Li     8.085185    8.085185   10.000000    ( 0.0000,  0.0000,  0.0000)
   9 Li     0.000000    0.000000   11.617037    ( 0.0000,  0.0000,  0.0000)
  10 Li     3.234074    0.000000   11.617037    ( 0.0000,  0.0000,  0.0000)
  11 Li     6.468148    0.000000   11.617037    ( 0.0000,  0.0000,  0.0000)
  12 Li     0.000000    3.234074   11.617037    ( 0.0000,  0.0000,  0.0000)
  13 Li     3.234074    3.234074   11.617037    ( 0.0000,  0.0000,  0.0000)
  14 Li     6.468148    3.234074   11.617037    ( 0.0000,  0.0000,  0.0000)
  15 Li     0.000000    6.468148   11.617037    ( 0.0000,  0.0000,  0.0000)
  16 Li     3.234074    6.468148   11.617037    ( 0.0000,  0.0000,  0.0000)
  17 Li     6.468148    6.468148   11.617037    ( 0.0000,  0.0000,  0.0000)
  18 Li     1.617221    1.617042   13.470036    ( 0.0000,  0.0000,  0.0000)
  19 Li     4.850103    1.617089   13.467972    ( 0.0000,  0.0000,  0.0000)
  20 Li     8.085653    1.617102   13.466430    ( 0.0000,  0.0000,  0.0000)
  21 Li     1.616828    4.850900   13.470705    ( 0.0000,  0.0000,  0.0000)
  22 Li     4.851589    4.850590   13.470680    ( 0.0000,  0.0000,  0.0000)
  23 Li     8.085098    4.851034   13.470081    ( 0.0000,  0.0000,  0.0000)
  24 Li     1.616741    8.085491   13.470686    ( 0.0000,  0.0000,  0.0000)
  25 Li     4.851574    8.085735   13.470731    ( 0.0000,  0.0000,  0.0000)
  26 Li     8.085047    8.085284   13.470441    ( 0.0000,  0.0000,  0.0000)
  27 Li     0.000127   -0.000309   15.444613    ( 0.0000,  0.0000,  0.0000)
  28 Li     3.233867   -0.001378   15.444281    ( 0.0000,  0.0000,  0.0000)
  29 Li     6.466958    0.002247   15.448903    ( 0.0000,  0.0000,  0.0000)
  30 Li    -0.000146    3.234446   15.444799    ( 0.0000,  0.0000,  0.0000)
  31 Li     3.234364    3.235418   15.443848    ( 0.0000,  0.0000,  0.0000)
  32 Li     6.468584    3.231608   15.449730    ( 0.0000,  0.0000,  0.0000)
  33 Li    -0.000164    6.468367   15.445453    ( 0.0000,  0.0000,  0.0000)
  34 Li     3.234114    6.468164   15.445698    ( 0.0000,  0.0000,  0.0000)
  35 Li     6.468198    6.468382   15.445465    ( 0.0000,  0.0000,  0.0000)
  36 O      8.127079    1.613174   18.557814    ( 0.0000,  0.0000,  0.0000)
  37 C     10.524691    1.232526   18.449163    ( 0.0000,  0.0000,  0.0000)
  38 C      9.389297    2.242371   18.462373    ( 0.0000,  0.0000,  0.0000)
  39 C     11.900668    1.890359   18.454280    ( 0.0000,  0.0000,  0.0000)
  40 H     10.401679    0.585522   19.322237    ( 0.0000,  0.0000,  0.0000)
  41 H     10.426397    0.587208   17.561611    ( 0.0000,  0.0000,  0.0000)
  42 H      9.410790    2.868518   19.342900    ( 0.0000,  0.0000,  0.0000)
  43 H      9.471406    2.908034   17.576113    ( 0.0000,  0.0000,  0.0000)
  44 H     12.033327    2.518199   19.338200    ( 0.0000,  0.0000,  0.0000)
  45 H     12.698180    1.146393   18.452871    ( 0.0000,  0.0000,  0.0000)
  46 H     12.040439    2.527496   17.574312    ( 0.0000,  0.0000,  0.0000)
  47 H      8.067163    1.015018   17.736967    ( 0.0000,  0.0000,  0.0000)
  48 N      8.054121    1.616599   16.801247    ( 0.0000,  0.0000,  0.0000)
  49 N      6.916712    1.631906   16.868275    ( 0.0000,  0.0000,  0.0000)

Unit cell:
           periodic     x           y           z      points  spacing
  1. axis:    yes    9.702222    0.000000    0.000000    60     0.1617
  2. axis:    yes    0.000000    9.702222    0.000000    60     0.1617
  3. axis:    no     0.000000    0.000000   26.351111   164     0.1607

  Lengths:   9.702222   9.702222  26.351111
  Angles:   90.000000  90.000000  90.000000

Effective grid spacing dv^(1/3) = 0.1614

     iter     time        total  log10-change:
                         energy  eigst   dens
iter:   1 19:08:57  -328.652150  -0.95
iter:   2 19:09:05  -328.674563  -1.16  -1.86
iter:   3 19:09:12  -328.619363  -1.87  -1.69
iter:   4 19:09:26  -328.618757  -2.13  -2.28
Writing to output.gpw (mode='')

iter:   5 19:09:33  -328.614081c -2.21  -2.31
iter:   6 19:09:40  -328.615254c -2.07  -2.35
iter:   7 19:09:47  -328.609925c -2.67  -2.36
iter:   8 19:09:55  -328.609301c -2.30  -2.72
iter:   9 19:10:02  -328.609479c -2.83  -2.77
Writing to output.gpw (mode='')

iter:  10 19:10:10  -328.609716c -2.99  -2.95
iter:  11 19:10:17  -328.609321c -3.43  -3.02
iter:  12 19:10:24  -328.609603c -3.71  -3.06
iter:  13 19:10:31  -328.609614c -3.66  -3.17
iter:  14 19:10:39  -328.609625c -3.54  -3.36
Writing to output.gpw (mode='')

iter:  15 19:10:46  -328.609621c -4.10  -3.26
iter:  16 19:10:53  -328.609612c -3.99  -3.37
iter:  17 19:11:01  -328.609593c -4.23  -3.63
iter:  18 19:11:08  -328.609624c -4.40  -3.81
iter:  19 19:11:15  -328.609630c -4.32  -3.82
Writing to output.gpw (mode='')

iter:  20 19:11:23  -328.609632c -4.49  -3.85
iter:  21 19:11:30  -328.609637c -4.66  -3.85
iter:  22 19:11:37  -328.609650c -4.65  -3.79
iter:  23 19:11:45  -328.609649c -4.76  -3.79
iter:  24 19:11:52  -328.609633c -4.83  -3.80
Writing to output.gpw (mode='')

iter:  25 19:11:59  -328.609640c -4.84  -3.81
iter:  26 19:12:06  -328.609637c -4.96  -3.82
iter:  27 19:12:14  -328.609616c -5.29  -3.83
iter:  28 19:12:21  -328.609664c -5.13  -3.77
iter:  29 19:12:28  -328.609648c -5.08  -3.84
Writing to output.gpw (mode='')

iter:  30 19:12:36  -328.609644c -5.40  -3.76
iter:  31 19:12:43  -328.609675c -5.41  -3.72
iter:  32 19:12:50  -328.609674c -5.35  -3.76
iter:  33 19:12:58  -328.609691c -5.80  -3.80
iter:  34 19:13:05  -328.609727c -5.14  -3.72
Writing to output.gpw (mode='')

iter:  35 19:13:12  -328.609743c -5.22  -3.64
iter:  36 19:13:20  -328.609687c -5.62  -3.65
iter:  37 19:13:27  -328.609670c -5.81  -3.93
iter:  38 19:13:34  -328.609677c -5.80  -4.01c
iter:  39 19:13:41  -328.609672c -6.52  -3.98
Writing to output.gpw (mode='')

iter:  40 19:13:49  -328.609666c -5.46  -4.08c
iter:  41 19:13:56  -328.609663c -6.15  -4.18c
iter:  42 19:14:03  -328.609670c -6.27  -4.44c
iter:  43 19:14:11  -328.609676c -6.49  -4.45c
iter:  44 19:14:23  -328.609670c -6.84  -4.48c
Writing to output.gpw (mode='')

iter:  45 19:14:31  -328.609667c -6.92  -4.69c
iter:  46 19:14:38  -328.609668c -6.86  -4.86c
iter:  47 19:14:45  -328.609669c -7.11  -4.89c
iter:  48 19:14:53  -328.609665c -7.01  -4.91c
iter:  49 19:15:00  -328.609669c -7.46c -4.88c

Converged after 49 iterations.

Dipole moment: (9.983060, -5.280733, 0.033792) |e|*Ang

Energy contributions relative to reference atoms: (reference = -15487.462483)

Kinetic:       +195.883889
Potential:     -179.921769
External:        +0.000000
XC:            -345.272153
Entropy (-ST):   -0.180981
Local:           +0.790854
--------------------------
Free energy:   -328.700159
Extrapolated:  -328.609669

Dipole-layer corrected work functions: 3.413491, 3.348530 eV

Showing only first 2 kpts
 Kpt  Band  Eigenvalues  Occupancy
  0    34     -3.62904    1.98608
  0    35     -3.44538    1.56741
  0    36     -3.31774    0.44009
  0    37     -3.13547    0.01463

  1    34     -3.46129    1.66558
  1    35     -3.34845    0.68545
  1    36     -3.32365    0.48200
  1    37     -3.24246    0.11783


Fermi level: -3.38101

No gap
Writing to output.gpw (mode='')


Forces in eV/Ang:
  0 Li    0.01052   -0.00013   -0.26442
  1 Li   -0.01249   -0.00203   -0.27881
  2 Li    0.00484   -0.00077   -0.28286
  3 Li   -0.00047    0.00577   -0.27702
  4 Li   -0.00153    0.01093   -0.27760
  5 Li   -0.00210    0.02095   -0.27735
  6 Li   -0.00030   -0.00624   -0.27617
  7 Li   -0.00058   -0.01258   -0.28075
  8 Li   -0.00322   -0.01989   -0.27886
  9 Li    0.00171    0.00320    0.29219
 10 Li   -0.00891    0.00089    0.24430
 11 Li    0.00372    0.01319    0.32459
 12 Li    0.00394   -0.00356    0.29401
 13 Li   -0.01321   -0.00259    0.24674
 14 Li    0.00112   -0.01159    0.31787
 15 Li   -0.00876   -0.00410    0.23803
 16 Li    0.00943    0.00469    0.26246
 17 Li    0.00451   -0.00036    0.23215
 18 Li    0.00721    0.00044    0.02005
 19 Li   -0.05596    0.00211   -0.09122
 20 Li    0.02967    0.00357   -0.18179
 21 Li   -0.01019   -0.00991    0.05465
 22 Li    0.02791   -0.02964    0.05577
 23 Li   -0.00558   -0.00861    0.02538
 24 Li   -0.01527    0.01599    0.05256
 25 Li    0.02625    0.03212    0.05851
 26 Li   -0.00828    0.00941    0.04483
 27 Li    0.01106   -0.02286   -0.09141
 28 Li   -0.00776   -0.07505   -0.09678
 29 Li   -0.07498    0.07731    0.11587
 30 Li    0.00670    0.03707   -0.09742
 31 Li    0.01737    0.07287   -0.12298
 32 Li    0.00933   -0.09385    0.15649
 33 Li   -0.01193    0.01235   -0.02399
 34 Li    0.00222    0.00082   -0.01267
 35 Li    0.00450    0.01254   -0.02458
 36 O     2.69965    0.52328    7.79793
 37 C     0.23525    0.14721    0.16193
 38 C     0.63857    0.09755    1.53269
 39 C     0.05899   -0.04682    0.12417
 40 H     0.05786   -0.06099   -0.03889
 41 H     0.05743   -0.01054    0.09519
 42 H     0.45059    0.37702    0.29321
 43 H    -0.05616    0.04379    0.42365
 44 H     0.00988    0.01624    0.02309
 45 H     0.07191   -0.04470   -0.00637
 46 H    -0.04521    0.00451    0.02391
 47 H     1.66811   -3.04076    4.10108
 48 N     1.05752    0.99783   -9.80709
 49 N    -6.86383    0.95831   -4.53050

System changes: positions 

Initializing position-dependent things.

Density initialized from wave functions
       .-----------------------.  
      /|                       |  
     / |                       |  
    /  |                       |  
   /   |                       |  
  /    |                       |  
 *     |                       |  
 |     |                       |  
 |     |                       |  
 |     |                       |  
 |     |                       |  
 |     |                       |  
 |     |                       |  
 |     LH      Li         H    |  
 | H   |C             O   C    |  
 |  C  |HH   Li      Li   H  Li|  
 | H   |              H        |  
 |     |  LLi     LNi N   LLi  |  
 |     |                       |  
 |     |Li      LLi     Li     |  
 |   Li|     Li      Li        |  
 |    Li  Li  Li  Li  Li  Li   |  
 | Li  |   Li      Li          |  
 |     |Li      Li      Li     |  
 Li    | Li      Li            |  
 |    Li      Li      Li       |  
 |     |                       |  
 |     |                       |  
 |     |                       |  
 |     |                       |  
 |     |                       |  
 |     |                       |  
 |     .-----------------------.  
 |    /                       /   
 |   /                       /    
 |  /                       /     
 | /                       /      
 |/                       /       
 *-----------------------*        

Positions:
   0 Li     1.617037    1.617037   10.000000    ( 0.0000,  0.0000,  0.0000)
   1 Li     4.851111    1.617037   10.000000    ( 0.0000,  0.0000,  0.0000)
   2 Li     8.085185    1.617037   10.000000    ( 0.0000,  0.0000,  0.0000)
   3 Li     1.617037    4.851111   10.000000    ( 0.0000,  0.0000,  0.0000)
   4 Li     4.851111    4.851111   10.000000    ( 0.0000,  0.0000,  0.0000)
   5 Li     8.085185    4.851111   10.000000    ( 0.0000,  0.0000,  0.0000)
   6 Li     1.617037    8.085185   10.000000    ( 0.0000,  0.0000,  0.0000)
   7 Li     4.851111    8.085185   10.000000    ( 0.0000,  0.0000,  0.0000)
   8 Li     8.085185    8.085185   10.000000    ( 0.0000,  0.0000,  0.0000)
   9 Li     0.000000    0.000000   11.617037    ( 0.0000,  0.0000,  0.0000)
  10 Li     3.234074    0.000000   11.617037    ( 0.0000,  0.0000,  0.0000)
  11 Li     6.468148    0.000000   11.617037    ( 0.0000,  0.0000,  0.0000)
  12 Li     0.000000    3.234074   11.617037    ( 0.0000,  0.0000,  0.0000)
  13 Li     3.234074    3.234074   11.617037    ( 0.0000,  0.0000,  0.0000)
  14 Li     6.468148    3.234074   11.617037    ( 0.0000,  0.0000,  0.0000)
  15 Li     0.000000    6.468148   11.617037    ( 0.0000,  0.0000,  0.0000)
  16 Li     3.234074    6.468148   11.617037    ( 0.0000,  0.0000,  0.0000)
  17 Li     6.468148    6.468148   11.617037    ( 0.0000,  0.0000,  0.0000)
  18 Li     1.617265    1.617044   13.470080    ( 0.0000,  0.0000,  0.0000)
  19 Li     4.849745    1.617096   13.467425    ( 0.0000,  0.0000,  0.0000)
  20 Li     8.085864    1.617144   13.465360    ( 0.0000,  0.0000,  0.0000)
  21 Li     1.616780    4.850857   13.471041    ( 0.0000,  0.0000,  0.0000)
  22 Li     4.851797    4.850400   13.471055    ( 0.0000,  0.0000,  0.0000)
  23 Li     8.085055    4.850975   13.470225    ( 0.0000,  0.0000,  0.0000)
  24 Li     1.616652    8.085590   13.471017    ( 0.0000,  0.0000,  0.0000)
  25 Li     4.851752    8.085958   13.471125    ( 0.0000,  0.0000,  0.0000)
  26 Li     8.084992    8.085348   13.470726    ( 0.0000,  0.0000,  0.0000)
  27 Li     0.000051   -0.000317   15.444283    ( 0.0000,  0.0000,  0.0000)
  28 Li     3.233882   -0.001843   15.443694    ( 0.0000,  0.0000,  0.0000)
  29 Li     6.466602    0.002223   15.449515    ( 0.0000,  0.0000,  0.0000)
  30 Li    -0.000279    3.234528   15.444573    ( 0.0000,  0.0000,  0.0000)
  31 Li     3.234523    3.235855   15.443117    ( 0.0000,  0.0000,  0.0000)
  32 Li     6.468847    3.231428   15.450596    ( 0.0000,  0.0000,  0.0000)
  33 Li    -0.000236    6.468469   15.445286    ( 0.0000,  0.0000,  0.0000)
  34 Li     3.234133    6.468165   15.445600    ( 0.0000,  0.0000,  0.0000)
  35 Li     6.468196    6.468479   15.445264    ( 0.0000,  0.0000,  0.0000)
  36 O      8.132403    1.604294   18.574937    ( 0.0000,  0.0000,  0.0000)
  37 C     10.526520    1.233216   18.450309    ( 0.0000,  0.0000,  0.0000)
  38 C      9.389292    2.241694   18.467399    ( 0.0000,  0.0000,  0.0000)
  39 C     11.901570    1.890130   18.454777    ( 0.0000,  0.0000,  0.0000)
  40 H     10.402244    0.585066   19.322101    ( 0.0000,  0.0000,  0.0000)
  41 H     10.426567    0.587559   17.562445    ( 0.0000,  0.0000,  0.0000)
  42 H      9.414693    2.872029   19.345550    ( 0.0000,  0.0000,  0.0000)
  43 H      9.470679    2.907609   17.578906    ( 0.0000,  0.0000,  0.0000)
  44 H     12.033488    2.518298   19.338379    ( 0.0000,  0.0000,  0.0000)
  45 H     12.698845    1.146134   18.452868    ( 0.0000,  0.0000,  0.0000)
  46 H     12.040201    2.527484   17.574577    ( 0.0000,  0.0000,  0.0000)
  47 H      8.077256    1.025263   17.755702    ( 0.0000,  0.0000,  0.0000)
  48 N      8.042109    1.607296   16.764244    ( 0.0000,  0.0000,  0.0000)
  49 N      6.906015    1.637239   16.856665    ( 0.0000,  0.0000,  0.0000)

Unit cell:
           periodic     x           y           z      points  spacing
  1. axis:    yes    9.702222    0.000000    0.000000    60     0.1617
  2. axis:    yes    0.000000    9.702222    0.000000    60     0.1617
  3. axis:    no     0.000000    0.000000   26.351111   164     0.1607

  Lengths:   9.702222   9.702222  26.351111
  Angles:   90.000000  90.000000  90.000000

Effective grid spacing dv^(1/3) = 0.1614

     iter     time        total  log10-change:
                         energy  eigst   dens
iter:   1 19:15:09  -329.296411  -1.02
iter:   2 19:15:16  -329.310235  -1.33  -1.96
iter:   3 19:15:24  -329.278077c -2.02  -1.80
iter:   4 19:15:31  -329.275267c -2.14  -2.40
Writing to output.gpw (mode='')

iter:   5 19:15:38  -329.275575c -2.10  -2.48
iter:   6 19:15:46  -329.273670c -2.39  -2.24
iter:   7 19:15:53  -329.272642c -2.68  -2.66
iter:   8 19:16:00  -329.272432c -2.85  -2.95
iter:   9 19:16:08  -329.272565c -3.33  -3.02
Writing to output.gpw (mode='')

iter:  10 19:16:15  -329.272927c -3.26  -3.08
iter:  11 19:16:23  -329.272503c -3.56  -3.08
iter:  12 19:16:31  -329.272684c -3.86  -3.22
iter:  13 19:16:46  -329.272591c -3.84  -3.31
iter:  14 19:16:55  -329.272649c -3.88  -3.55
Writing to output.gpw (mode='')

iter:  15 19:17:02  -329.272679c -4.40  -3.58
iter:  16 19:17:09  -329.272674c -4.47  -3.69
iter:  17 19:17:17  -329.272740c -4.37  -3.87
iter:  18 19:17:24  -329.272698c -4.55  -3.71
iter:  19 19:17:31  -329.272706c -4.49  -3.92
Writing to output.gpw (mode='')

iter:  20 19:17:39  -329.272713c -4.86  -3.74
iter:  21 19:17:46  -329.272714c -4.98  -3.89
iter:  22 19:17:53  -329.272752c -4.86  -3.86
iter:  23 19:18:01  -329.272756c -5.29  -3.83
iter:  24 19:18:08  -329.272739c -5.57  -3.76
Writing to output.gpw (mode='')

iter:  25 19:18:15  -329.272732c -5.41  -3.89
iter:  26 19:18:23  -329.272728c -5.42  -3.94
iter:  27 19:18:30  -329.272723c -5.40  -4.20c
iter:  28 19:18:37  -329.272708c -5.32  -4.30c
iter:  29 19:18:45  -329.272719c -5.93  -4.35c
Writing to output.gpw (mode='')

iter:  30 19:18:52  -329.272717c -6.12  -4.43c
iter:  31 19:18:59  -329.272718c -6.05  -4.48c
iter:  32 19:19:07  -329.272717c -6.16  -4.56c
iter:  33 19:19:14  -329.272717c -6.10  -4.61c
iter:  34 19:19:27  -329.272720c -6.34  -4.73c
Writing to output.gpw (mode='')

iter:  35 19:19:34  -329.272716c -6.50  -4.89c
iter:  36 19:19:42  -329.272718c -6.46  -4.96c
iter:  37 19:19:49  -329.272718c -7.00  -5.12c
iter:  38 19:19:56  -329.272719c -6.82  -5.17c
iter:  39 19:20:04  -329.272718c -7.03  -5.37c
Writing to output.gpw (mode='')

iter:  40 19:20:11  -329.272718c -7.06  -5.55c
iter:  41 19:20:18  -329.272718c -7.16  -5.56c
iter:  42 19:20:26  -329.272719c -7.08  -5.60c
iter:  43 19:20:33  -329.272719c -7.63c -5.59c

Converged after 43 iterations.

Dipole moment: (9.977069, -5.233955, 0.013464) |e|*Ang

Energy contributions relative to reference atoms: (reference = -15487.462483)

Kinetic:       +193.389817
Potential:     -178.437651
External:        +0.000000
XC:            -344.928605
Entropy (-ST):   -0.180018
Local:           +0.793729
--------------------------
Free energy:   -329.362728
Extrapolated:  -329.272719

Dipole-layer corrected work functions: 3.414788, 3.388906 eV

Showing only first 2 kpts
 Kpt  Band  Eigenvalues  Occupancy
  0    34     -3.64985    1.98607
  0    35     -3.46420    1.55358
  0    36     -3.33281    0.40178
  0    37     -3.15502    0.01426

  1    34     -3.48609    1.68711
  1    35     -3.36768    0.67106
  1    36     -3.34879    0.51417
  1    37     -3.25767    0.10594


Fermi level: -3.40185

No gap
Writing to output.gpw (mode='')


Forces in eV/Ang:
  0 Li    0.01164   -0.00033   -0.26447
  1 Li   -0.01275   -0.00254   -0.27891
  2 Li    0.00486   -0.00070   -0.28201
  3 Li   -0.00105    0.00601   -0.27804
  4 Li   -0.00220    0.01074   -0.27775
  5 Li   -0.00246    0.02169   -0.27742
  6 Li   -0.00061   -0.00681   -0.27681
  7 Li   -0.00116   -0.01268   -0.28074
  8 Li   -0.00361   -0.02044   -0.27925
  9 Li    0.00137    0.00319    0.29161
 10 Li   -0.01091    0.00054    0.24331
 11 Li    0.00403    0.01403    0.32542
 12 Li    0.00403   -0.00298    0.29222
 13 Li   -0.01498   -0.00236    0.24688
 14 Li    0.00093   -0.01280    0.31830
 15 Li   -0.00897   -0.00528    0.23912
 16 Li    0.01157    0.00577    0.26046
 17 Li    0.00518   -0.00015    0.23168
 18 Li    0.00662    0.00059    0.01609
 19 Li   -0.05511    0.00135   -0.08491
 20 Li    0.03031    0.00399   -0.16843
 21 Li   -0.00866   -0.00844    0.05372
 22 Li    0.02930   -0.02870    0.05611
 23 Li   -0.00591   -0.00958    0.02557
 24 Li   -0.01407    0.01555    0.05154
 25 Li    0.02646    0.03236    0.05885
 26 Li   -0.00820    0.00986    0.04496
 27 Li   -0.00152   -0.01264   -0.08099
 28 Li   -0.00287   -0.07232   -0.09522
 29 Li   -0.06482    0.05017    0.10091
 30 Li    0.00095    0.03270   -0.09068
 31 Li    0.02023    0.06930   -0.12053
 32 Li    0.01599   -0.07182    0.13827
 33 Li   -0.01214    0.01318   -0.02335
 34 Li    0.00202    0.00067   -0.01311
 35 Li    0.00341    0.01260   -0.02576
 36 O     2.40779    0.36922    6.94050
 37 C     0.21130    0.13513    0.15573
 38 C     0.50062    0.06042    1.38760
 39 C     0.06874   -0.03794    0.11485
 40 H     0.06893   -0.06283   -0.03124
 41 H     0.05353    0.00271    0.09976
 42 H     0.44624    0.36435    0.26621
 43 H    -0.10590    0.00688    0.39952
 44 H     0.01819    0.01721    0.02633
 45 H     0.08069   -0.04336   -0.00468
 46 H    -0.03919    0.00490    0.02513
 47 H     1.49122   -2.46012    3.72915
 48 N     0.88290    0.66391   -9.03142
 49 N    -6.06472    0.94844   -3.84228

System changes: positions 

Initializing position-dependent things.

Density initialized from wave functions
       .-----------------------.  
      /|                       |  
     / |                       |  
    /  |                       |  
   /   |                       |  
  /    |                       |  
 *     |                       |  
 |     |                       |  
 |     |                       |  
 |     |                       |  
 |     |                       |  
 |     |                       |  
 |     |                       |  
 |     |H      Li         H    Li 
 | H   |C             O   C    |  
 |  C  |HH   Li      Li   H  Li|  
 | H   |              H        |  
 |     |  LLi     LNi N   LLi  |  
 |     |                       |  
 |     |Li      LLi     Li     |  
 |   Li|     Li      Li        |  
 |    Li  Li  Li  Li  Li  Li   |  
 | Li  |   Li      Li          |  
 |     |Li      Li      Li     |  
 Li    | Li      Li            |  
 |    Li      Li      Li       |  
 |     |                       |  
 |     |                       |  
 |     |                       |  
 |     |                       |  
 |     |                       |  
 |     |                       |  
 |     .-----------------------.  
 |    /                       /   
 |   /                       /    
 |  /                       /     
 | /                       /      
 |/                       /       
 *-----------------------*        

Positions:
   0 Li     1.617037    1.617037   10.000000    ( 0.0000,  0.0000,  0.0000)
   1 Li     4.851111    1.617037   10.000000    ( 0.0000,  0.0000,  0.0000)
   2 Li     8.085185    1.617037   10.000000    ( 0.0000,  0.0000,  0.0000)
   3 Li     1.617037    4.851111   10.000000    ( 0.0000,  0.0000,  0.0000)
   4 Li     4.851111    4.851111   10.000000    ( 0.0000,  0.0000,  0.0000)
   5 Li     8.085185    4.851111   10.000000    ( 0.0000,  0.0000,  0.0000)
   6 Li     1.617037    8.085185   10.000000    ( 0.0000,  0.0000,  0.0000)
   7 Li     4.851111    8.085185   10.000000    ( 0.0000,  0.0000,  0.0000)
   8 Li     8.085185    8.085185   10.000000    ( 0.0000,  0.0000,  0.0000)
   9 Li     0.000000    0.000000   11.617037    ( 0.0000,  0.0000,  0.0000)
  10 Li     3.234074    0.000000   11.617037    ( 0.0000,  0.0000,  0.0000)
  11 Li     6.468148    0.000000   11.617037    ( 0.0000,  0.0000,  0.0000)
[...]
--------------------------
Free energy:   -335.501083
Extrapolated:  -335.420768

Dipole-layer corrected work functions: 3.413672, 3.593743 eV

Showing only first 2 kpts
 Kpt  Band  Eigenvalues  Occupancy
  0    34     -3.71784    1.97276
  0    35     -3.52452    1.20513
  0    36     -3.48960    0.85981
  0    37     -3.39512    0.20464

  1    34     -3.82303    1.99664
  1    35     -3.44732    0.48914
  1    36     -3.39502    0.20428
  1    37     -3.37076    0.13089


Fermi level: -3.50371

No gap
Writing to output.gpw (mode='')


Forces in eV/Ang:
  0 Li   -0.00680   -0.01092   -0.29282
  1 Li    0.01190    0.01255   -0.29217
  2 Li   -0.00080    0.00115   -0.25139
  3 Li    0.01776    0.01952   -0.28683
  4 Li   -0.00623    0.01102   -0.28892
  5 Li   -0.01019   -0.00537   -0.29157
  6 Li    0.01161   -0.00978   -0.28887
  7 Li   -0.01523   -0.01727   -0.28921
  8 Li    0.01162    0.00807   -0.29466
  9 Li   -0.04080    0.00916    0.31520
 10 Li    0.01787    0.00117    0.27862
 11 Li    0.02155    0.01652    0.25639
 12 Li   -0.04503   -0.02558    0.26716
 13 Li   -0.01329   -0.00325    0.27475
 14 Li    0.02217   -0.02348    0.29617
 15 Li   -0.02109   -0.01907    0.25612
 16 Li   -0.00789   -0.01033    0.24639
 17 Li    0.00356   -0.00028    0.24573
 18 Li   -0.01806    0.00475    0.00877
 19 Li    0.00275   -0.00333    0.00193
 20 Li   -0.01329   -0.00559    0.00479
 21 Li   -0.00567   -0.00449    0.00008
 22 Li    0.00113   -0.00074   -0.00058
 23 Li    0.00968   -0.00989    0.00721
 24 Li    0.00152   -0.00199   -0.00184
 25 Li    0.01408    0.01918    0.00716
 26 Li   -0.00757    0.01024   -0.00265
 27 Li   -0.00865    0.01742   -0.01201
 28 Li   -0.00804    0.00121   -0.00030
 29 Li   -0.00086    0.01245    0.01731
 30 Li    0.01886    0.03171    0.01275
 31 Li    0.00738   -0.00309   -0.00035
 32 Li   -0.01152    0.01678   -0.00230
 33 Li   -0.00354    0.00358    0.00052
 34 Li   -0.00044   -0.00038    0.00714
 35 Li   -0.00070    0.00015   -0.00796
 36 O    -0.01388   -0.01011    0.02665
 37 C     0.01767   -0.01567    0.01535
 38 C     0.02371   -0.00886    0.01655
 39 C    -0.00819   -0.00550    0.00572
 40 H     0.00342   -0.01410    0.02373
 41 H    -0.00522    0.00509   -0.00286
 42 H     0.00599    0.00524    0.01068
 43 H    -0.00385    0.01905   -0.00875
 44 H    -0.00684    0.01159    0.01080
 45 H     0.00164    0.02506    0.01321
 46 H     0.02564   -0.01579    0.04865
 47 H    -0.02807   -0.00048   -0.00069
 48 N     0.00585   -0.01783    0.00803
 49 N     0.03799   -0.07114   -0.01517

System changes: positions 

Initializing position-dependent things.

Density initialized from wave functions
       .-----------------------.  
      /|                       |  
     / |                       |  
    /  |                       |  
   /   |                       |  
  /    |                       |  
 *     |                       |  
 |     |                       |  
 |     |                       |  
 |     |                       |  
 |     |                       |  
 |     |                       |  
 |     |                  H    |  
 |     LiH     Li              |  
 |  H  |C             O   CH   |  
 |   Li|HH   Li      LH        |  
 | H   |                       |  
 |     |  LLi     LLi     Li   |  
 |     |             N N       |  
 |     |Li      LiLi    Li     |  
 |   Li|     Li      Li        |  
 |    Li  Li  Li  Li  Li  Li   |  
 | Li  |   Li      Li          |  
 |     |Li      Li      Li     |  
 Li    | Li      Li            |  
 |    Li      Li      Li       |  
 |     |                       |  
 |     |                       |  
 |     |                       |  
 |     |                       |  
 |     |                       |  
 |     |                       |  
 |     .-----------------------.  
 |    /                       /   
 |   /                       /    
 |  /                       /     
 | /                       /      
 |/                       /       
 *-----------------------*        

Positions:
   0 Li     1.617037    1.617037   10.000000    ( 0.0000,  0.0000,  0.0000)
   1 Li     4.851111    1.617037   10.000000    ( 0.0000,  0.0000,  0.0000)
   2 Li     8.085185    1.617037   10.000000    ( 0.0000,  0.0000,  0.0000)
   3 Li     1.617037    4.851111   10.000000    ( 0.0000,  0.0000,  0.0000)
   4 Li     4.851111    4.851111   10.000000    ( 0.0000,  0.0000,  0.0000)
   5 Li     8.085185    4.851111   10.000000    ( 0.0000,  0.0000,  0.0000)
   6 Li     1.617037    8.085185   10.000000    ( 0.0000,  0.0000,  0.0000)
   7 Li     4.851111    8.085185   10.000000    ( 0.0000,  0.0000,  0.0000)
   8 Li     8.085185    8.085185   10.000000    ( 0.0000,  0.0000,  0.0000)
   9 Li     0.000000    0.000000   11.617037    ( 0.0000,  0.0000,  0.0000)
  10 Li     3.234074    0.000000   11.617037    ( 0.0000,  0.0000,  0.0000)
  11 Li     6.468148    0.000000   11.617037    ( 0.0000,  0.0000,  0.0000)
  12 Li     0.000000    3.234074   11.617037    ( 0.0000,  0.0000,  0.0000)
  13 Li     3.234074    3.234074   11.617037    ( 0.0000,  0.0000,  0.0000)
  14 Li     6.468148    3.234074   11.617037    ( 0.0000,  0.0000,  0.0000)
  15 Li     0.000000    6.468148   11.617037    ( 0.0000,  0.0000,  0.0000)
  16 Li     3.234074    6.468148   11.617037    ( 0.0000,  0.0000,  0.0000)
  17 Li     6.468148    6.468148   11.617037    ( 0.0000,  0.0000,  0.0000)
  18 Li     1.617667    1.566295   13.459032    ( 0.0000,  0.0000,  0.0000)
  19 Li     4.855040    1.669002   13.471816    ( 0.0000,  0.0000,  0.0000)
  20 Li     8.077228    1.608675   13.525117    ( 0.0000,  0.0000,  0.0000)
  21 Li     1.540995    4.796660   13.465331    ( 0.0000,  0.0000,  0.0000)
  22 Li     4.808440    4.896233   13.474098    ( 0.0000,  0.0000,  0.0000)
  23 Li     8.014005    4.851335   13.487853    ( 0.0000,  0.0000,  0.0000)
  24 Li     1.652462    8.028973   13.465909    ( 0.0000,  0.0000,  0.0000)
  25 Li     4.907962    8.113943   13.460865    ( 0.0000,  0.0000,  0.0000)
  26 Li     8.118504    8.054885   13.476622    ( 0.0000,  0.0000,  0.0000)
  27 Li     0.071814   -0.151692   15.391416    ( 0.0000,  0.0000,  0.0000)
  28 Li     3.394545   -0.078305   15.365051    ( 0.0000,  0.0000,  0.0000)
  29 Li     6.674078    0.215254   15.444657    ( 0.0000,  0.0000,  0.0000)
  30 Li    -0.305119    2.962389   15.465850    ( 0.0000,  0.0000,  0.0000)
  31 Li     3.076903    3.309018   15.358782    ( 0.0000,  0.0000,  0.0000)
  32 Li     6.313432    3.352123   15.482934    ( 0.0000,  0.0000,  0.0000)
  33 Li     0.057525    6.299838   15.422182    ( 0.0000,  0.0000,  0.0000)
  34 Li     3.231383    6.466619   15.415955    ( 0.0000,  0.0000,  0.0000)
  35 Li     6.402649    6.614510   15.446233    ( 0.0000,  0.0000,  0.0000)
  36 O      8.200433    1.688199   18.998158    ( 0.0000,  0.0000,  0.0000)
  37 C     10.625087    1.261453   18.829219    ( 0.0000,  0.0000,  0.0000)
  38 C      9.499209    2.285390   18.960138    ( 0.0000,  0.0000,  0.0000)
  39 C     12.007512    1.904204   18.714218    ( 0.0000,  0.0000,  0.0000)
  40 H     10.586907    0.585372   19.687029    ( 0.0000,  0.0000,  0.0000)
  41 H     10.436411    0.646279   17.939975    ( 0.0000,  0.0000,  0.0000)
  42 H      9.595691    2.843538   19.894781    ( 0.0000,  0.0000,  0.0000)
  43 H      9.564121    3.021621   18.141681    ( 0.0000,  0.0000,  0.0000)
  44 H     12.267944    2.478448   19.606869    ( 0.0000,  0.0000,  0.0000)
  45 H     12.781360    1.146183   18.568942    ( 0.0000,  0.0000,  0.0000)
  46 H     12.044955    2.587745   17.857757    ( 0.0000,  0.0000,  0.0000)
  47 H      8.044671    1.297948   18.128656    ( 0.0000,  0.0000,  0.0000)
  48 N      8.482152    1.143924   15.536726    ( 0.0000,  0.0000,  0.0000)
  49 N      7.586755    2.038551   15.534149    ( 0.0000,  0.0000,  0.0000)

Unit cell:
           periodic     x           y           z      points  spacing
  1. axis:    yes    9.702222    0.000000    0.000000    60     0.1617
  2. axis:    yes    0.000000    9.702222    0.000000    60     0.1617
  3. axis:    no     0.000000    0.000000   26.351111   164     0.1607

  Lengths:   9.702222   9.702222  26.351111
  Angles:   90.000000  90.000000  90.000000

Effective grid spacing dv^(1/3) = 0.1614

     iter     time        total  log10-change:
                         energy  eigst   dens
iter:   1 01:43:36  -335.425941  -1.37
iter:   2 01:43:44  -335.426185  -2.24  -2.38
iter:   3 01:43:51  -335.425939c -2.79  -2.49
iter:   4 01:43:58  -335.427068c -2.93  -2.52
Writing to output.gpw (mode='')

iter:   5 01:44:05  -335.423248c -2.83  -2.45
iter:   6 01:44:13  -335.422339c -2.68  -2.78
iter:   7 01:44:27  -335.422346c -2.88  -3.04
iter:   8 01:44:34  -335.422324c -3.56  -3.09
iter:   9 01:44:41  -335.422277c -3.95  -3.18
Writing to output.gpw (mode='')

iter:  10 01:44:48  -335.422291c -4.23  -3.39
iter:  11 01:44:56  -335.422284c -4.66  -3.42
iter:  12 01:45:03  -335.422282c -4.78  -3.47
iter:  13 01:45:10  -335.422271c -5.14  -3.74
iter:  14 01:45:17  -335.422278c -5.19  -3.75
Writing to output.gpw (mode='')

iter:  15 01:45:25  -335.422282c -5.22  -3.84
iter:  16 01:45:32  -335.422284c -5.57  -3.96
iter:  17 01:45:39  -335.422280c -5.73  -4.07c
iter:  18 01:45:47  -335.422283c -6.04  -4.32c
iter:  19 01:45:54  -335.422283c -6.30  -4.39c
Writing to output.gpw (mode='')

iter:  20 01:46:01  -335.422283c -6.53  -4.49c
iter:  21 01:46:08  -335.422281c -6.64  -4.54c
iter:  22 01:46:16  -335.422283c -6.88  -4.66c
iter:  23 01:46:23  -335.422284c -6.79  -4.75c
iter:  24 01:46:31  -335.422282c -7.12  -4.77c
Writing to output.gpw (mode='')

iter:  25 01:46:49  -335.422283c -7.47c -4.98c

Converged after 25 iterations.

Dipole moment: (10.332314, -3.607052, -0.093641) |e|*Ang

Energy contributions relative to reference atoms: (reference = -15487.462483)

Kinetic:       +166.868938
Potential:     -159.580549
External:        +0.000000
XC:            -343.450746
Entropy (-ST):   -0.160700
Local:           +0.820424
--------------------------
Free energy:   -335.502632
Extrapolated:  -335.422283

Dipole-layer corrected work functions: 3.413680, 3.593690 eV

Showing only first 2 kpts
 Kpt  Band  Eigenvalues  Occupancy
  0    34     -3.71731    1.97249
  0    35     -3.52449    1.20510
  0    36     -3.48926    0.85672
  0    37     -3.39526    0.20522

  1    34     -3.82246    1.99660
  1    35     -3.44830    0.49663
  1    36     -3.39534    0.20551
  1    37     -3.37169    0.13324


Fermi level: -3.50369

No gap

Forces in eV/Ang:
  0 Li   -0.00745   -0.01094   -0.29276
  1 Li    0.01144    0.01265   -0.29179
  2 Li   -0.00092    0.00105   -0.25124
  3 Li    0.01751    0.01930   -0.28718
  4 Li   -0.00654    0.01100   -0.28881
  5 Li   -0.01047   -0.00574   -0.29145
  6 Li    0.01135   -0.00989   -0.28906
  7 Li   -0.01537   -0.01722   -0.28933
  8 Li    0.01141    0.00826   -0.29444
  9 Li   -0.03769    0.00899    0.31513
 10 Li    0.01954   -0.00043    0.27741
 11 Li    0.02279    0.01597    0.25625
 12 Li   -0.04173   -0.02371    0.26633
 13 Li   -0.01133   -0.00186    0.27481
 14 Li    0.02386   -0.02319    0.29608
 15 Li   -0.02004   -0.01779    0.25749
 16 Li   -0.00585   -0.00986    0.24882
 17 Li    0.00333    0.00047    0.24679
 18 Li   -0.02061    0.00428    0.00962
 19 Li    0.00640   -0.00005    0.00359
 20 Li   -0.01564   -0.00686   -0.01205
 21 Li   -0.00601   -0.00579   -0.00019
 22 Li   -0.00158    0.00384   -0.00464
 23 Li    0.01115   -0.01102    0.00664
 24 Li    0.00358   -0.00277   -0.00452
 25 Li    0.01229    0.01573    0.00148
 26 Li   -0.00592    0.00947   -0.00503
 27 Li    0.00627    0.00292   -0.01164
 28 Li   -0.01399    0.00200    0.00296
 29 Li    0.00117    0.01277    0.02026
 30 Li    0.01984    0.03190    0.01275
 31 Li    0.00491   -0.00453    0.00077
 32 Li   -0.00595    0.00301   -0.00647
 33 Li   -0.00513    0.00117    0.00162
 34 Li    0.00099   -0.00018    0.00657
 35 Li    0.00010   -0.00037   -0.00611
 36 O    -0.00639   -0.00821    0.01527
 37 C     0.00594   -0.01344    0.01262
 38 C     0.01754   -0.00896    0.01026
 39 C    -0.01043   -0.01043    0.01980
 40 H     0.00688   -0.03356    0.02757
 41 H     0.00083    0.00818    0.00475
 42 H     0.00623    0.00316    0.01011
 43 H    -0.01484    0.02184   -0.01441
 44 H    -0.01489    0.00775    0.00207
 45 H     0.01249    0.02349    0.00551
 46 H     0.02742   -0.00669    0.03901
 47 H    -0.02456    0.00488    0.01024
 48 N    -0.00289   -0.01077    0.01512
 49 N     0.02732   -0.00747   -0.00557

Timing:                                      incl.     excl.
-------------------------------------------------------------------
Density initialized from wave functions:     4.394     4.392   0.0% |
 Symmetrize density:                         0.002     0.002   0.0% |
Forces:                                     43.772    43.772   0.2% |
Hamiltonian:                               589.829     0.014   0.0% |
 Atomic:                                     0.024     0.023   0.0% |
  XC Correction:                             0.000     0.000   0.0% |
 Calculate atomic Hamiltonians:              0.042     0.042   0.0% |
 Communicate:                                8.826     8.826   0.0% |
 Hartree integrate/restrict:                 2.041     2.041   0.0% |
 Initialize Hamiltonian:                     0.000     0.000   0.0% |
 Poisson:                                   27.228    10.058   0.0% |
  Communicate from 1D:                       2.706     2.706   0.0% |
  Communicate from 2D:                       2.705     2.705   0.0% |
  Communicate to 1D:                         1.534     1.534   0.0% |
  Communicate to 2D:                         3.274     3.274   0.0% |
  FFT 1D:                                    3.560     3.560   0.0% |
  FFT 2D:                                    3.391     3.391   0.0% |
 XC 3D grid:                               551.148    85.515   0.3% |
  VdW-DF integral:                         465.633     3.906   0.0% |
   Convolution:                             42.020    42.020   0.2% |
   FFT:                                     18.127    18.127   0.1% |
   gather:                                 158.569   158.569   0.6% |
   hmm1:                                    14.741    14.741   0.1% |
   hmm2:                                    19.703    19.703   0.1% |
   iFFT:                                    18.834    18.834   0.1% |
   potential:                              186.036     4.821   0.0% |
    collect:                                27.506    27.506   0.1% |
    p1:                                     81.152    81.152   0.3% |
    p2:                                     30.299    30.299   0.1% |
    sum:                                    42.258    42.258   0.2% |
   splines:                                  3.695     3.695   0.0% |
 vbar:                                       0.507     0.507   0.0% |
LCAO initialization:                         1.242     0.182   0.0% |
 LCAO eigensolver:                           0.313     0.000   0.0% |
  Calculate projections:                     0.000     0.000   0.0% |
  DenseAtomicCorrection:                     0.000     0.000   0.0% |
  Distribute overlap matrix:                 0.221     0.221   0.0% |
  Orbital Layouts:                           0.091     0.091   0.0% |
  Potential matrix:                          0.001     0.001   0.0% |
  Sum over cells:                            0.001     0.001   0.0% |
 LCAO to grid:                               0.620     0.620   0.0% |
 Set positions (LCAO WFS):                   0.127     0.080   0.0% |
  Basic WFS set positions:                   0.001     0.001   0.0% |
  Basis functions set positions:             0.000     0.000   0.0% |
  P tci:                                     0.000     0.000   0.0% |
  ST tci:                                    0.013     0.013   0.0% |
  mktci:                                     0.033     0.033   0.0% |
Redistribute:                                0.061     0.061   0.0% |
SCF-cycle:                               25040.411   343.871   1.3% ||
 Davidson:                                6780.317  2023.632   7.8% |--|
  Apply hamiltonian:                       422.805   422.805   1.6% ||
  Subspace diag:                          1257.997     0.513   0.0% |
   calc_h_matrix:                          621.468   195.531   0.8% |
    Apply hamiltonian:                     425.937   425.937   1.7% ||
   diagonalize:                             67.843    67.843   0.3% |
   rotate_psi:                             568.172   568.172   2.2% ||
  calc. matrices:                         2147.334  1113.447   4.3% |-|
   Apply hamiltonian:                     1033.887  1033.887   4.0% |-|
  diagonalize:                              20.113    20.113   0.1% |
  rotate_psi:                              908.436   908.436   3.5% ||
 Density:                                  123.339     0.083   0.0% |
  Atomic density matrices:                  13.433    13.433   0.1% |
  Mix:                                      53.119    53.119   0.2% |
  Multipole moments:                         5.817     5.817   0.0% |
  Pseudo density:                           50.887    50.825   0.2% |
   Symmetrize density:                       0.062     0.062   0.0% |
 Hamiltonian:                            17773.137     0.435   0.0% |
  Atomic:                                    0.813     0.804   0.0% |
   XC Correction:                            0.008     0.008   0.0% |
  Calculate atomic Hamiltonians:             1.298     1.298   0.0% |
  Communicate:                             232.856   232.856   0.9% |
  Hartree integrate/restrict:               62.690    62.690   0.2% |
  Poisson:                                 848.682   313.991   1.2% |
   Communicate from 1D:                     83.288    83.288   0.3% |
   Communicate from 2D:                     86.347    86.347   0.3% |
   Communicate to 1D:                       48.368    48.368   0.2% |
   Communicate to 2D:                       99.224    99.224   0.4% |
   FFT 1D:                                 109.848   109.848   0.4% |
   FFT 2D:                                 107.616   107.616   0.4% |
  XC 3D grid:                            16611.747  2578.698  10.0% |---|
   VdW-DF integral:                      14033.049   119.964   0.5% |
    Convolution:                          1288.699  1288.699   5.0% |-|
    FFT:                                   555.824   555.824   2.2% ||
    gather:                               4915.067  4915.067  19.0% |-------|
    hmm1:                                  450.987   450.987   1.7% ||
    hmm2:                                  604.347   604.347   2.3% ||
    iFFT:                                  576.750   576.750   2.2% ||
    potential:                            5521.381   149.919   0.6% |
     collect:                              857.792   857.792   3.3% ||
     p1:                                  2485.913  2485.913   9.6% |---|
     p2:                                   931.365   931.365   3.6% ||
     sum:                                 1096.391  1096.391   4.2% |-|
    splines:                                 0.031     0.031   0.0% |
  vbar:                                     14.616    14.616   0.1% |
 Orthonormalize:                            19.747     0.015   0.0% |
  calc_s_matrix:                             2.907     2.907   0.0% |
  inverse-cholesky:                          5.780     5.780   0.0% |
  projections:                               0.002     0.002   0.0% |
  rotate_psi_s:                             11.043    11.043   0.0% |
Set symmetry:                                0.003     0.003   0.0% |
Other:                                     123.739   123.739   0.5% |
-------------------------------------------------------------------
Total:                                             25803.452 100.0%

Memory usage: 1.11 GiB
Date: Sat Mar 11 01:46:51 2023
