
  ___ ___ ___ _ _ _  
 |   |   |_  | | | | 
 | | | | | . | | | | 
 |__ |  _|___|_____|  22.8.0
 |___|_|             

User:   vazumah@c14.hercules
Date:   Sat Jan 28 23:42:42 2023
Arch:   x86_64
Pid:    28843
CWD:    /home/vazumah/Python_projects/LiNRR/Li_adsorb_studies/autocat/proton_donor_calcs/adsorbates/CH3CH2OH_x/bridge/0.0_1.617/N2_x
Python: 3.10.8
gpaw:   /home/vazumah/.conda/envs/GPAW/lib/python3.10/site-packages/gpaw
_gpaw:  /home/vazumah/.conda/envs/GPAW/lib/python3.10/site-packages/
        _gpaw.cpython-310-x86_64-linux-gnu.so
ase:    /home/vazumah/.conda/envs/GPAW/lib/python3.10/site-packages/ase (version 3.22.1)
numpy:  /home/vazumah/.conda/envs/GPAW/lib/python3.10/site-packages/numpy (version 1.24.1)
scipy:  /home/vazumah/.conda/envs/GPAW/lib/python3.10/site-packages/scipy (version 1.10.0)
libxc:  5.2.3
units:  Angstrom and eV
cores: 24
OpenMP: True
OMP_NUM_THREADS: 1

Reading from output.gpw
Read dipole, energy, free_energy, magmom, magmoms
Reading input parameters:
  h: 0.16
  kpts: {size: [4, 4, 1]}
  occupations: {name: fermi-dirac,
                width: 0.05}
  poissonsolver: {dipolelayer: xy}
  xc: BEEF-vdW

Initialize ...

species:
  Li:
    name: Lithium
    id: 830b4218f175192f93f959cfc0aad614
    Z: 3.0
    valence: 1
    core: 2
    charge: 0.0
    file: /home/vazumah/.conda/envs/GPAW/share/gpaw/Li.PBE.gz
    compensation charges: {type: gauss,
                           rc: 0.33,
                           lmax: 2}
    cutoffs: {filter: 1.91,
              core: 2.55}
    valence states:
      #              energy  rcut
      - 2s(1.00)    -2.874   1.058
      - 2p(0.00)    -1.090   1.058
      -  s          24.337   1.058
  
    # Using partial waves for Li as LCAO basis

  O:
    name: Oxygen
    id: 32ecd46bf208036f09c70b0ec9a88b78
    Z: 8.0
    valence: 6
    core: 2
    charge: 0.0
    file: /home/vazumah/.conda/envs/GPAW/share/gpaw/O.PBE.gz
    compensation charges: {type: gauss,
                           rc: 0.21,
                           lmax: 2}
    cutoffs: {filter: 1.17,
              core: 0.83}
    valence states:
      #              energy  rcut
      - 2s(2.00)   -23.961   0.688
      - 2p(4.00)    -9.029   0.598
      -  s           3.251   0.688
      -  p          18.182   0.598
      -  d           0.000   0.619
  
    # Using partial waves for O as LCAO basis

  C:
    name: Carbon
    id: 4aa54d4b901d75f77cc0ea3eec22967b
    Z: 6.0
    valence: 4
    core: 2
    charge: 0.0
    file: /home/vazumah/.conda/envs/GPAW/share/gpaw/C.PBE.gz
    compensation charges: {type: gauss,
                           rc: 0.20,
                           lmax: 2}
    cutoffs: {filter: 1.14,
              core: 1.14}
    valence states:
      #              energy  rcut
      - 2s(2.00)   -13.751   0.635
      - 2p(2.00)    -5.284   0.635
      -  s          13.461   0.635
      -  p          21.927   0.635
      -  d           0.000   0.635
  
    # Using partial waves for C as LCAO basis

  H:
    name: Hydrogen
    id: d65de229564ff8ea4db303e23b6d1ecf
    Z: 1.0
    valence: 1
    core: 0
    charge: 0.0
    file: /home/vazumah/.conda/envs/GPAW/share/gpaw/H.PBE.gz
    compensation charges: {type: gauss,
                           rc: 0.15,
                           lmax: 2}
    cutoffs: {filter: 0.85,
              core: 0.53}
    valence states:
      #              energy  rcut
      - 1s(1.00)    -6.494   0.476
      -  s          20.717   0.476
      -  p           0.000   0.476
  
    # Using partial waves for H as LCAO basis

  N:
    name: Nitrogen
    id: f7500608b86eaa90eef8b1d9a670dc53
    Z: 7.0
    valence: 5
    core: 2
    charge: 0.0
    file: /home/vazumah/.conda/envs/GPAW/share/gpaw/N.PBE.gz
    compensation charges: {type: gauss,
                           rc: 0.18,
                           lmax: 2}
    cutoffs: {filter: 1.11,
              core: 0.96}
    valence states:
      #              energy  rcut
      - 2s(2.00)   -18.583   0.603
      - 2p(3.00)    -7.089   0.529
      -  s           8.629   0.603
      -  p          20.123   0.529
      -  d           0.000   0.577
  
    # Using partial waves for N as LCAO basis

Reference energy: -14434.854043  # eV

Spin-paired calculation

Convergence criteria:
 Maximum [total energy] change in last 3 cyles: 0.0005 eV / electron
 Maximum integral of absolute [dens]ity change: 0.0001 electrons / valence electron
 Maximum integral of absolute [eigenst]ate change: 4e-08 eV^2 / valence electron
 Maximum number of scf [iter]ations: 333
 (Square brackets indicate name in SCF output, whereas a 'c' in
 the SCF output indicates the quantity has converged.)

Symmetries present (total): 1

  ( 1  0  0)
  ( 0  1  0)
  ( 0  0  1)

16 k-points: 4 x 4 x 1 Monkhorst-Pack grid
8 k-points in the irreducible part of the Brillouin zone
       k-points in crystal coordinates                weights
   0:     0.12500000   -0.37500000    0.00000000          2/16
   1:     0.12500000   -0.12500000    0.00000000          2/16
   2:     0.12500000    0.12500000    0.00000000          2/16
   3:     0.12500000    0.37500000    0.00000000          2/16
   4:     0.37500000   -0.37500000    0.00000000          2/16
   5:     0.37500000   -0.12500000    0.00000000          2/16
   6:     0.37500000    0.12500000    0.00000000          2/16
   7:     0.37500000    0.37500000    0.00000000          2/16

Wave functions: Uniform real-space grid
  Kinetic energy operator: 6*3+1=19 point O(h^6) finite-difference Laplacian
  ScaLapack parameters: grid=1x1, blocksize=None
  Wavefunction extrapolation:
    Improved wavefunction reuse through dual PAW basis 

Occupation numbers: Fermi-Dirac:
  width: 0.0500  # eV
 

Eigensolver
   Davidson(niter=2) 

Densities:
  Coarse grid: 60*60*156 grid
  Fine grid: 120*120*312 grid
  Total Charge: 0.000000 

Density mixing:
  Method: separate
  Backend: pulay
  Linear mixing parameter: 0.05
  old densities: 5
  Damping of long wavelength oscillations: 50 

Hamiltonian:
  XC and Coulomb potentials evaluated on a 120*120*312 grid
  Using the BEEF-vdW Exchange-Correlation functional
  Interpolation: tri-quintic (5. degree polynomial)
  Poisson solver: FastPoissonSolver using
    Stencil: 6*3+1=19 point O(h^6) finite-difference Laplacian
    FFT axes: [0, 1]
    FST axes: [2]

Dipole correction along z-axis 

XC parameters: BEEF-vdW with 2 nearest neighbor stencil

Memory estimate:
  Process memory now: 219.02 MiB
  Calculator: 411.72 MiB
    Density: 118.00 MiB
      Arrays: 36.75 MiB
      Localized functions: 67.24 MiB
      Mixer: 14.01 MiB
    Hamiltonian: 29.35 MiB
      Arrays: 24.03 MiB
      XC: 0.00 MiB
      Poisson: 0.00 MiB
      vbar: 5.32 MiB
    Wavefunctions: 264.37 MiB
      Arrays psit_nG: 123.27 MiB
      Eigensolver: 137.57 MiB
      Projections: 0.06 MiB
      Projectors: 3.47 MiB

Total number of cores used: 24
Parallelization over k-points: 8
Domain decomposition: 1 x 1 x 3

Number of atoms: 47
Number of atomic orbitals: 170
Number of bands in calculation: 44
Number of valence electrons: 66
Bands to converge: occupied

... initialized

Initializing position-dependent things.

Creating initial wave functions:
  44 bands from LCAO basis set

       .-----------------------.  
      /|                       |  
     / |                       |  
    /  |                       |  
   /   |                       |  
  /    |                       |  
 *     |                       |  
 |     |                       |  
 |H    | H                     |  
 |O H  |C                      |  
 |  C  | HH                    |  
 |  H  |                       |  
 |     |       Li      Li      Li 
 |   N |                  N    |  
 |   Li|     Li      Li        |  
 |     |  Li      Li      Li   |  
 |     |   Li      Li      Li  |  
 |     |Li      Li      Li     |  
 |     |                       |  
 |   LLi     LLi     LLi       |  
 |     |  Li      Li      Li   |  
 | Li  |   Li      Li          |  
 |     |Li      Li      Li     |  
 Li    | Li      Li            |  
 |    Li      Li      Li       |  
 |     |                       |  
 |     |                       |  
 |     |                       |  
 |     |                       |  
 |     |                       |  
 |     |                       |  
 |     .-----------------------.  
 |    /                       /   
 |   /                       /    
 |  /                       /     
 | /                       /      
 |/                       /       
 *-----------------------*        

Positions:
   0 Li     1.617037    1.617037   10.000000    ( 0.0000,  0.0000,  0.0000)
   1 Li     4.851111    1.617037   10.000000    ( 0.0000,  0.0000,  0.0000)
   2 Li     8.085185    1.617037   10.000000    ( 0.0000,  0.0000,  0.0000)
   3 Li     1.617037    4.851111   10.000000    ( 0.0000,  0.0000,  0.0000)
   4 Li     4.851111    4.851111   10.000000    ( 0.0000,  0.0000,  0.0000)
   5 Li     8.085185    4.851111   10.000000    ( 0.0000,  0.0000,  0.0000)
   6 Li     1.617037    8.085185   10.000000    ( 0.0000,  0.0000,  0.0000)
   7 Li     4.851111    8.085185   10.000000    ( 0.0000,  0.0000,  0.0000)
   8 Li     8.085185    8.085185   10.000000    ( 0.0000,  0.0000,  0.0000)
   9 Li     0.000000    0.000000   11.617037    ( 0.0000,  0.0000,  0.0000)
  10 Li     3.234074    0.000000   11.617037    ( 0.0000,  0.0000,  0.0000)
  11 Li     6.468148    0.000000   11.617037    ( 0.0000,  0.0000,  0.0000)
  12 Li     0.000000    3.234074   11.617037    ( 0.0000,  0.0000,  0.0000)
  13 Li     3.234074    3.234074   11.617037    ( 0.0000,  0.0000,  0.0000)
  14 Li     6.468148    3.234074   11.617037    ( 0.0000,  0.0000,  0.0000)
  15 Li     0.000000    6.468148   11.617037    ( 0.0000,  0.0000,  0.0000)
  16 Li     3.234074    6.468148   11.617037    ( 0.0000,  0.0000,  0.0000)
  17 Li     6.468148    6.468148   11.617037    ( 0.0000,  0.0000,  0.0000)
  18 Li     1.627952    1.617258   13.457529    ( 0.0000,  0.0000,  0.0000)
  19 Li     4.854882    1.616916   13.480917    ( 0.0000,  0.0000,  0.0000)
  20 Li     8.070572    1.617213   13.463328    ( 0.0000,  0.0000,  0.0000)
  21 Li     1.625591    4.858746   13.475273    ( 0.0000,  0.0000,  0.0000)
  22 Li     4.856580    4.861665   13.480597    ( 0.0000,  0.0000,  0.0000)
  23 Li     8.072214    4.862584   13.473145    ( 0.0000,  0.0000,  0.0000)
  24 Li     1.626019    8.077248   13.474677    ( 0.0000,  0.0000,  0.0000)
  25 Li     4.856902    8.074679   13.480245    ( 0.0000,  0.0000,  0.0000)
  26 Li     8.071464    8.073467   13.472178    ( 0.0000,  0.0000,  0.0000)
  27 Li    -0.015202   -0.040794   15.347266    ( 0.0000,  0.0000,  0.0000)
  28 Li     3.252014   -0.014334   15.409902    ( 0.0000,  0.0000,  0.0000)
  29 Li     6.467542   -0.000906   15.429860    ( 0.0000,  0.0000,  0.0000)
  30 Li    -0.016163    3.273101   15.348464    ( 0.0000,  0.0000,  0.0000)
  31 Li     3.253357    3.247575   15.410356    ( 0.0000,  0.0000,  0.0000)
  32 Li     6.467401    3.234896   15.429845    ( 0.0000,  0.0000,  0.0000)
  33 Li     0.002216    6.469208   15.430509    ( 0.0000,  0.0000,  0.0000)
  34 Li     3.225300    6.468564   15.438336    ( 0.0000,  0.0000,  0.0000)
  35 Li     6.473876    6.468023   15.442125    ( 0.0000,  0.0000,  0.0000)
  36 O      0.016784    1.561967   21.485006    ( 0.0000,  0.0000,  0.0000)
  37 C      1.214227    0.768720   21.525178    ( 0.0000,  0.0000,  0.0000)
  38 C      2.488263    1.605352   21.478933    ( 0.0000,  0.0000,  0.0000)
  39 H      1.206680    0.126503   22.413963    ( 0.0000,  0.0000,  0.0000)
  40 H      1.153717    0.116806   20.651059    ( 0.0000,  0.0000,  0.0000)
  41 H      3.368963    0.958358   21.441591    ( 0.0000,  0.0000,  0.0000)
  42 H      2.504611    2.248911   20.598381    ( 0.0000,  0.0000,  0.0000)
  43 H      2.576258    2.243698   22.362318    ( 0.0000,  0.0000,  0.0000)
  44 H      0.029824    2.151097   22.248753    ( 0.0000,  0.0000,  0.0000)
  45 N     -0.079832    1.696876   18.305209    ( 0.0000,  0.0000,  0.0000)
  46 N      1.018997    1.692133   18.217191    ( 0.0000,  0.0000,  0.0000)

Unit cell:
           periodic     x           y           z      points  spacing
  1. axis:    yes    9.702222    0.000000    0.000000    60     0.1617
  2. axis:    yes    0.000000    9.702222    0.000000    60     0.1617
  3. axis:    no     0.000000    0.000000   24.851111   156     0.1593

  Lengths:   9.702222   9.702222  24.851111
  Angles:   90.000000  90.000000  90.000000

Effective grid spacing dv^(1/3) = 0.1609

     iter     time        total  log10-change:
                         energy  eigst   dens
iter:   1 23:46:08  -307.622427  +1.13
iter:   2 23:48:47  -308.337834  +0.41  -1.73
iter:   3 23:51:10  -308.498119  -0.09  -2.05
iter:   4 23:53:41  -308.557764  -0.50  -2.31
Writing to output.gpw (mode='')

iter:   5 23:56:16  -308.583243  -0.86  -2.55
iter:   6 23:58:54  -308.594604  -1.20  -2.66
iter:   7 00:01:22  -308.599715c -1.47  -2.77
iter:   8 00:03:50  -308.603129c -1.74  -3.06
iter:   9 00:06:23  -308.605224c -1.94  -3.25
Writing to output.gpw (mode='')

iter:  10 00:08:57  -308.606881c -2.10  -3.31
iter:  11 00:11:24  -308.607510c -2.32  -3.16
iter:  12 00:13:52  -308.608131c -2.51  -3.16
iter:  13 00:16:22  -308.608858c -2.58  -3.10
iter:  14 00:18:52  -308.608921c -2.81  -2.95
Writing to output.gpw (mode='')

iter:  15 00:21:23  -308.608947c -2.96  -3.08
iter:  16 00:23:56  -308.609021c -3.02  -3.21
iter:  17 00:26:31  -308.609126c -3.28  -3.43
iter:  18 00:29:03  -308.609209c -3.36  -3.42
iter:  19 00:31:41  -308.609269c -3.46  -3.38
Writing to output.gpw (mode='')

iter:  20 00:34:17  -308.609306c -3.67  -3.41
iter:  21 00:36:52  -308.609336c -3.74  -3.41
iter:  22 00:39:29  -308.609360c -3.96  -3.41
iter:  23 00:42:01  -308.609392c -3.99  -3.50
iter:  24 00:44:31  -308.609404c -4.10  -3.80
Writing to output.gpw (mode='')

iter:  25 00:47:02  -308.609419c -4.14  -3.79
iter:  26 00:49:34  -308.609434c -4.29  -3.83
iter:  27 00:52:15  -308.609442c -4.41  -3.93
iter:  28 00:54:57  -308.609449c -4.47  -3.95
iter:  29 00:57:32  -308.609457c -4.47  -4.10c
Writing to output.gpw (mode='')

iter:  30 01:00:06  -308.609461c -4.50  -4.35c
iter:  31 01:02:36  -308.609465c -4.68  -4.36c
iter:  32 01:05:06  -308.609469c -4.69  -4.37c
iter:  33 01:07:34  -308.609472c -4.79  -4.41c
iter:  34 01:10:03  -308.609474c -4.75  -4.38c
Writing to output.gpw (mode='')

iter:  35 01:12:31  -308.609477c -4.79  -4.37c
iter:  36 01:14:52  -308.609479c -4.90  -4.35c
iter:  37 01:17:27  -308.609481c -4.94  -4.37c
iter:  38 01:19:56  -308.609483c -4.97  -4.36c
iter:  39 01:22:28  -308.609486c -5.05  -4.32c
Writing to output.gpw (mode='')

iter:  40 01:25:04  -308.609486c -5.04  -4.34c
iter:  41 01:27:41  -308.609489c -5.15  -4.36c
iter:  42 01:30:13  -308.609490c -5.20  -4.32c
iter:  43 01:32:48  -308.609490c -5.18  -4.35c
iter:  44 01:35:23  -308.609493c -5.26  -4.32c
Writing to output.gpw (mode='')

iter:  45 01:37:53  -308.609492c -5.25  -4.31c
iter:  46 01:40:25  -308.609493c -5.26  -4.31c
iter:  47 01:42:54  -308.609493c -5.35  -4.33c
iter:  48 01:45:26  -308.609495c -5.39  -4.28c
iter:  49 01:48:08  -308.609496c -5.37  -4.33c
Writing to output.gpw (mode='')

iter:  50 01:50:54  -308.609496c -5.47  -4.33c
iter:  51 01:53:23  -308.609497c -5.47  -4.33c
iter:  52 01:55:50  -308.609497c -5.50  -4.33c
iter:  53 01:58:28  -308.609498c -5.54  -4.31c
iter:  54 02:00:56  -308.609498c -5.53  -4.17c
Writing to output.gpw (mode='')

iter:  55 02:03:21  -308.609497c -5.59  -4.33c
iter:  56 02:05:48  -308.609500c -5.59  -4.31c
iter:  57 02:08:18  -308.609500c -5.66  -4.30c
iter:  58 02:10:53  -308.609500c -5.68  -4.31c
iter:  59 02:13:25  -308.609502c -5.65  -4.42c
Writing to output.gpw (mode='')

iter:  60 02:15:55  -308.609503c -5.74  -4.53c
iter:  61 02:18:28  -308.609503c -5.78  -4.58c
iter:  62 02:20:51  -308.609504c -5.81  -4.61c
iter:  63 02:23:19  -308.609505c -5.80  -4.88c
iter:  64 02:25:50  -308.609505c -5.91  -4.90c
Writing to output.gpw (mode='')

iter:  65 02:28:19  -308.609506c -5.93  -4.91c
iter:  66 02:30:52  -308.609505c -5.91  -4.92c
iter:  67 02:33:23  -308.609506c -5.98  -4.94c
iter:  68 02:35:57  -308.609505c -6.00  -4.76c
iter:  69 02:38:39  -308.609506c -6.04  -5.01c
Writing to output.gpw (mode='')

iter:  70 02:41:13  -308.609506c -6.02  -5.05c
iter:  71 02:43:43  -308.609506c -6.07  -5.08c
iter:  72 02:46:20  -308.609506c -6.12  -5.18c
iter:  73 02:48:56  -308.609506c -6.10  -5.32c
iter:  74 02:51:30  -308.609506c -6.16  -5.44c
Writing to output.gpw (mode='')

iter:  75 02:54:07  -308.609506c -6.21  -5.78c
iter:  76 02:56:45  -308.609506c -6.22  -5.81c
iter:  77 02:59:19  -308.609507c -6.21  -5.83c
iter:  78 03:02:02  -308.609507c -6.31  -5.82c
iter:  79 03:04:41  -308.609507c -6.29  -5.77c
Writing to output.gpw (mode='')

iter:  80 03:07:17  -308.609507c -6.36  -5.79c
iter:  81 03:09:51  -308.609507c -6.34  -5.73c
iter:  82 03:12:28  -308.609507c -6.42  -5.60c
iter:  83 03:15:00  -308.609507c -6.36  -5.59c
iter:  84 03:17:36  -308.609507c -6.37  -5.53c
Writing to output.gpw (mode='')

iter:  85 03:20:10  -308.609507c -6.37  -5.57c
iter:  86 03:22:39  -308.609507c -6.51  -5.56c
iter:  87 03:25:11  -308.609507c -6.44  -5.52c
iter:  88 03:27:40  -308.609507c -6.48  -5.67c
iter:  89 03:30:16  -308.609508c -6.56  -5.68c
Writing to output.gpw (mode='')

iter:  90 03:32:46  -308.609508c -6.64  -5.68c
iter:  91 03:35:19  -308.609508c -6.53  -5.60c
iter:  92 03:37:52  -308.609508c -6.67  -5.71c
iter:  93 03:40:31  -308.609508c -6.69  -5.69c
iter:  94 03:43:08  -308.609508c -6.73  -5.66c
Writing to output.gpw (mode='')

iter:  95 03:45:45  -308.609508c -6.68  -5.67c
iter:  96 03:48:16  -308.609508c -6.66  -5.62c
iter:  97 03:50:51  -308.609508c -6.76  -5.64c
iter:  98 03:53:25  -308.609508c -6.76  -5.40c
iter:  99 03:55:56  -308.609508c -6.73  -5.59c
Writing to output.gpw (mode='')

iter: 100 03:58:34  -308.609508c -6.75  -5.36c
iter: 101 04:01:09  -308.609508c -6.80  -5.65c
iter: 102 04:03:40  -308.609508c -6.95  -5.66c
iter: 103 04:06:13  -308.609508c -6.85  -5.54c
iter: 104 04:08:45  -308.609508c -6.95  -5.75c
Writing to output.gpw (mode='')

iter: 105 04:11:16  -308.609508c -7.07  -5.77c
iter: 106 04:13:55  -308.609508c -7.06  -5.71c
iter: 107 04:16:33  -308.609508c -7.11  -5.76c
iter: 108 04:19:15  -308.609508c -7.06  -5.73c
iter: 109 04:21:55  -308.609508c -7.07  -5.76c
Writing to output.gpw (mode='')

iter: 110 04:24:28  -308.609508c -7.15  -5.76c
iter: 111 04:27:01  -308.609509c -7.09  -5.77c
iter: 112 04:29:42  -308.609509c -7.20  -5.78c
iter: 113 04:32:14  -308.609509c -7.20  -5.98c
iter: 114 04:34:45  -308.609509c -7.24  -6.04c
Writing to output.gpw (mode='')

iter: 115 04:37:19  -308.609509c -7.32  -6.15c
iter: 116 04:39:53  -308.609509c -7.18  -6.25c
iter: 117 04:42:33  -308.609509c -7.40  -6.28c
iter: 118 04:45:11  -308.609509c -7.42c -6.37c

Converged after 118 iterations.

Dipole moment: (-7.646947, -9.336608, 0.300657) |e|*Ang

Energy contributions relative to reference atoms: (reference = -14434.854043)

Kinetic:       +151.280907
Potential:     -147.162301
External:        +0.000000
XC:            -313.398970
Entropy (-ST):   -0.151379
Local:           +0.746544
--------------------------
Free energy:   -308.685198
Extrapolated:  -308.609509

Dipole-layer corrected work functions: 3.394810, 2.816844 eV

Showing only first 2 kpts
 Kpt  Band  Eigenvalues  Occupancy
  0    31     -3.36510    1.98887
  0    32     -3.27365    1.93263
  0    33     -2.93845    0.06795
  0    34     -2.86014    0.01458

  1    31     -3.11820    1.12307
  1    32     -3.09132    0.85599
  1    33     -3.07263    0.67968
  1    34     -3.06071    0.57715


Fermi level: -3.10583

No gap
Writing to output.gpw (mode='')


Forces in eV/Ang:
  0 Li    0.00525   -0.00028   -0.27495
  1 Li    0.00356    0.00018   -0.27396
  2 Li   -0.00827    0.00000   -0.27448
  3 Li    0.00005    0.00545   -0.27418
  4 Li   -0.00113   -0.00294   -0.27727
  5 Li    0.00034    0.00104   -0.27335
  6 Li   -0.00012   -0.00521   -0.27457
  7 Li   -0.00136    0.00282   -0.27749
  8 Li    0.00070   -0.00104   -0.27367
  9 Li   -0.00375   -0.00633    0.28528
 10 Li    0.01595   -0.01018    0.26385
 11 Li   -0.01262   -0.00648    0.25753
 12 Li   -0.00373    0.00599    0.28595
 13 Li    0.01624    0.01013    0.26400
 14 Li   -0.01300    0.00715    0.25730
 15 Li    0.00097    0.00042    0.26125
 16 Li   -0.00047    0.00004    0.25953
 17 Li    0.00110   -0.00073    0.25361
 18 Li    0.00147   -0.00010    0.00105
 19 Li   -0.00074   -0.00002    0.00271
 20 Li   -0.00040   -0.00015    0.00260
 21 Li   -0.00016   -0.00017    0.00316
 22 Li   -0.00064    0.00002    0.00348
 23 Li    0.00076   -0.00127    0.00405
 24 Li   -0.00023    0.00003    0.00321
 25 Li   -0.00062   -0.00013    0.00349
 26 Li    0.00081    0.00123    0.00419
 27 Li    0.00204    0.00232   -0.01047
 28 Li   -0.00299    0.00082   -0.00677
 29 Li    0.00094   -0.00099   -0.00752
 30 Li    0.00201   -0.00306   -0.01086
 31 Li   -0.00295   -0.00121   -0.00627
 32 Li    0.00089    0.00102   -0.00752
 33 Li   -0.00040   -0.00008   -0.01047
 34 Li    0.00154   -0.00007   -0.00398
 35 Li   -0.00105   -0.00012   -0.00122
 36 O     0.03413    0.01350    0.00581
 37 C     0.03329    0.00892    0.00596
 38 C     0.00906    0.00461   -0.00598
 39 H     0.03446   -0.00905   -0.01128
 40 H    -0.00304    0.01429    0.02220
 41 H    -0.00606   -0.00365    0.02804
 42 H    -0.02823   -0.01350   -0.02136
 43 H    -0.00857   -0.03425    0.01455
 44 H    -0.01859   -0.00401    0.00358
 45 N     0.02619    0.01542    0.01761
 46 N    -0.01938    0.01033    0.03059

Timing:                              incl.     excl.
-----------------------------------------------------------
Forces:                              8.434     8.434   0.0% |
Hamiltonian:                       114.678     0.000   0.0% |
 Atomic:                             0.139     0.001   0.0% |
  XC Correction:                     0.138     0.138   0.0% |
 Calculate atomic Hamiltonians:      0.394     0.394   0.0% |
 Communicate:                        0.486     0.486   0.0% |
 Hartree integrate/restrict:         0.209     0.209   0.0% |
 Poisson:                            4.148     1.717   0.0% |
  Communicate from 1D:               0.205     0.205   0.0% |
  Communicate from 2D:               0.703     0.703   0.0% |
  Communicate to 1D:                 0.130     0.130   0.0% |
  Communicate to 2D:                 0.462     0.462   0.0% |
  FFT 1D:                            0.504     0.504   0.0% |
  FFT 2D:                            0.428     0.428   0.0% |
 XC 3D grid:                       109.255     8.838   0.0% |
  VdW-DF integral:                 100.417     0.276   0.0% |
   Convolution:                      5.712     5.712   0.0% |
   FFT:                              0.590     0.590   0.0% |
   gather:                          71.613    71.613   0.4% |
   hmm1:                             0.542     0.542   0.0% |
   hmm2:                             0.632     0.632   0.0% |
   iFFT:                             1.088     1.088   0.0% |
   potential:                        6.533     0.074   0.0% |
    collect:                         0.758     0.758   0.0% |
    p1:                              2.224     2.224   0.0% |
    p2:                              2.023     2.023   0.0% |
    sum:                             1.454     1.454   0.0% |
   splines:                         13.432    13.432   0.1% |
 vbar:                               0.047     0.047   0.0% |
LCAO initialization:                13.787     0.657   0.0% |
 LCAO eigensolver:                   4.078     0.001   0.0% |
  Calculate projections:             0.000     0.000   0.0% |
  DenseAtomicCorrection:             0.000     0.000   0.0% |
  Distribute overlap matrix:         3.912     3.912   0.0% |
  Orbital Layouts:                   0.105     0.105   0.0% |
  Potential matrix:                  0.054     0.054   0.0% |
  Sum over cells:                    0.006     0.006   0.0% |
 LCAO to grid:                       6.210     6.210   0.0% |
 Set positions (LCAO WFS):           2.842     2.317   0.0% |
  Basic WFS set positions:           0.004     0.004   0.0% |
  Basis functions set positions:     0.001     0.001   0.0% |
  P tci:                             0.000     0.000   0.0% |
  ST tci:                            0.331     0.331   0.0% |
  mktci:                             0.189     0.189   0.0% |
Redistribute:                        0.014     0.014   0.0% |
SCF-cycle:                       17994.441   234.156   1.3% ||
 Davidson:                        5450.869  2182.414  12.0% |----|
  Apply hamiltonian:               337.404   337.404   1.9% ||
  Subspace diag:                   756.843     0.027   0.0% |
   calc_h_matrix:                  465.110   138.336   0.8% |
    Apply hamiltonian:             326.774   326.774   1.8% ||
   diagonalize:                     28.682    28.682   0.2% |
   rotate_psi:                     263.025   263.025   1.4% ||
  calc. matrices:                 1646.211  1030.724   5.7% |-|
   Apply hamiltonian:              615.486   615.486   3.4% ||
  diagonalize:                       2.310     2.310   0.0% |
  rotate_psi:                      525.688   525.688   2.9% ||
 Density:                          116.624     0.005   0.0% |
  Atomic density matrices:          30.640    30.640   0.2% |
  Mix:                              34.120    34.120   0.2% |
  Multipole moments:                 0.546     0.546   0.0% |
  Pseudo density:                   51.313    51.309   0.3% |
   Symmetrize density:               0.004     0.004   0.0% |
 Hamiltonian:                    12187.393     0.038   0.0% |
  Atomic:                           18.819     0.236   0.0% |
   XC Correction:                   18.583    18.583   0.1% |
  Calculate atomic Hamiltonians:    60.689    60.689   0.3% |
  Communicate:                      63.798    63.798   0.4% |
  Hartree integrate/restrict:       20.652    20.652   0.1% |
  Poisson:                         457.372   207.062   1.1% |
   Communicate from 1D:             33.617    33.617   0.2% |
   Communicate from 2D:             55.816    55.816   0.3% |
   Communicate to 1D:               13.462    13.462   0.1% |
   Communicate to 2D:               55.082    55.082   0.3% |
   FFT 1D:                          47.793    47.793   0.3% |
   FFT 2D:                          44.540    44.540   0.2% |
  XC 3D grid:                    11560.599  1123.610   6.2% |-|
   VdW-DF integral:              10436.989    23.783   0.1% |
    Convolution:                   661.943   661.943   3.6% ||
    FFT:                           110.043   110.043   0.6% |
    gather:                       8419.797  8419.797  46.4% |------------------|
    hmm1:                          113.241   113.241   0.6% |
    hmm2:                          151.873   151.873   0.8% |
    iFFT:                          119.402   119.402   0.7% |
    potential:                     836.906     9.584   0.1% |
     collect:                       76.778    76.778   0.4% |
     p1:                           328.617   328.617   1.8% ||
     p2:                           214.636   214.636   1.2% |
     sum:                          207.290   207.290   1.1% |
    splines:                         0.001     0.001   0.0% |
  vbar:                              5.427     5.427   0.0% |
 Orthonormalize:                     5.400     0.000   0.0% |
  calc_s_matrix:                     0.730     0.730   0.0% |
  inverse-cholesky:                  0.023     0.023   0.0% |
  projections:                       3.194     3.194   0.0% |
  rotate_psi_s:                      1.452     1.452   0.0% |
Set symmetry:                        0.003     0.003   0.0% |
Other:                              29.075    29.075   0.2% |
-----------------------------------------------------------
Total:                                     18160.431 100.0%

Memory usage: 1.54 GiB
Date: Sun Jan 29 04:45:22 2023
