
  ___ ___ ___ _ _ _  
 |   |   |_  | | | | 
 | | | | | . | | | | 
 |__ |  _|___|_____|  22.8.0
 |___|_|             

User:   vazumah@c16.hercules
Date:   Tue Feb  7 07:19:06 2023
Arch:   x86_64
Pid:    4029
CWD:    /home/vazumah/Python_projects/LiNRR/Li_adsorb_studies/proton_donors/ethanol_N2/Li_BCC_100/adsorbates/CH3CH2OH_y/bridge/0.0_1.617/N2_z
Python: 3.10.8
gpaw:   /home/vazumah/.conda/envs/GPAW/lib/python3.10/site-packages/gpaw
_gpaw:  /home/vazumah/.conda/envs/GPAW/lib/python3.10/site-packages/
        _gpaw.cpython-310-x86_64-linux-gnu.so
ase:    /home/vazumah/.conda/envs/GPAW/lib/python3.10/site-packages/ase (version 3.22.1)
numpy:  /home/vazumah/.conda/envs/GPAW/lib/python3.10/site-packages/numpy (version 1.24.1)
scipy:  /home/vazumah/.conda/envs/GPAW/lib/python3.10/site-packages/scipy (version 1.10.0)
libxc:  5.2.3
units:  Angstrom and eV
cores: 24
OpenMP: True
OMP_NUM_THREADS: 1

Input parameters:
  h: 0.16
  kpts: {size: [4, 4, 1]}
  occupations: {name: fermi-dirac,
                width: 0.05}
  poissonsolver: {dipolelayer: xy}
  xc: BEEF-vdW

System changes: positions, numbers, cell, pbc, initial_charges, initial_magmoms 

Initialize ...

species:
  Li:
    name: Lithium
    id: 830b4218f175192f93f959cfc0aad614
    Z: 3.0
    valence: 1
    core: 2
    charge: 0.0
    file: /home/vazumah/.conda/envs/GPAW/share/gpaw/Li.PBE.gz
    compensation charges: {type: gauss,
                           rc: 0.33,
                           lmax: 2}
    cutoffs: {filter: 1.91,
              core: 2.55}
    valence states:
      #              energy  rcut
      - 2s(1.00)    -2.874   1.058
      - 2p(0.00)    -1.090   1.058
      -  s          24.337   1.058
  
    # Using partial waves for Li as LCAO basis

  O:
    name: Oxygen
    id: 32ecd46bf208036f09c70b0ec9a88b78
    Z: 8.0
    valence: 6
    core: 2
    charge: 0.0
    file: /home/vazumah/.conda/envs/GPAW/share/gpaw/O.PBE.gz
    compensation charges: {type: gauss,
                           rc: 0.21,
                           lmax: 2}
    cutoffs: {filter: 1.17,
              core: 0.83}
    valence states:
      #              energy  rcut
      - 2s(2.00)   -23.961   0.688
      - 2p(4.00)    -9.029   0.598
      -  s           3.251   0.688
      -  p          18.182   0.598
      -  d           0.000   0.619
  
    # Using partial waves for O as LCAO basis

  C:
    name: Carbon
    id: 4aa54d4b901d75f77cc0ea3eec22967b
    Z: 6.0
    valence: 4
    core: 2
    charge: 0.0
    file: /home/vazumah/.conda/envs/GPAW/share/gpaw/C.PBE.gz
    compensation charges: {type: gauss,
                           rc: 0.20,
                           lmax: 2}
    cutoffs: {filter: 1.14,
              core: 1.14}
    valence states:
      #              energy  rcut
      - 2s(2.00)   -13.751   0.635
      - 2p(2.00)    -5.284   0.635
      -  s          13.461   0.635
      -  p          21.927   0.635
      -  d           0.000   0.635
  
    # Using partial waves for C as LCAO basis

  H:
    name: Hydrogen
    id: d65de229564ff8ea4db303e23b6d1ecf
    Z: 1.0
    valence: 1
    core: 0
    charge: 0.0
    file: /home/vazumah/.conda/envs/GPAW/share/gpaw/H.PBE.gz
    compensation charges: {type: gauss,
                           rc: 0.15,
                           lmax: 2}
    cutoffs: {filter: 0.85,
              core: 0.53}
    valence states:
      #              energy  rcut
      - 1s(1.00)    -6.494   0.476
      -  s          20.717   0.476
      -  p           0.000   0.476
  
    # Using partial waves for H as LCAO basis

  N:
    name: Nitrogen
    id: f7500608b86eaa90eef8b1d9a670dc53
    Z: 7.0
    valence: 5
    core: 2
    charge: 0.0
    file: /home/vazumah/.conda/envs/GPAW/share/gpaw/N.PBE.gz
    compensation charges: {type: gauss,
                           rc: 0.18,
                           lmax: 2}
    cutoffs: {filter: 1.11,
              core: 0.96}
    valence states:
      #              energy  rcut
      - 2s(2.00)   -18.583   0.603
      - 2p(3.00)    -7.089   0.529
      -  s           8.629   0.603
      -  p          20.123   0.529
      -  d           0.000   0.577
  
    # Using partial waves for N as LCAO basis

Reference energy: -14434.854043  # eV

Spin-paired calculation

Convergence criteria:
 Maximum [total energy] change in last 3 cyles: 0.0005 eV / electron
 Maximum integral of absolute [dens]ity change: 0.0001 electrons / valence electron
 Maximum integral of absolute [eigenst]ate change: 4e-08 eV^2 / valence electron
 Maximum number of scf [iter]ations: 333
 (Square brackets indicate name in SCF output, whereas a 'c' in
 the SCF output indicates the quantity has converged.)

Symmetries present (total): 1

  ( 1  0  0)
  ( 0  1  0)
  ( 0  0  1)

16 k-points: 4 x 4 x 1 Monkhorst-Pack grid
8 k-points in the irreducible part of the Brillouin zone
       k-points in crystal coordinates                weights
   0:     0.12500000   -0.37500000    0.00000000          2/16
   1:     0.12500000   -0.12500000    0.00000000          2/16
   2:     0.12500000    0.12500000    0.00000000          2/16
   3:     0.12500000    0.37500000    0.00000000          2/16
   4:     0.37500000   -0.37500000    0.00000000          2/16
   5:     0.37500000   -0.12500000    0.00000000          2/16
   6:     0.37500000    0.12500000    0.00000000          2/16
   7:     0.37500000    0.37500000    0.00000000          2/16

Wave functions: Uniform real-space grid
  Kinetic energy operator: 6*3+1=19 point O(h^6) finite-difference Laplacian
  ScaLapack parameters: grid=1x1, blocksize=None
  Wavefunction extrapolation:
    Improved wavefunction reuse through dual PAW basis 

Occupation numbers: Fermi-Dirac:
  width: 0.0500  # eV
 

Eigensolver
   Davidson(niter=2) 

Densities:
  Coarse grid: 60*60*156 grid
  Fine grid: 120*120*312 grid
  Total Charge: 0.000000 

Density mixing:
  Method: separate
  Backend: pulay
  Linear mixing parameter: 0.05
  old densities: 5
  Damping of long wavelength oscillations: 50 

Hamiltonian:
  XC and Coulomb potentials evaluated on a 120*120*312 grid
  Using the BEEF-vdW Exchange-Correlation functional
  Interpolation: tri-quintic (5. degree polynomial)
  Poisson solver: FastPoissonSolver using
    Stencil: 6*3+1=19 point O(h^6) finite-difference Laplacian
    FFT axes: [0, 1]
    FST axes: [2]

Dipole correction along z-axis 

XC parameters: BEEF-vdW with 2 nearest neighbor stencil

Memory estimate:
  Process memory now: 219.18 MiB
  Calculator: 411.72 MiB
    Density: 118.00 MiB
      Arrays: 36.75 MiB
      Localized functions: 67.24 MiB
      Mixer: 14.01 MiB
    Hamiltonian: 29.35 MiB
      Arrays: 24.03 MiB
      XC: 0.00 MiB
      Poisson: 0.00 MiB
      vbar: 5.32 MiB
    Wavefunctions: 264.37 MiB
      Arrays psit_nG: 123.27 MiB
      Eigensolver: 137.57 MiB
      Projections: 0.06 MiB
      Projectors: 3.47 MiB

Total number of cores used: 24
Parallelization over k-points: 8
Domain decomposition: 1 x 1 x 3

Number of atoms: 47
Number of atomic orbitals: 170
Number of bands in calculation: 44
Number of valence electrons: 66
Bands to converge: occupied

... initialized

Initializing position-dependent things.

Density initialized from atomic densities
Creating initial wave functions:
  44 bands from LCAO basis set

       .-----------------------.  
      /|                       |  
     / |                       |  
    /  |                       |  
   /   |                       |  
  /    |                       |  
 *     |                       |  
 |     |                       |  
 |     |                       |  
 |H    | H                     |  
 |O H  |                       |  
 |  C  |CHH                    |  
 |N H  |                       |  
 |     |                       |  
 |N  Li|     Li      Li        |  
 |     |  Li      Li      Li   |  
 | Li  |   Li      Li          |  
 |     |Li      Li      Li     |  
 Li    | Li      Li            |  
 |   LLi     LLi     LLi       |  
 |     |  Li      Li      Li   |  
 | Li  |   Li      Li          |  
 |     |Li      Li      Li     |  
 Li    | Li      Li            |  
 |    Li      Li      Li       |  
 |     |                       |  
 |     |                       |  
 |     |                       |  
 |     |                       |  
 |     |                       |  
 |     |                       |  
 |     .-----------------------.  
 |    /                       /   
 |   /                       /    
 |  /                       /     
 | /                       /      
 |/                       /       
 *-----------------------*        

Positions:
   0 Li     1.617037    1.617037   10.000000    ( 0.0000,  0.0000,  0.0000)
   1 Li     4.851111    1.617037   10.000000    ( 0.0000,  0.0000,  0.0000)
   2 Li     8.085185    1.617037   10.000000    ( 0.0000,  0.0000,  0.0000)
   3 Li     1.617037    4.851111   10.000000    ( 0.0000,  0.0000,  0.0000)
   4 Li     4.851111    4.851111   10.000000    ( 0.0000,  0.0000,  0.0000)
   5 Li     8.085185    4.851111   10.000000    ( 0.0000,  0.0000,  0.0000)
   6 Li     1.617037    8.085185   10.000000    ( 0.0000,  0.0000,  0.0000)
   7 Li     4.851111    8.085185   10.000000    ( 0.0000,  0.0000,  0.0000)
   8 Li     8.085185    8.085185   10.000000    ( 0.0000,  0.0000,  0.0000)
   9 Li     0.000000    0.000000   11.617037    ( 0.0000,  0.0000,  0.0000)
  10 Li     3.234074    0.000000   11.617037    ( 0.0000,  0.0000,  0.0000)
  11 Li     6.468148    0.000000   11.617037    ( 0.0000,  0.0000,  0.0000)
  12 Li     0.000000    3.234074   11.617037    ( 0.0000,  0.0000,  0.0000)
  13 Li     3.234074    3.234074   11.617037    ( 0.0000,  0.0000,  0.0000)
  14 Li     6.468148    3.234074   11.617037    ( 0.0000,  0.0000,  0.0000)
  15 Li     0.000000    6.468148   11.617037    ( 0.0000,  0.0000,  0.0000)
  16 Li     3.234074    6.468148   11.617037    ( 0.0000,  0.0000,  0.0000)
  17 Li     6.468148    6.468148   11.617037    ( 0.0000,  0.0000,  0.0000)
  18 Li     1.617038    1.617038   13.469728    ( 0.0000,  0.0000,  0.0000)
  19 Li     4.851111    1.617038   13.469729    ( 0.0000,  0.0000,  0.0000)
  20 Li     8.085184    1.617038   13.469728    ( 0.0000,  0.0000,  0.0000)
  21 Li     1.617038    4.851111   13.469729    ( 0.0000,  0.0000,  0.0000)
  22 Li     4.851111    4.851111   13.469730    ( 0.0000,  0.0000,  0.0000)
  23 Li     8.085184    4.851111   13.469729    ( 0.0000,  0.0000,  0.0000)
  24 Li     1.617038    8.085184   13.469728    ( 0.0000,  0.0000,  0.0000)
  25 Li     4.851111    8.085184   13.469729    ( 0.0000,  0.0000,  0.0000)
  26 Li     8.085184    8.085184   13.469728    ( 0.0000,  0.0000,  0.0000)
  27 Li    -0.000000   -0.000000   15.445939    ( 0.0000,  0.0000,  0.0000)
  28 Li     3.234074    0.000000   15.445939    ( 0.0000,  0.0000,  0.0000)
  29 Li     6.468148    0.000000   15.445939    ( 0.0000,  0.0000,  0.0000)
  30 Li     0.000000    3.234074   15.445939    ( 0.0000,  0.0000,  0.0000)
  31 Li     3.234076    3.234076   15.445938    ( 0.0000,  0.0000,  0.0000)
  32 Li     6.468146    3.234076   15.445938    ( 0.0000,  0.0000,  0.0000)
  33 Li     0.000000    6.468148   15.445939    ( 0.0000,  0.0000,  0.0000)
  34 Li     3.234076    6.468146   15.445938    ( 0.0000,  0.0000,  0.0000)
  35 Li     6.468146    6.468146   15.445938    ( 0.0000,  0.0000,  0.0000)
  36 O      0.000000    1.617037   20.445939    ( 0.0000,  0.0000,  0.0000)
  37 C      1.182408    0.800279   20.450238    ( 0.0000,  0.0000,  0.0000)
  38 C      2.466622    1.619898   20.435704    ( 0.0000,  0.0000,  0.0000)
  39 H      1.173784    0.116744   21.310398    ( 0.0000,  0.0000,  0.0000)
  40 H      1.107019    0.190554   19.547442    ( 0.0000,  0.0000,  0.0000)
  41 H      3.343549    0.965951   20.420269    ( 0.0000,  0.0000,  0.0000)
  42 H      2.501333    2.268921   19.558886    ( 0.0000,  0.0000,  0.0000)
  43 H      2.536810    2.248385   21.328265    ( 0.0000,  0.0000,  0.0000)
  44 H      0.039167    2.200014   21.214164    ( 0.0000,  0.0000,  0.0000)
  45 N      0.000000    1.617000   17.945939    ( 0.0000,  0.0000,  0.0000)
  46 N      0.000000    1.617000   19.042561    ( 0.0000,  0.0000,  0.0000)

Unit cell:
           periodic     x           y           z      points  spacing
  1. axis:    yes    9.702222    0.000000    0.000000    60     0.1617
  2. axis:    yes    0.000000    9.702222    0.000000    60     0.1617
  3. axis:    no     0.000000    0.000000   24.851111   156     0.1593

  Lengths:   9.702222   9.702222  24.851111
  Angles:   90.000000  90.000000  90.000000

Effective grid spacing dv^(1/3) = 0.1609

     iter     time        total  log10-change:
                         energy  eigst   dens
iter:   1 07:22:27  -645.609202
iter:   2 07:25:01   -16.789640  +2.60  +0.03
iter:   3 07:27:33   121.704900  +3.22  -0.13
iter:   4 07:30:10  -172.555629  +3.41  -0.17
Writing to output.gpw (mode='')

iter:   5 07:32:47  -249.656147  +2.98  -0.12
iter:   6 07:35:23  -269.323804  +2.64  -0.34
iter:   7 07:38:15  -298.910745  +2.32  -0.58
iter:   8 07:40:51  -338.246004  +1.98  -0.63
iter:   9 07:43:34  -402.109333  +2.16  -0.43
Writing to output.gpw (mode='')

iter:  10 07:46:08  -317.399500  +1.36  -0.37
iter:  11 07:48:42  -300.366169  +1.67  -0.66
iter:  12 07:51:16  -302.808427  +1.40  -0.72
iter:  13 07:53:54  -306.061185  +1.13  -0.68
iter:  14 07:56:23  -311.662435  +0.95  -0.69
Writing to output.gpw (mode='')

iter:  15 07:58:55  -309.965746  +0.50  -0.62
iter:  16 08:01:27  -303.115230  +1.46  -0.64
iter:  17 08:04:03  -302.666871  +0.54  -0.84
iter:  18 08:06:32  -302.985879  +0.46  -0.84
iter:  19 08:09:04  -301.618219  +0.72  -0.76
Writing to output.gpw (mode='')

iter:  20 08:11:35  -300.072534  +0.54  -0.87
iter:  21 08:14:11  -300.036648  +0.04  -1.17
iter:  22 08:16:51  -299.885869  +0.46  -1.24
iter:  23 08:19:25  -299.537997  +0.10  -1.25
iter:  24 08:21:59  -299.598538  -0.24  -1.50
Writing to output.gpw (mode='')

iter:  25 08:24:36  -299.679862  -0.35  -1.54
iter:  26 08:27:10  -299.696848  -0.39  -1.55
iter:  27 08:29:42  -299.511755  -0.58  -1.52
iter:  28 08:32:16  -299.501672  -0.63  -1.78
iter:  29 08:34:44  -299.514969c -0.81  -1.99
Writing to output.gpw (mode='')

iter:  30 08:37:16  -299.526121c -1.05  -2.08
iter:  31 08:40:03  -299.559084  -0.86  -2.04
iter:  32 08:42:34  -299.539846c -1.27  -1.92
iter:  33 08:45:05  -299.535365c -1.29  -1.99
iter:  34 08:47:39  -299.536243c -1.53  -2.13
Writing to output.gpw (mode='')

iter:  35 08:50:15  -299.538835c -1.61  -2.15
iter:  36 08:52:51  -299.539966c -1.51  -2.16
iter:  37 08:55:35  -299.541789c -1.74  -2.26
iter:  38 08:58:19  -299.543554c -1.73  -2.32
iter:  39 09:00:55  -299.544125c -1.91  -2.45
Writing to output.gpw (mode='')

iter:  40 09:03:29  -299.544478c -2.05  -2.49
iter:  41 09:06:07  -299.545011c -2.41  -2.61
iter:  42 09:08:46  -299.545808c -2.21  -2.66
iter:  43 09:11:26  -299.546235c -2.19  -2.69
iter:  44 09:14:07  -299.546684c -2.51  -2.89
Writing to output.gpw (mode='')

iter:  45 09:16:45  -299.546944c -2.63  -2.90
iter:  46 09:19:18  -299.547180c -2.59  -2.98
iter:  47 09:21:55  -299.547400c -2.82  -3.19
iter:  48 09:24:31  -299.547636c -2.75  -3.23
iter:  49 09:27:18  -299.547783c -3.07  -3.28
Writing to output.gpw (mode='')

iter:  50 09:29:55  -299.547911c -3.02  -3.43
iter:  51 09:32:27  -299.548002c -3.16  -3.49
iter:  52 09:35:00  -299.548118c -3.01  -3.54
iter:  53 09:37:36  -299.548198c -3.25  -3.68
iter:  54 09:40:20  -299.548255c -3.28  -3.72
Writing to output.gpw (mode='')

iter:  55 09:43:00  -299.548306c -3.19  -3.72
iter:  56 09:45:48  -299.548353c -3.14  -3.79
iter:  57 09:48:23  -299.548398c -3.21  -3.81
iter:  58 09:51:07  -299.548425c -3.40  -3.85
iter:  59 09:53:45  -299.548450c -3.36  -3.88
Writing to output.gpw (mode='')

iter:  60 09:56:24  -299.548468c -3.55  -3.93
iter:  61 09:59:03  -299.548489c -3.71  -4.21c
iter:  62 10:01:33  -299.548497c -3.68  -4.07c
iter:  63 10:04:13  -299.548508c -3.70  -4.32c
iter:  64 10:06:49  -299.548515c -3.77  -4.40c
Writing to output.gpw (mode='')

iter:  65 10:09:36  -299.548522c -3.71  -4.41c
iter:  66 10:12:14  -299.548529c -3.76  -4.49c
iter:  67 10:14:48  -299.548533c -3.78  -4.60c
iter:  68 10:17:20  -299.548537c -3.87  -4.59c
iter:  69 10:19:55  -299.548540c -4.10  -4.50c
Writing to output.gpw (mode='')

iter:  70 10:22:41  -299.548544c -4.10  -4.48c
iter:  71 10:25:19  -299.548547c -4.03  -4.34c
iter:  72 10:27:56  -299.548550c -4.19  -4.31c
iter:  73 10:30:41  -299.548550c -4.29  -4.23c
iter:  74 10:33:20  -299.548551c -4.26  -4.26c
Writing to output.gpw (mode='')

iter:  75 10:36:00  -299.548552c -4.40  -4.25c
iter:  76 10:38:30  -299.548552c -4.30  -4.22c
iter:  77 10:41:04  -299.548550c -4.41  -4.21c
iter:  78 10:43:40  -299.548551c -4.61  -4.37c
iter:  79 10:46:13  -299.548552c -4.65  -4.34c
Writing to output.gpw (mode='')

iter:  80 10:48:43  -299.548552c -4.73  -4.31c
iter:  81 10:51:11  -299.548551c -4.78  -4.26c
iter:  82 10:53:38  -299.548551c -4.78  -4.34c
iter:  83 10:56:19  -299.548550c -4.80  -4.33c
iter:  84 10:58:46  -299.548550c -4.72  -4.39c
Writing to output.gpw (mode='')

iter:  85 11:01:31  -299.548549c -4.76  -4.45c
iter:  86 11:04:08  -299.548550c -5.14  -4.57c
iter:  87 11:06:46  -299.548549c -5.14  -4.70c
iter:  88 11:09:26  -299.548549c -4.98  -4.80c
iter:  89 11:11:57  -299.548549c -5.22  -4.94c
Writing to output.gpw (mode='')

iter:  90 11:14:31  -299.548549c -5.23  -4.97c
iter:  91 11:17:01  -299.548549c -5.39  -5.09c
iter:  92 11:19:31  -299.548548c -5.32  -5.16c
iter:  93 11:22:05  -299.548548c -5.47  -5.31c
iter:  94 11:24:31  -299.548548c -5.41  -5.45c
Writing to output.gpw (mode='')

iter:  95 11:27:07  -299.548548c -5.52  -5.52c
iter:  96 11:29:34  -299.548548c -5.40  -5.57c
iter:  97 11:32:02  -299.548548c -5.40  -5.71c
iter:  98 11:34:36  -299.548548c -5.45  -5.74c
iter:  99 11:37:11  -299.548548c -5.65  -5.72c
Writing to output.gpw (mode='')

iter: 100 11:39:41  -299.548548c -5.68  -5.47c
iter: 101 11:42:08  -299.548548c -5.67  -5.61c
iter: 102 11:44:35  -299.548547c -5.91  -5.68c
iter: 103 11:47:11  -299.548547c -5.89  -5.57c
iter: 104 11:49:49  -299.548547c -5.84  -5.51c
Writing to output.gpw (mode='')

iter: 105 11:52:22  -299.548547c -5.85  -5.52c
iter: 106 11:55:05  -299.548547c -5.90  -5.51c
iter: 107 11:57:39  -299.548547c -6.08  -5.49c
iter: 108 12:00:09  -299.548547c -6.03  -5.37c
iter: 109 12:02:43  -299.548547c -6.15  -5.31c
Writing to output.gpw (mode='')

iter: 110 12:05:17  -299.548547c -6.09  -5.35c
iter: 111 12:07:50  -299.548547c -6.15  -5.42c
iter: 112 12:10:24  -299.548547c -6.14  -5.58c
iter: 113 12:13:04  -299.548547c -6.13  -5.71c
iter: 114 12:15:36  -299.548547c -6.19  -5.78c
Writing to output.gpw (mode='')

iter: 115 12:18:11  -299.548547c -6.44  -5.88c
iter: 116 12:20:56  -299.548547c -6.33  -6.00c
iter: 117 12:23:36  -299.548547c -6.31  -6.04c
iter: 118 12:26:17  -299.548546c -6.43  -6.08c
iter: 119 12:28:50  -299.548546c -6.45  -6.14c
Writing to output.gpw (mode='')

iter: 120 12:31:33  -299.548546c -6.55  -6.30c
iter: 121 12:34:12  -299.548546c -6.49  -6.43c
iter: 122 12:36:46  -299.548546c -6.54  -6.57c
iter: 123 12:39:19  -299.548546c -6.73  -6.54c
iter: 124 12:41:55  -299.548546c -6.72  -6.43c
Writing to output.gpw (mode='')

iter: 125 12:44:28  -299.548546c -6.74  -6.47c
iter: 126 12:47:06  -299.548546c -6.67  -6.43c
iter: 127 12:49:36  -299.548546c -6.82  -6.35c
iter: 128 12:52:10  -299.548546c -6.96  -6.32c
iter: 129 12:54:37  -299.548546c -6.99  -6.19c
Writing to output.gpw (mode='')

iter: 130 12:57:14  -299.548546c -7.04  -6.25c
iter: 131 12:59:51  -299.548546c -7.05  -6.11c
iter: 132 13:02:19  -299.548546c -7.07  -6.15c
iter: 133 13:04:51  -299.548546c -7.08  -6.22c
iter: 134 13:07:19  -299.548546c -7.12  -6.25c
Writing to output.gpw (mode='')

iter: 135 13:09:58  -299.548546c -7.22  -6.23c
iter: 136 13:12:42  -299.548546c -7.27  -6.56c
iter: 137 13:15:10  -299.548546c -7.31  -6.41c
iter: 138 13:17:40  -299.548546c -7.36  -6.23c
iter: 139 13:20:19  -299.548546c -7.49c -6.60c

Converged after 139 iterations.

Dipole moment: (-18.315879, -10.008199, 0.254311) |e|*Ang

Energy contributions relative to reference atoms: (reference = -14434.854043)

Kinetic:       +184.656949
Potential:     -168.161149
External:        +0.000000
XC:            -316.656396
Entropy (-ST):   -0.151075
Local:           +0.687587
--------------------------
Free energy:   -299.624084
Extrapolated:  -299.548546

Dipole-layer corrected work functions: 3.389725, 2.900852 eV

Showing only first 2 kpts
 Kpt  Band  Eigenvalues  Occupancy
  0    31     -3.39493    1.98652
  0    32     -3.30032    1.91384
  0    33     -2.99006    0.08584
  0    34     -2.88995    0.01204

  1    31     -3.18357    1.36510
  1    32     -3.14236    0.97074
  1    33     -3.10815    0.64476
  1    34     -3.07963    0.42394


Fermi level: -3.14529

No gap
Writing to output.gpw (mode='')


Forces in eV/Ang:
  0 Li    0.00980   -0.00159   -0.27315
  1 Li   -0.00104    0.00111   -0.27217
  2 Li   -0.00887   -0.00072   -0.27207
  3 Li    0.00145    0.00444   -0.27182
  4 Li    0.00082   -0.00322   -0.27769
  5 Li   -0.00236    0.00553   -0.27168
  6 Li   -0.00021   -0.00316   -0.27227
  7 Li    0.00006    0.00216   -0.28041
  8 Li    0.00004   -0.00510   -0.27125
  9 Li   -0.00004    0.00470    0.27668
 10 Li    0.01168   -0.00322    0.25444
 11 Li   -0.01167   -0.00423    0.25614
 12 Li    0.00017   -0.00794    0.28487
 13 Li    0.01229    0.00255    0.25334
 14 Li   -0.01252    0.00521    0.25385
 15 Li   -0.00017    0.00362    0.24916
 16 Li   -0.01731    0.00097    0.26905
 17 Li    0.01774   -0.00066    0.26347
 18 Li    0.02019   -0.00066   -0.00823
 19 Li    0.00139    0.00123    0.04532
 20 Li   -0.02111   -0.00052   -0.01491
 21 Li   -0.00965   -0.01056    0.04318
 22 Li    0.00046    0.00598    0.03280
 23 Li    0.00937   -0.00946    0.04367
 24 Li   -0.00869    0.01234    0.05099
 25 Li    0.00159   -0.00735    0.02565
 26 Li    0.00730    0.01116    0.04863
 27 Li    0.00554    0.01267    0.02728
 28 Li    0.01482   -0.01084   -0.02915
 29 Li   -0.02110   -0.01199   -0.02889
 30 Li    0.00095   -0.03504    0.08575
 31 Li    0.02032    0.00676   -0.03188
 32 Li   -0.02128    0.00942   -0.02822
 33 Li    0.00267    0.00855   -0.01482
 34 Li   -0.00992    0.00300   -0.01133
 35 Li    0.00693    0.00095   -0.01747
 36 O    -0.41995    0.97683   14.63923
 37 C     2.43027   -1.85157    1.81771
 38 C    -0.05013    0.29194    0.16619
 39 H    -0.35279    0.36949   -0.06570
 40 H     0.16248   -0.18675    0.55751
 41 H    -0.14156   -0.06754   -0.06790
 42 H     0.08463   -0.00605   -0.02760
 43 H     0.00716   -0.04267   -0.10168
 44 H     0.08371    1.90404    4.71174
 45 N    -0.72698    3.07310   -5.40989
 46 N    -1.08964   -4.44126  -16.38384

System changes: positions 

Initializing position-dependent things.

Density initialized from wave functions
       .-----------------------.  
      /|                       |  
     / |                       |  
    /  |                       |  
   /   |                       |  
  /    |                       |  
 *     |                       |  
 |     |                       |  
 |     |                       |  
 |H    | H                     |  
 |  H  |                  O    |  
 |  C  |CHH                    |  
 |  H  |       Li      Li N    |  
 |     |                       |  
 |   Li|     Li      Li   N    |  
 |     |  Li      Li      Li   |  
 | Li  |   Li      Li          |  
 |     |Li      Li      Li     |  
 Li    |                       |  
 |   LLi     LLi     LLi       |  
 |     |  Li      Li      Li   |  
 | Li  |   Li      Li          |  
 |     |Li      Li      Li     |  
 Li    | Li      Li            |  
 |    Li      Li      Li       |  
 |     |                       |  
 |     |                       |  
 |     |                       |  
 |     |                       |  
 |     |                       |  
 |     |                       |  
 |     .-----------------------.  
 |    /                       /   
 |   /                       /    
 |  /                       /     
 | /                       /      
 |/                       /       
 *-----------------------*        

Positions:
   0 Li     1.617037    1.617037   10.000000    ( 0.0000,  0.0000,  0.0000)
   1 Li     4.851111    1.617037   10.000000    ( 0.0000,  0.0000,  0.0000)
   2 Li     8.085185    1.617037   10.000000    ( 0.0000,  0.0000,  0.0000)
   3 Li     1.617037    4.851111   10.000000    ( 0.0000,  0.0000,  0.0000)
   4 Li     4.851111    4.851111   10.000000    ( 0.0000,  0.0000,  0.0000)
   5 Li     8.085185    4.851111   10.000000    ( 0.0000,  0.0000,  0.0000)
   6 Li     1.617037    8.085185   10.000000    ( 0.0000,  0.0000,  0.0000)
   7 Li     4.851111    8.085185   10.000000    ( 0.0000,  0.0000,  0.0000)
   8 Li     8.085185    8.085185   10.000000    ( 0.0000,  0.0000,  0.0000)
   9 Li     0.000000    0.000000   11.617037    ( 0.0000,  0.0000,  0.0000)
  10 Li     3.234074    0.000000   11.617037    ( 0.0000,  0.0000,  0.0000)
  11 Li     6.468148    0.000000   11.617037    ( 0.0000,  0.0000,  0.0000)
  12 Li     0.000000    3.234074   11.617037    ( 0.0000,  0.0000,  0.0000)
  13 Li     3.234074    3.234074   11.617037    ( 0.0000,  0.0000,  0.0000)
  14 Li     6.468148    3.234074   11.617037    ( 0.0000,  0.0000,  0.0000)
  15 Li     0.000000    6.468148   11.617037    ( 0.0000,  0.0000,  0.0000)
  16 Li     3.234074    6.468148   11.617037    ( 0.0000,  0.0000,  0.0000)
  17 Li     6.468148    6.468148   11.617037    ( 0.0000,  0.0000,  0.0000)
  18 Li     1.617086    1.617037   13.469709    ( 0.0000,  0.0000,  0.0000)
  19 Li     4.851114    1.617041   13.469836    ( 0.0000,  0.0000,  0.0000)
  20 Li     8.085134    1.617037   13.469693    ( 0.0000,  0.0000,  0.0000)
  21 Li     1.617016    4.851086   13.469831    ( 0.0000,  0.0000,  0.0000)
  22 Li     4.851112    4.851125   13.469807    ( 0.0000,  0.0000,  0.0000)
  23 Li     8.085206    4.851089   13.469832    ( 0.0000,  0.0000,  0.0000)
  24 Li     1.617018    8.085213   13.469848    ( 0.0000,  0.0000,  0.0000)
  25 Li     4.851115    8.085166   13.469790    ( 0.0000,  0.0000,  0.0000)
  26 Li     8.085201    8.085210   13.469842    ( 0.0000,  0.0000,  0.0000)
  27 Li     0.000013    0.000030   15.446004    ( 0.0000,  0.0000,  0.0000)
  28 Li     3.234109   -0.000026   15.445870    ( 0.0000,  0.0000,  0.0000)
  29 Li     6.468099   -0.000028   15.445871    ( 0.0000,  0.0000,  0.0000)
  30 Li     0.000002    3.233991   15.446140    ( 0.0000,  0.0000,  0.0000)
  31 Li     3.234124    3.234092   15.445863    ( 0.0000,  0.0000,  0.0000)
  32 Li     6.468096    3.234099   15.445872    ( 0.0000,  0.0000,  0.0000)
  33 Li     0.000006    6.468168   15.445904    ( 0.0000,  0.0000,  0.0000)
  34 Li     3.234053    6.468153   15.445911    ( 0.0000,  0.0000,  0.0000)
  35 Li     6.468162    6.468148   15.445897    ( 0.0000,  0.0000,  0.0000)
  36 O     -0.000988    1.619334   20.480364    ( 0.0000,  0.0000,  0.0000)
  37 C      1.188123    0.795925   20.454512    ( 0.0000,  0.0000,  0.0000)
  38 C      2.466504    1.620585   20.436095    ( 0.0000,  0.0000,  0.0000)
  39 H      1.172955    0.117613   21.310243    ( 0.0000,  0.0000,  0.0000)
  40 H      1.107401    0.190115   19.548753    ( 0.0000,  0.0000,  0.0000)
  41 H      3.343216    0.965793   20.420110    ( 0.0000,  0.0000,  0.0000)
  42 H      2.501532    2.268906   19.558821    ( 0.0000,  0.0000,  0.0000)
  43 H      2.536827    2.248285   21.328026    ( 0.0000,  0.0000,  0.0000)
  44 H      0.039364    2.204491   21.225244    ( 0.0000,  0.0000,  0.0000)
  45 N     -0.001710    1.624227   17.933218    ( 0.0000,  0.0000,  0.0000)
  46 N     -0.002562    1.606556   19.004034    ( 0.0000,  0.0000,  0.0000)

Unit cell:
           periodic     x           y           z      points  spacing
  1. axis:    yes    9.702222    0.000000    0.000000    60     0.1617
  2. axis:    yes    0.000000    9.702222    0.000000    60     0.1617
  3. axis:    no     0.000000    0.000000   24.851111   156     0.1593

  Lengths:   9.702222   9.702222  24.851111
  Angles:   90.000000  90.000000  90.000000

Effective grid spacing dv^(1/3) = 0.1609

     iter     time        total  log10-change:
                         energy  eigst   dens
iter:   1 13:23:39  -301.219948  -0.53
iter:   2 13:26:13  -300.976697  -0.57  -1.33
iter:   3 13:28:48  -300.913982  -1.13  -1.53
iter:   4 13:31:20  -300.884795  -0.93  -1.82
Writing to output.gpw (mode='')

iter:   5 13:33:52  -300.865005  -0.90  -2.02
iter:   6 13:36:27  -300.858434c -1.60  -2.05
iter:   7 13:39:01  -300.862688c -1.49  -2.34
iter:   8 13:41:35  -300.857704c -2.06  -2.18
iter:   9 13:44:02  -300.858527c -1.76  -2.45
Writing to output.gpw (mode='')

iter:  10 13:46:37  -300.858162c -2.61  -2.50
iter:  11 13:49:08  -300.858189c -2.77  -2.67
iter:  12 13:51:39  -300.858374c -2.49  -2.74
iter:  13 13:54:19  -300.858327c -3.22  -2.83
iter:  14 13:56:54  -300.858357c -3.37  -2.96
Writing to output.gpw (mode='')

iter:  15 13:59:30  -300.858409c -3.26  -3.05
iter:  16 14:02:09  -300.858425c -3.43  -3.14
iter:  17 14:04:47  -300.858474c -3.48  -3.32
iter:  18 14:07:12  -300.858480c -4.07  -3.31
iter:  19 14:09:42  -300.858488c -4.00  -3.36
Writing to output.gpw (mode='')

iter:  20 14:12:21  -300.858498c -4.23  -3.42
iter:  21 14:14:56  -300.858528c -4.38  -3.46
iter:  22 14:17:34  -300.858516c -4.45  -3.59
iter:  23 14:20:08  -300.858515c -4.34  -3.74
iter:  24 14:22:33  -300.858517c -4.43  -3.73
Writing to output.gpw (mode='')

iter:  25 14:25:14  -300.858520c -4.78  -3.76
iter:  26 14:27:53  -300.858521c -4.98  -3.85
iter:  27 14:30:21  -300.858523c -5.00  -3.94
iter:  28 14:32:48  -300.858525c -5.07  -3.99
iter:  29 14:35:15  -300.858526c -5.44  -4.20c
Writing to output.gpw (mode='')

iter:  30 14:37:57  -300.858525c -5.24  -4.30c
iter:  31 14:40:31  -300.858525c -5.39  -4.51c
iter:  32 14:43:01  -300.858527c -5.25  -4.56c
iter:  33 14:45:35  -300.858527c -5.65  -4.62c
iter:  34 14:48:07  -300.858528c -5.67  -4.68c
Writing to output.gpw (mode='')

iter:  35 14:50:42  -300.858529c -5.91  -4.67c
iter:  36 14:53:16  -300.858528c -5.53  -4.73c
iter:  37 14:55:43  -300.858529c -5.46  -4.99c
iter:  38 14:58:12  -300.858529c -6.20  -4.97c
iter:  39 15:00:43  -300.858529c -6.04  -5.01c
Writing to output.gpw (mode='')

iter:  40 15:03:18  -300.858529c -6.16  -5.11c
iter:  41 15:05:57  -300.858529c -6.44  -5.19c
iter:  42 15:08:31  -300.858529c -6.47  -5.19c
iter:  43 15:10:59  -300.858529c -6.57  -5.23c
iter:  44 15:13:28  -300.858529c -6.55  -5.44c
Writing to output.gpw (mode='')

iter:  45 15:15:57  -300.858529c -6.41  -5.50c
iter:  46 15:18:38  -300.858529c -6.87  -5.51c
iter:  47 15:21:10  -300.858529c -6.65  -5.61c
iter:  48 15:23:43  -300.858529c -6.85  -5.70c
iter:  49 15:26:27  -300.858529c -7.06  -5.83c
Writing to output.gpw (mode='')

iter:  50 15:28:58  -300.858529c -6.80  -5.78c
iter:  51 15:31:35  -300.858529c -7.02  -5.61c
iter:  52 15:34:09  -300.858529c -7.20  -5.54c
iter:  53 15:36:38  -300.858529c -6.97  -5.50c
iter:  54 15:39:09  -300.858529c -7.34  -5.47c
Writing to output.gpw (mode='')

iter:  55 15:41:38  -300.858529c -7.31  -5.53c
iter:  56 15:44:15  -300.858529c -7.33  -5.51c
iter:  57 15:46:51  -300.858529c -7.24  -5.48c
iter:  58 15:49:23  -300.858529c -7.34  -5.46c
iter:  59 15:51:51  -300.858529c -7.52c -5.42c

Converged after 59 iterations.

Dipole moment: (-17.788337, -9.997491, 0.312122) |e|*Ang

Energy contributions relative to reference atoms: (reference = -14434.854043)

Kinetic:       +188.338510
Potential:     -171.881393
External:        +0.000000
XC:            -317.934596
Entropy (-ST):   -0.150324
Local:           +0.694112
--------------------------
Free energy:   -300.933691
Extrapolated:  -300.858529

Dipole-layer corrected work functions: 3.388129, 2.788124 eV

Showing only first 2 kpts
 Kpt  Band  Eigenvalues  Occupancy
  0    31     -3.33904    1.98686
  0    32     -3.24671    1.91951
  0    33     -2.92885    0.07943
  0    34     -2.83331    0.01216

  1    31     -3.12340    1.33883
  1    32     -3.08477    0.96641
  1    33     -3.05026    0.63849
  1    34     -3.02510    0.44176


Fermi level: -3.08813

No gap
Writing to output.gpw (mode='')


Forces in eV/Ang:
  0 Li    0.00929   -0.00108   -0.27260
  1 Li   -0.00061    0.00070   -0.27230
  2 Li   -0.00872   -0.00028   -0.27177
  3 Li    0.00028    0.00423   -0.27147
  4 Li    0.00063   -0.00358   -0.27726
  5 Li   -0.00100    0.00476   -0.27120
  6 Li   -0.00056   -0.00331   -0.27200
  7 Li   -0.00010    0.00296   -0.27875
  8 Li    0.00058   -0.00463   -0.27118
  9 Li    0.00004    0.00522    0.27593
 10 Li    0.01156   -0.00305    0.25382
 11 Li   -0.01167   -0.00370    0.25523
 12 Li    0.00012   -0.00717    0.28086
 13 Li    0.01196    0.00255    0.25337
 14 Li   -0.01215    0.00459    0.25338
 15 Li   -0.00015    0.00225    0.24863
 16 Li   -0.01685    0.00063    0.26914
 17 Li    0.01721   -0.00072    0.26492
 18 Li    0.01918   -0.00045   -0.00799
 19 Li    0.00115    0.00065    0.04698
 20 Li   -0.02006   -0.00027   -0.01342
 21 Li   -0.00928   -0.01195    0.04650
 22 Li    0.00036    0.00722    0.03071
 23 Li    0.00906   -0.01130    0.04716
 24 Li   -0.00845    0.01296    0.05153
 25 Li    0.00132   -0.00802    0.02626
 26 Li    0.00729    0.01214    0.04894
 27 Li    0.00452    0.00805    0.01766
 28 Li    0.02050   -0.01292   -0.03533
 29 Li   -0.02517   -0.01336   -0.03378
 30 Li    0.00155   -0.02759    0.06421
 31 Li    0.02500    0.00976   -0.03776
 32 Li   -0.02641    0.01209   -0.03495
 33 Li    0.00274    0.00604   -0.01671
 34 Li   -0.01118    0.00250   -0.01165
 35 Li    0.00819    0.00022   -0.01725
 36 O    -0.06684    0.55089   14.22140
 37 C     1.61227   -1.12217    1.74237
 38 C     0.03138    0.15093    0.12420
 39 H    -0.17809    0.13807    0.04002
 40 H     0.12173   -0.14114    0.54925
 41 H    -0.10644   -0.01681   -0.05853
 42 H     0.06238   -0.00709   -0.02441
 43 H     0.01458   -0.01330   -0.05275
 44 H     0.24612    1.53311    4.25133
 45 N    -0.56059    2.54190   -8.33234
 46 N    -1.18041   -3.57242  -12.59043

System changes: positions 

Initializing position-dependent things.

Density initialized from wave functions
       .-----------------------.  
      /|                       |  
     / |                       |  
    /  |                       |  
   /   |                       |  
  /    |                       |  
 *     |                       |  
 |     |                       |  
 |     |                       |  
 |H    | H                     |  
 |  H  |                  O    |  
 |  C  |CHH                    |  
 |  H  |       Li      Li N    |  
 |     |                       |  
 |   Li|     Li      Li   N    |  
 |     |  Li      Li      Li   |  
 | Li  |   Li      Li          |  
 |     |Li      Li      Li     |  
 Li    |                       |  
 |   LLi     LLi     LLi       |  
 |     |  Li      Li      Li   |  
 | Li  |   Li      Li          |  
 |     |Li      Li      Li     |  
 Li    | Li      Li            |  
 |    Li      Li      Li       |  
 |     |                       |  
 |     |                       |  
 |     |                       |  
 |     |                       |  
 |     |                       |  
 |     |                       |  
 |     .-----------------------.  
 |    /                       /   
 |   /                       /    
 |  /                       /     
 | /                       /      
 |/                       /       
 *-----------------------*        

Positions:
   0 Li     1.617037    1.617037   10.000000    ( 0.0000,  0.0000,  0.0000)
   1 Li     4.851111    1.617037   10.000000    ( 0.0000,  0.0000,  0.0000)
   2 Li     8.085185    1.617037   10.000000    ( 0.0000,  0.0000,  0.0000)
   3 Li     1.617037    4.851111   10.000000    ( 0.0000,  0.0000,  0.0000)
   4 Li     4.851111    4.851111   10.000000    ( 0.0000,  0.0000,  0.0000)
   5 Li     8.085185    4.851111   10.000000    ( 0.0000,  0.0000,  0.0000)
   6 Li     1.617037    8.085185   10.000000    ( 0.0000,  0.0000,  0.0000)
   7 Li     4.851111    8.085185   10.000000    ( 0.0000,  0.0000,  0.0000)
   8 Li     8.085185    8.085185   10.000000    ( 0.0000,  0.0000,  0.0000)
   9 Li     0.000000    0.000000   11.617037    ( 0.0000,  0.0000,  0.0000)
  10 Li     3.234074    0.000000   11.617037    ( 0.0000,  0.0000,  0.0000)
  11 Li     6.468148    0.000000   11.617037    ( 0.0000,  0.0000,  0.0000)
  12 Li     0.000000    3.234074   11.617037    ( 0.0000,  0.0000,  0.0000)
  13 Li     3.234074    3.234074   11.617037    ( 0.0000,  0.0000,  0.0000)
  14 Li     6.468148    3.234074   11.617037    ( 0.0000,  0.0000,  0.0000)
  15 Li     0.000000    6.468148   11.617037    ( 0.0000,  0.0000,  0.0000)
  16 Li     3.234074    6.468148   11.617037    ( 0.0000,  0.0000,  0.0000)
  17 Li     6.468148    6.468148   11.617037    ( 0.0000,  0.0000,  0.0000)
  18 Li     1.617138    1.617036   13.469686    ( 0.0000,  0.0000,  0.0000)
  19 Li     4.851117    1.617042   13.469975    ( 0.0000,  0.0000,  0.0000)
  20 Li     8.085079    1.617037   13.469658    ( 0.0000,  0.0000,  0.0000)
  21 Li     1.616990    4.851048   13.469973    ( 0.0000,  0.0000,  0.0000)
  22 Li     4.851113    4.851149   13.469891    ( 0.0000,  0.0000,  0.0000)
  23 Li     8.085231    4.851052   13.469976    ( 0.0000,  0.0000,  0.0000)
  24 Li     1.616994    8.085252   13.469998    ( 0.0000,  0.0000,  0.0000)
  25 Li     4.851118    8.085142   13.469867    ( 0.0000,  0.0000,  0.0000)
  26 Li     8.085222    8.085247   13.469984    ( 0.0000,  0.0000,  0.0000)
  27 Li     0.000024    0.000042   15.446032    ( 0.0000,  0.0000,  0.0000)
  28 Li     3.234181   -0.000068   15.445754    ( 0.0000,  0.0000,  0.0000)
  29 Li     6.468016   -0.000070   15.445762    ( 0.0000,  0.0000,  0.0000)
  30 Li     0.000008    3.233929   15.446274    ( 0.0000,  0.0000,  0.0000)
  31 Li     3.234207    3.234128   15.445740    ( 0.0000,  0.0000,  0.0000)
  32 Li     6.468007    3.234140   15.445755    ( 0.0000,  0.0000,  0.0000)
  33 Li     0.000014    6.468180   15.445851    ( 0.0000,  0.0000,  0.0000)
  34 Li     3.234018    6.468159   15.445877    ( 0.0000,  0.0000,  0.0000)
  35 Li     6.468188    6.468147   15.445848    ( 0.0000,  0.0000,  0.0000)
  36 O     -0.000343    1.619912   20.520355    ( 0.0000,  0.0000,  0.0000)
  37 C      1.190829    0.794421   20.459354    ( 0.0000,  0.0000,  0.0000)
  38 C      2.466788    1.620685   20.436353    ( 0.0000,  0.0000,  0.0000)
  39 H      1.172856    0.117462   21.310609    ( 0.0000,  0.0000,  0.0000)
  40 H      1.107655    0.189816   19.550316    ( 0.0000,  0.0000,  0.0000)
  41 H      3.342993    0.965864   20.419963    ( 0.0000,  0.0000,  0.0000)
  42 H      2.501659    2.268883   19.558758    ( 0.0000,  0.0000,  0.0000)
  43 H      2.536886    2.248316   21.327990    ( 0.0000,  0.0000,  0.0000)
  44 H      0.040458    2.208030   21.236403    ( 0.0000,  0.0000,  0.0000)
  45 N     -0.002930    1.630292   17.902278    ( 0.0000,  0.0000,  0.0000)
  46 N     -0.006179    1.598321   18.976746    ( 0.0000,  0.0000,  0.0000)

Unit cell:
           periodic     x           y           z      points  spacing
  1. axis:    yes    9.702222    0.000000    0.000000    60     0.1617
  2. axis:    yes    0.000000    9.702222    0.000000    60     0.1617
  3. axis:    no     0.000000    0.000000   24.851111   156     0.1593

  Lengths:   9.702222   9.702222  24.851111
  Angles:   90.000000  90.000000  90.000000

Effective grid spacing dv^(1/3) = 0.1609

     iter     time        total  log10-change:
                         energy  eigst   dens
iter:   1 15:55:03  -302.152460  -0.66
iter:   2 15:57:38  -302.100646  -0.90  -1.60
iter:   3 16:00:11  -302.085716  -1.41  -1.79
iter:   4 16:02:38  -302.090558c -1.63  -2.06
Writing to output.gpw (mode='')

iter:   5 16:05:08  -302.084215c -1.13  -2.05
iter:   6 16:07:41  -302.079723c -1.88  -1.92
iter:   7 16:10:13  -302.073145c -1.76  -2.00
iter:   8 16:12:45  -302.070719c -1.55  -2.25
iter:   9 16:15:30  -302.077831c -1.68  -2.39
Writing to output.gpw (mode='')

iter:  10 16:18:09  -302.073337c -2.28  -2.13
iter:  11 16:20:53  -302.074353c -2.36  -2.32
iter:  12 16:23:29  -302.077295c -1.50  -2.30
iter:  13 16:26:00  -302.068785c -1.80  -2.11
iter:  14 16:28:40  -302.069656c -2.08  -2.66
Writing to output.gpw (mode='')

iter:  15 16:31:22  -302.068937c -2.99  -2.55
iter:  16 16:33:56  -302.068981c -3.19  -2.92
iter:  17 16:36:29  -302.068887c -3.10  -3.00
iter:  18 16:39:12  -302.068879c -4.17  -3.20
iter:  19 16:41:39  -302.068894c -4.08  -3.39
Writing to output.gpw (mode='')

iter:  20 16:44:22  -302.068911c -4.46  -3.31
iter:  21 16:46:54  -302.068921c -4.31  -3.30
iter:  22 16:49:23  -302.068920c -4.39  -3.30
iter:  23 16:52:04  -302.068876c -4.22  -3.34
iter:  24 16:54:45  -302.068875c -4.33  -3.57
Writing to output.gpw (mode='')

iter:  25 16:57:26  -302.068873c -4.83  -3.81
iter:  26 17:00:07  -302.068877c -5.16  -3.88
iter:  27 17:02:41  -302.068879c -5.21  -3.99
iter:  28 17:05:24  -302.068877c -5.23  -3.99
iter:  29 17:08:04  -302.068874c -5.29  -4.16c
Writing to output.gpw (mode='')

iter:  30 17:10:39  -302.068874c -5.85  -4.29c
iter:  31 17:13:16  -302.068876c -5.82  -4.34c
iter:  32 17:15:44  -302.068876c -6.01  -4.59c
iter:  33 17:18:21  -302.068876c -6.09  -4.53c
iter:  34 17:20:55  -302.068877c -6.06  -4.69c
Writing to output.gpw (mode='')

iter:  35 17:23:45  -302.068876c -6.53  -4.69c
iter:  36 17:26:29  -302.068876c -6.33  -4.80c
iter:  37 17:28:58  -302.068876c -6.58  -4.85c
iter:  38 17:31:32  -302.068877c -6.64  -5.06c
iter:  39 17:34:07  -302.068876c -6.60  -5.04c
Writing to output.gpw (mode='')

iter:  40 17:36:47  -302.068876c -7.02  -5.21c
iter:  41 17:39:23  -302.068876c -7.08  -5.36c
iter:  42 17:41:56  -302.068876c -6.98  -5.29c
iter:  43 17:44:42  -302.068876c -6.98  -5.39c
iter:  44 17:47:25  -302.068876c -7.27  -5.50c
Writing to output.gpw (mode='')

iter:  45 17:50:09  -302.068876c -7.40c -5.50c

Converged after 45 iterations.

Dipole moment: (-17.396437, -9.977888, 0.357987) |e|*Ang

Energy contributions relative to reference atoms: (reference = -14434.854043)

Kinetic:       +185.776113
Potential:     -170.427382
External:        +0.000000
XC:            -318.044424
Entropy (-ST):   -0.150071
Local:           +0.701852
--------------------------
Free energy:   -302.143912
Extrapolated:  -302.068876

Dipole-layer corrected work functions: 3.387190, 2.699017 eV

Showing only first 2 kpts
 Kpt  Band  Eigenvalues  Occupancy
  0    31     -3.29428    1.98692
  0    32     -3.20199    1.91997
  0    33     -2.88299    0.07816
  0    34     -2.78847    0.01221

  1    31     -3.07791    1.33468
  1    32     -3.03981    0.96703
  1    33     -3.00559    0.64153
  1    34     -2.97974    0.43943


Fermi level: -3.04310

No gap

Forces in eV/Ang:
  0 Li    0.00927   -0.00094   -0.27248
  1 Li   -0.00046    0.00057   -0.27213
  2 Li   -0.00884   -0.00017   -0.27170
  3 Li    0.00004    0.00424   -0.27128
  4 Li    0.00058   -0.00358   -0.27720
  5 Li   -0.00073    0.00458   -0.27099
  6 Li   -0.00053   -0.00343   -0.27187
  7 Li   -0.00014    0.00313   -0.27833
  8 Li    0.00058   -0.00455   -0.27109
  9 Li    0.00007    0.00560    0.27654
 10 Li    0.01181   -0.00314    0.25369
 11 Li   -0.01197   -0.00370    0.25492
 12 Li    0.00010   -0.00720    0.28046
 13 Li    0.01210    0.00271    0.25342
 14 Li   -0.01228    0.00455    0.25330
 15 Li   -0.00014    0.00192    0.24844
 16 Li   -0.01707    0.00052    0.26930
 17 Li    0.01742   -0.00071    0.26542
 18 Li    0.01978   -0.00036   -0.01027
 19 Li    0.00106    0.00045    0.04750
 20 Li   -0.02063   -0.00023   -0.01503
 21 Li   -0.00947   -0.01264    0.04774
 22 Li    0.00035    0.00771    0.02986
 23 Li    0.00926   -0.01212    0.04842
 24 Li   -0.00856    0.01337    0.05146
 25 Li    0.00121   -0.00834    0.02638
 26 Li    0.00751    0.01271    0.04898
 27 Li    0.00450    0.01042    0.02173
 28 Li    0.02277   -0.01388   -0.03694
 29 Li   -0.02697   -0.01410   -0.03539
 30 Li    0.00168   -0.03108    0.06580
 31 Li    0.02725    0.01121   -0.03959
 32 Li   -0.02877    0.01330   -0.03721
 33 Li    0.00276    0.00498   -0.01738
 34 Li   -0.01150    0.00218   -0.01175
 35 Li    0.00849   -0.00009   -0.01728
 36 O     0.05660   -0.29712   11.94906
 37 C     1.14186   -0.67686    1.67692
 38 C     0.05596    0.08836    0.10658
 39 H    -0.03884   -0.03090    0.13229
 40 H     0.05908   -0.06271    0.58728
 41 H    -0.07246    0.00011   -0.05282
 42 H     0.04393   -0.01360   -0.01885
 43 H     0.02656    0.00139   -0.02644
 44 H     0.42595    1.75521    4.25828
 45 N    -0.43027    2.16457   -7.10413
 46 N    -1.29115   -2.94342  -11.57596

System changes: positions 

Initializing position-dependent things.

Density initialized from wave functions
       .-----------------------.  
      /|                       |  
     / |                       |  
    /  |                       |  
   /   |                       |  
  /    |                       |  
 *     |                       |  
 |     |                       |  
 |     |                       |  
 |H    | H                     |  
 |O H  |                       |  
 |  C  |CHH                    |  
 |  H  |       Li      Li N    |  
 |     |                       |  
 |   Li|     Li      Li   N    |  
 |     |  Li      Li      Li   |  
 | Li  |   Li      Li          |  
 |     |Li      Li      Li     |  
 Li    |                       |  
 |   LLi     LLi     LLi       |  
 |     |  Li      Li      Li   |  
 | Li  |   Li      Li          |  
 |     |Li      Li      Li     |  
 Li    | Li      Li            |  
 |    Li      Li      Li       |  
 |     |                       |  
 |     |                       |  
 |     |                       |  
 |     |                       |  
 |     |                       |  
 |     |                       |  
 |     .-----------------------.  
 |    /                       /   
 |   /                       /    
 |  /                       /     
 | /                       /      
 |/                       /       
 *-----------------------*        

Positions:
   0 Li     1.617037    1.617037   10.000000    ( 0.0000,  0.0000,  0.0000)
   1 Li     4.851111    1.617037   10.000000    ( 0.0000,  0.0000,  0.0000)
   2 Li     8.085185    1.617037   10.000000    ( 0.0000,  0.0000,  0.0000)
   3 Li     1.617037    4.851111   10.000000    ( 0.0000,  0.0000,  0.0000)
   4 Li     4.851111    4.851111   10.000000    ( 0.0000,  0.0000,  0.0000)
   5 Li     8.085185    4.851111   10.000000    ( 0.0000,  0.0000,  0.0000)
   6 Li     1.617037    8.085185   10.000000    ( 0.0000,  0.0000,  0.0000)
   7 Li     4.851111    8.085185   10.000000    ( 0.0000,  0.0000,  0.0000)
   8 Li     8.085185    8.085185   10.000000    ( 0.0000,  0.0000,  0.0000)
   9 Li     0.000000    0.000000   11.617037    ( 0.0000,  0.0000,  0.0000)
  10 Li     3.234074    0.000000   11.617037    ( 0.0000,  0.0000,  0.0000)
  11 Li     6.468148    0.000000   11.617037    ( 0.0000,  0.0000,  0.0000)
  12 Li     0.000000    3.234074   11.617037    ( 0.0000,  0.0000,  0.0000)
  13 Li     3.234074    3.234074   11.617037    ( 0.0000,  0.0000,  0.0000)
  14 Li     6.468148    3.234074   11.617037    ( 0.0000,  0.0000,  0.0000)
  15 Li     0.000000    6.468148   11.617037    ( 0.0000,  0.0000,  0.0000)
  16 Li     3.234074    6.468148   11.617037    ( 0.0000,  0.0000,  0.0000)
  17 Li     6.468148    6.468148   11.617037    ( 0.0000,  0.0000,  0.0000)
  18 Li     1.617245    1.617035   13.469610    ( 0.0000,  0.0000,  0.0000)
  19 Li     4.851121    1.617040   13.470236    ( 0.0000,  0.0000,  0.0000)
  20 Li     8.084968    1.617037   13.469567    ( 0.0000,  0.0000,  0.0000)
  21 Li     1.616940    4.850970   13.470248    ( 0.0000,  0.0000,  0.0000)
  22 Li     4.851114    4.851199   13.470032    ( 0.0000,  0.0000,  0.0000)
  23 Li     8.085281    4.850973   13.470256    ( 0.0000,  0.0000,  0.0000)
  24 Li     1.616949    8.085328   13.470269    ( 0.0000,  0.0000,  0.0000)
  25 Li     4.851122    8.085092   13.470009    ( 0.0000,  0.0000,  0.0000)
  26 Li     8.085264    8.085323   13.470243    ( 0.0000,  0.0000,  0.0000)
  27 Li     0.000044    0.000105   15.446154    ( 0.0000,  0.0000,  0.0000)
  28 Li     3.234344   -0.000158   15.445522    ( 0.0000,  0.0000,  0.0000)
  29 Li     6.467842   -0.000156   15.445543    ( 0.0000,  0.0000,  0.0000)
  30 Li     0.000020    3.233756   15.446562    ( 0.0000,  0.0000,  0.0000)
  31 Li     3.234390    3.234212   15.445493    ( 0.0000,  0.0000,  0.0000)
  32 Li     6.467814    3.234231   15.445513    ( 0.0000,  0.0000,  0.0000)
  33 Li     0.000029    6.468186   15.445747    ( 0.0000,  0.0000,  0.0000)
  34 Li     3.233950    6.468165   15.445813    ( 0.0000,  0.0000,  0.0000)
  35 Li     6.468240    6.468141   15.445757    ( 0.0000,  0.0000,  0.0000)
  36 O      0.002438    1.608217   20.558506    ( 0.0000,  0.0000,  0.0000)
  37 C      1.189194    0.797937   20.467238    ( 0.0000,  0.0000,  0.0000)
  38 C      2.467615    1.620022   20.436588    ( 0.0000,  0.0000,  0.0000)
  39 H      1.174678    0.114773   21.312613    ( 0.0000,  0.0000,  0.0000)
  40 H      1.107185    0.190445   19.553762    ( 0.0000,  0.0000,  0.0000)
  41 H      3.343080    0.966214   20.419776    ( 0.0000,  0.0000,  0.0000)
  42 H      2.501625    2.268742   19.558727    ( 0.0000,  0.0000,  0.0000)
  43 H      2.537174    2.248575   21.328290    ( 0.0000,  0.0000,  0.0000)
  44 H      0.045095    2.218236   21.257258    ( 0.0000,  0.0000,  0.0000)
  45 N     -0.003285    1.635975   17.867358    ( 0.0000,  0.0000,  0.0000)
  46 N     -0.014410    1.592284   18.939407    ( 0.0000,  0.0000,  0.0000)

Unit cell:
           periodic     x           y           z      points  spacing
  1. axis:    yes    9.702222    0.000000    0.000000    60     0.1617
  2. axis:    yes    0.000000    9.702222    0.000000    60     0.1617
  3. axis:    no     0.000000    0.000000   24.851111   156     0.1593

  Lengths:   9.702222   9.702222  24.851111
  Angles:   90.000000  90.000000  90.000000

Effective grid spacing dv^(1/3) = 0.1609

     iter     time        total  log10-change:
                         energy  eigst   dens
iter:   1 17:53:17  -303.414406  -0.63
iter:   2 17:55:49  -303.312935  -0.79  -1.51
iter:   3 17:58:26  -303.285943  -1.43  -1.71
iter:   4 18:01:00  -303.270682  -1.18  -2.02
Writing to output.gpw (mode='')

iter:   5 18:03:31  -303.270307c -0.98  -2.33
iter:   6 18:06:01  -303.269119c -1.82  -2.16
iter:   7 18:08:37  -303.268457c -1.93  -2.33
iter:   8 18:11:15  -303.270979c -1.76  -2.53
iter:   9 18:13:44  -303.268040c -2.21  -2.51
Writing to output.gpw (mode='')

iter:  10 18:16:19  -303.269383c -1.83  -2.65
iter:  11 18:18:54  -303.267949c -2.52  -2.72
iter:  12 18:21:37  -303.268187c -3.29  -2.93
iter:  13 18:24:15  -303.269136c -2.40  -2.87
iter:  14 18:26:46  -303.267893c -2.44  -2.86
Writing to output.gpw (mode='')

iter:  15 18:29:22  -303.268018c -2.79  -3.10
iter:  16 18:31:57  -303.268008c -3.63  -3.12
iter:  17 18:34:30  -303.267977c -3.85  -3.40
iter:  18 18:37:09  -303.267959c -3.73  -3.49
iter:  19 18:39:42  -303.268020c -3.44  -3.49
Writing to output.gpw (mode='')

iter:  20 18:42:06  -303.268007c -3.61  -3.46
iter:  21 18:44:32  -303.267981c -4.47  -3.49
iter:  22 18:47:02  -303.267988c -3.82  -3.71
iter:  23 18:49:33  -303.267983c -4.79  -3.71
iter:  24 18:52:05  -303.267971c -4.69  -3.75
Writing to output.gpw (mode='')

iter:  25 18:54:43  -303.267970c -4.38  -4.03c
iter:  26 18:57:21  -303.267967c -5.25  -4.07c
iter:  27 18:59:53  -303.267963c -5.19  -4.11c
iter:  28 19:02:33  -303.267965c -5.73  -4.28c
iter:  29 19:05:07  -303.267967c -5.44  -4.27c
Writing to output.gpw (mode='')

iter:  30 19:07:47  -303.267966c -5.86  -4.31c
iter:  31 19:10:27  -303.267967c -5.48  -4.49c
iter:  32 19:13:06  -303.267968c -5.76  -4.60c
iter:  33 19:15:38  -303.267967c -6.21  -4.44c
iter:  34 19:18:15  -303.267967c -5.91  -4.53c
Writing to output.gpw (mode='')

iter:  35 19:20:57  -303.267967c -5.97  -4.72c
iter:  36 19:23:31  -303.267967c -6.62  -4.87c
iter:  37 19:26:07  -303.267967c -6.75  -5.01c
iter:  38 19:28:45  -303.267967c -6.67  -5.08c
iter:  39 19:31:15  -303.267967c -6.87  -5.23c
Writing to output.gpw (mode='')

iter:  40 19:33:45  -303.267967c -7.06  -5.29c
iter:  41 19:36:23  -303.267967c -7.33  -5.40c
iter:  42 19:38:49  -303.267967c -7.19  -5.42c
iter:  43 19:41:17  -303.267967c -7.26  -5.44c
iter:  44 19:43:46  -303.267967c -7.56c -5.62c

Converged after 44 iterations.

Dipole moment: (-16.886794, -9.937752, 0.369528) |e|*Ang

Energy contributions relative to reference atoms: (reference = -14434.854043)

Kinetic:       +182.439326
Potential:     -168.414073
External:        +0.000000
XC:            -317.928429
Entropy (-ST):   -0.149857
Local:           +0.710138
--------------------------
Free energy:   -303.342895
Extrapolated:  -303.267967

Dipole-layer corrected work functions: 3.387029, 2.676671 eV

Showing only first 2 kpts
 Kpt  Band  Eigenvalues  Occupancy
  0    31     -3.28305    1.98693
  0    32     -3.19066    1.91986
  0    33     -2.87111    0.07723
  0    34     -2.77724    0.01221

  1    31     -3.06652    1.33340
  1    32     -3.02844    0.96596
  1    33     -2.99482    0.64577
  1    34     -2.96787    0.43522


Fermi level: -3.03185

No gap
Writing to output.gpw (mode='')


Forces in eV/Ang:
  0 Li    0.00929   -0.00084   -0.27243
  1 Li   -0.00030    0.00047   -0.27202
  2 Li   -0.00899   -0.00010   -0.27167
  3 Li   -0.00001    0.00431   -0.27118
  4 Li    0.00050   -0.00349   -0.27731
  5 Li   -0.00061    0.00444   -0.27088
  6 Li   -0.00043   -0.00357   -0.27180
  7 Li   -0.00020    0.00316   -0.27822
  8 Li    0.00051   -0.00446   -0.27104
  9 Li    0.00009    0.00602    0.27706
 10 Li    0.01218   -0.00340    0.25350
 11 Li   -0.01239   -0.00383    0.25458
 12 Li    0.00010   -0.00738    0.28035
 13 Li    0.01239    0.00299    0.25337
 14 Li   -0.01262    0.00463    0.25317
 15 Li   -0.00013    0.00171    0.24845
 16 Li   -0.01755    0.00045    0.26942
 17 Li    0.01792   -0.00070    0.26586
 18 Li    0.02049   -0.00031   -0.01186
 19 Li    0.00087    0.00032    0.04716
 20 Li   -0.02123   -0.00018   -0.01533
 21 Li   -0.00966   -0.01316    0.04849
 22 Li    0.00033    0.00817    0.02891
 23 Li    0.00951   -0.01275    0.04914
 24 Li   -0.00873    0.01367    0.05132
 25 Li    0.00112   -0.00871    0.02616
 26 Li    0.00780    0.01314    0.04897
 27 Li    0.00454    0.01036    0.01908
 28 Li    0.02407   -0.01450   -0.03780
 29 Li   -0.02762   -0.01426   -0.03643
 30 Li    0.00199   -0.03149    0.06018
 31 Li    0.02852    0.01226   -0.04060
 32 Li   -0.02966    0.01380   -0.03845
 33 Li    0.00278    0.00406   -0.01701
 34 Li   -0.01175    0.00189   -0.01154
 35 Li    0.00872   -0.00025   -0.01691
 36 O    -0.01057   -0.37383    9.89913
 37 C     0.98504   -0.64528    1.57562
 38 C     0.02522    0.11800    0.12285
 39 H     0.10117   -0.13238    0.14093
 40 H     0.00576    0.04578    0.66018
 41 H    -0.04038   -0.01503   -0.05018
 42 H     0.03285   -0.01850   -0.00693
 43 H     0.04830    0.00814   -0.02588
 44 H     0.53134    1.38477    3.43121
 45 N    -0.23189    1.80677   -6.86334
 46 N    -1.46322   -2.10668   -8.99758

System changes: positions 

Initializing position-dependent things.

Density initialized from wave functions
       .-----------------------.  
      /|                       |  
     / |                       |  
    /  |                       |  
   /   |                       |  
  /    |                       |  
 *     |                       |  
 |     |                       |  
 |     |                       |  
 | H   | H                     |  
 |O H  |                       |  
 |  C  |CHH                    |  
 |  H  |       Li      Li N    |  
 |     |                       |  
 |   Li|     Li      Li   N    |  
 |     |  Li      Li      Li   |  
 | Li  |   Li      Li          |  
 |     |Li      Li      Li     |  
 Li    |                       |  
 |   LLi     LLi     LLi       |  
 |     |  Li      Li      Li   |  
 | Li  |   Li      Li          |  
 |     |Li      Li      Li     |  
 Li    | Li      Li            |  
 |    Li      Li      Li       |  
 |     |                       |  
 |     |                       |  
 |     |                       |  
 |     |                       |  
 |     |                       |  
 |     |                       |  
 |     .-----------------------.  
 |    /                       /   
 |   /                       /    
 |  /                       /     
 | /                       /      
 |/                       /       
 *-----------------------*        

Positions:
   0 Li     1.617037    1.617037   10.000000    ( 0.0000,  0.0000,  0.0000)
   1 Li     4.851111    1.617037   10.000000    ( 0.0000,  0.0000,  0.0000)
   2 Li     8.085185    1.617037   10.000000    ( 0.0000,  0.0000,  0.0000)
   3 Li     1.617037    4.851111   10.000000    ( 0.0000,  0.0000,  0.0000)
   4 Li     4.851111    4.851111   10.000000    ( 0.0000,  0.0000,  0.0000)
   5 Li     8.085185    4.851111   10.000000    ( 0.0000,  0.0000,  0.0000)
   6 Li     1.617037    8.085185   10.000000    ( 0.0000,  0.0000,  0.0000)
   7 Li     4.851111    8.085185   10.000000    ( 0.0000,  0.0000,  0.0000)
   8 Li     8.085185    8.085185   10.000000    ( 0.0000,  0.0000,  0.0000)
   9 Li     0.000000    0.000000   11.617037    ( 0.0000,  0.0000,  0.0000)
  10 Li     3.234074    0.000000   11.617037    ( 0.0000,  0.0000,  0.0000)
  11 Li     6.468148    0.000000   11.617037    ( 0.0000,  0.0000,  0.0000)
  12 Li     0.000000    3.234074   11.617037    ( 0.0000,  0.0000,  0.0000)
  13 Li     3.234074    3.234074   11.617037    ( 0.0000,  0.0000,  0.0000)
  14 Li     6.468148    3.234074   11.617037    ( 0.0000,  0.0000,  0.0000)
  15 Li     0.000000    6.468148   11.617037    ( 0.0000,  0.0000,  0.0000)
  16 Li     3.234074    6.468148   11.617037    ( 0.0000,  0.0000,  0.0000)
  17 Li     6.468148    6.468148   11.617037    ( 0.0000,  0.0000,  0.0000)
  18 Li     1.617408    1.617035   13.469487    ( 0.0000,  0.0000,  0.0000)
  19 Li     4.851125    1.617039   13.470590    ( 0.0000,  0.0000,  0.0000)
  20 Li     8.084801    1.617036   13.469437    ( 0.0000,  0.0000,  0.0000)
  21 Li     1.616865    4.850860   13.470628    ( 0.0000,  0.0000,  0.0000)
  22 Li     4.851116    4.851269   13.470229    ( 0.0000,  0.0000,  0.0000)
  23 Li     8.085355    4.850864   13.470641    ( 0.0000,  0.0000,  0.0000)
  24 Li     1.616882    8.085437   13.470649    ( 0.0000,  0.0000,  0.0000)
  25 Li     4.851129    8.085021   13.470203    ( 0.0000,  0.0000,  0.0000)
  26 Li     8.085326    8.085431   13.470607    ( 0.0000,  0.0000,  0.0000)
  27 Li     0.000077    0.000201   15.446307    ( 0.0000,  0.0000,  0.0000)
  28 Li     3.234559   -0.000281   15.445214    ( 0.0000,  0.0000,  0.0000)
  29 Li     6.467611   -0.000272   15.445244    ( 0.0000,  0.0000,  0.0000)
  30 Li     0.000039    3.233492   15.446962    ( 0.0000,  0.0000,  0.0000)
  31 Li     3.234637    3.234328   15.445161    ( 0.0000,  0.0000,  0.0000)
  32 Li     6.467560    3.234352   15.445190    ( 0.0000,  0.0000,  0.0000)
  33 Li     0.000050    6.468197   15.445615    ( 0.0000,  0.0000,  0.0000)
  34 Li     3.233856    6.468173   15.445728    ( 0.0000,  0.0000,  0.0000)
  35 Li     6.468311    6.468134   15.445635    ( 0.0000,  0.0000,  0.0000)
  36 O      0.003345    1.596170   20.593349    ( 0.0000,  0.0000,  0.0000)
  37 C      1.189977    0.798379   20.477432    ( 0.0000,  0.0000,  0.0000)
  38 C      2.467873    1.620396   20.437418    ( 0.0000,  0.0000,  0.0000)
  39 H      1.178031    0.111149   21.314719    ( 0.0000,  0.0000,  0.0000)
  40 H      1.106164    0.192437   19.559593    ( 0.0000,  0.0000,  0.0000)
  41 H      3.343393    0.966193   20.419489    ( 0.0000,  0.0000,  0.0000)
  42 H      2.501583    2.268502   19.558826    ( 0.0000,  0.0000,  0.0000)
  43 H      2.537825    2.248857   21.328401    ( 0.0000,  0.0000,  0.0000)
  44 H      0.051757    2.227493   21.275957    ( 0.0000,  0.0000,  0.0000)
  45 N     -0.002043    1.642445   17.827905    ( 0.0000,  0.0000,  0.0000)
  46 N     -0.027765    1.590068   18.905869    ( 0.0000,  0.0000,  0.0000)

Unit cell:
           periodic     x           y           z      points  spacing
  1. axis:    yes    9.702222    0.000000    0.000000    60     0.1617
  2. axis:    yes    0.000000    9.702222    0.000000    60     0.1617
  3. axis:    no     0.000000    0.000000   24.851111   156     0.1593

  Lengths:   9.702222   9.702222  24.851111
  Angles:   90.000000  90.000000  90.000000

Effective grid spacing dv^(1/3) = 0.1609

     iter     time        total  log10-change:
                         energy  eigst   dens
iter:   1 19:46:58  -304.315280  -0.71
iter:   2 19:49:30  -304.267839  -1.03  -1.65
iter:   3 19:52:00  -304.254709  -1.63  -1.85
iter:   4 19:54:27  -304.248196c -1.60  -2.13
Writing to output.gpw (mode='')

iter:   5 19:56:59  -304.241155c -1.09  -2.26
iter:   6 19:59:31  -304.242407c -1.77  -2.27
iter:   7 20:01:59  -304.240925c -2.22  -2.31
iter:   8 20:04:39  -304.240725c -2.11  -2.50
iter:   9 20:07:09  -304.240581c -2.32  -2.58
Writing to output.gpw (mode='')

iter:  10 20:09:43  -304.240804c -2.66  -2.83
iter:  11 20:12:18  -304.241534c -2.47  -2.87
iter:  12 20:14:50  -304.240662c -2.80  -2.79
iter:  13 20:17:30  -304.240397c -2.79  -2.81
iter:  14 20:20:00  -304.240481c -3.03  -2.89
Writing to output.gpw (mode='')

iter:  15 20:22:37  -304.240415c -3.18  -2.85
iter:  16 20:25:18  -304.240425c -3.64  -3.12
iter:  17 20:27:53  -304.240473c -3.72  -3.19
iter:  18 20:30:29  -304.240271c -3.86  -3.15
iter:  19 20:32:57  -304.240416c -2.90  -3.33
Writing to output.gpw (mode='')

iter:  20 20:35:35  -304.240297c -4.13  -3.08
iter:  21 20:38:10  -304.240261c -3.57  -3.33
iter:  22 20:40:43  -304.240252c -4.48  -3.47
iter:  23 20:43:19  -304.240264c -4.25  -3.54
iter:  24 20:45:53  -304.240242c -4.65  -3.52
Writing to output.gpw (mode='')

iter:  25 20:48:32  -304.240260c -3.87  -3.71
iter:  26 20:51:09  -304.240260c -3.80  -3.52
iter:  27 20:53:48  -304.240249c -4.87  -3.53
iter:  28 20:56:19  -304.240236c -4.99  -3.69
iter:  29 20:58:54  -304.240236c -4.85  -4.03c
Writing to output.gpw (mode='')

iter:  30 21:01:33  -304.240238c -4.66  -4.20c
iter:  31 21:04:08  -304.240236c -5.74  -4.23c
iter:  32 21:06:43  -304.240236c -6.23  -4.38c
iter:  33 21:09:14  -304.240236c -6.43  -4.38c
iter:  34 21:11:48  -304.240235c -6.18  -4.42c
Writing to output.gpw (mode='')

iter:  35 21:14:24  -304.240239c -5.33  -4.55c
iter:  36 21:17:05  -304.240234c -5.49  -4.14c
iter:  37 21:19:42  -304.240235c -6.74  -4.53c
iter:  38 21:22:09  -304.240234c -5.55  -4.36c
iter:  39 21:24:37  -304.240234c -5.90  -4.56c
Writing to output.gpw (mode='')

iter:  40 21:27:20  -304.240234c -6.64  -4.55c
iter:  41 21:29:50  -304.240234c -6.71  -4.82c
iter:  42 21:32:22  -304.240235c -6.68  -4.91c
iter:  43 21:35:00  -304.240235c -7.07  -4.95c
iter:  44 21:37:42  -304.240235c -6.67  -5.10c
Writing to output.gpw (mode='')

iter:  45 21:40:27  -304.240235c -7.34  -5.33c
iter:  46 21:43:01  -304.240235c -7.64c -5.45c

Converged after 46 iterations.

Dipole moment: (-15.862122, -9.902055, 0.367851) |e|*Ang

Energy contributions relative to reference atoms: (reference = -14434.854043)

Kinetic:       +177.772638
Potential:     -165.232890
External:        +0.000000
XC:            -317.422743
Entropy (-ST):   -0.149591
Local:           +0.717557
--------------------------
Free energy:   -304.315030
Extrapolated:  -304.240235

Dipole-layer corrected work functions: 3.387285, 2.680148 eV

Showing only first 2 kpts
 Kpt  Band  Eigenvalues  Occupancy
  0    31     -3.28475    1.98689
  0    32     -3.19194    1.91896
  0    33     -2.87276    0.07690
  0    34     -2.77900    0.01219

  1    31     -3.06868    1.33607
  1    32     -3.03018    0.96464
  1    33     -2.99749    0.65276
  1    34     -2.96845    0.42656


Fermi level: -3.03372

No gap
Writing to output.gpw (mode='')


Forces in eV/Ang:
  0 Li    0.00940   -0.00082   -0.27245
  1 Li   -0.00009    0.00043   -0.27183
  2 Li   -0.00925   -0.00011   -0.27166
  3 Li    0.00009    0.00449   -0.27113
  4 Li    0.00039   -0.00332   -0.27754
  5 Li   -0.00066    0.00437   -0.27078
  6 Li   -0.00026   -0.00379   -0.27178
  7 Li   -0.00028    0.00311   -0.27839
  8 Li    0.00037   -0.00439   -0.27100
  9 Li    0.00009    0.00645    0.27788
 10 Li    0.01270   -0.00377    0.25332
 11 Li   -0.01300   -0.00404    0.25432
 12 Li    0.00013   -0.00775    0.28105
 13 Li    0.01283    0.00338    0.25332
 14 Li   -0.01316    0.00484    0.25306
 15 Li   -0.00014    0.00173    0.24842
 16 Li   -0.01829    0.00042    0.26961
 17 Li    0.01876   -0.00072    0.26624
 18 Li    0.02156   -0.00031   -0.01432
 19 Li    0.00062    0.00025    0.04648
 20 Li   -0.02210   -0.00016   -0.01597
 21 Li   -0.01006   -0.01354    0.04872
 22 Li    0.00033    0.00851    0.02806
 23 Li    0.00998   -0.01325    0.04935
 24 Li   -0.00899    0.01396    0.05100
 25 Li    0.00109   -0.00902    0.02572
 26 Li    0.00817    0.01350    0.04874
 27 Li    0.00466    0.01113    0.01765
 28 Li    0.02485   -0.01502   -0.03796
 29 Li   -0.02742   -0.01400   -0.03659
 30 Li    0.00245   -0.03418    0.05919
 31 Li    0.02935    0.01305   -0.04084
 32 Li   -0.02963    0.01372   -0.03862
 33 Li    0.00288    0.00344   -0.01656
 34 Li   -0.01184    0.00168   -0.01131
 35 Li    0.00866   -0.00034   -0.01659
 36 O    -0.02412   -0.54168    8.06906
 37 C     0.81440   -0.51032    1.34569
 38 C     0.03651    0.08445    0.13383
 39 H     0.21772   -0.26795    0.23367
 40 H    -0.04158    0.10618    0.66998
 41 H    -0.03937   -0.00238   -0.04555
 42 H     0.01106   -0.02331   -0.00065
 43 H     0.07048    0.03199   -0.00318
 44 H     0.59932    1.14962    2.79308
 45 N    -0.04808    1.46884   -5.45895
 46 N    -1.59360   -1.49722   -7.86708

System changes: positions 

Initializing position-dependent things.

Density initialized from wave functions
       .-----------------------.  
      /|                       |  
     / |                       |  
    /  |                       |  
   /   |                       |  
  /    |                       |  
 *     |                       |  
 |     |                       |  
 |     |                       |  
 | H   | H                     |  
 |O H  |                       |  
 |  C  |CHH                    |  
 |  H  |       Li      Li N    |  
 |     |                       |  
 |N  Li|     Li      Li        |  
 |     |  Li      Li      Li   |  
 | Li  |   Li      Li          |  
 |     |Li      Li      Li     |  
 Li    |                       |  
 |   LLi     LLi     LLi       |  
 |     |  Li      Li      Li   |  
 | Li  |   Li      Li          |  
 |     |Li      Li      Li     |  
 Li    | Li      Li            |  
 |    Li      Li      Li       |  
 |     |                       |  
 |     |                       |  
 |     |                       |  
 |     |                       |  
 |     |                       |  
 |     |                       |  
 |     .-----------------------.  
 |    /                       /   
 |   /                       /    
 |  /                       /     
 | /                       /      
 |/                       /       
 *-----------------------*        

Positions:
   0 Li     1.617037    1.617037   10.000000    ( 0.0000,  0.0000,  0.0000)
   1 Li     4.851111    1.617037   10.000000    ( 0.0000,  0.0000,  0.0000)
   2 Li     8.085185    1.617037   10.000000    ( 0.0000,  0.0000,  0.0000)
   3 Li     1.617037    4.851111   10.000000    ( 0.0000,  0.0000,  0.0000)
   4 Li     4.851111    4.851111   10.000000    ( 0.0000,  0.0000,  0.0000)
   5 Li     8.085185    4.851111   10.000000    ( 0.0000,  0.0000,  0.0000)
   6 Li     1.617037    8.085185   10.000000    ( 0.0000,  0.0000,  0.0000)
   7 Li     4.851111    8.085185   10.000000    ( 0.0000,  0.0000,  0.0000)
   8 Li     8.085185    8.085185   10.000000    ( 0.0000,  0.0000,  0.0000)
   9 Li     0.000000    0.000000   11.617037    ( 0.0000,  0.0000,  0.0000)
  10 Li     3.234074    0.000000   11.617037    ( 0.0000,  0.0000,  0.0000)
  11 Li     6.468148    0.000000   11.617037    ( 0.0000,  0.0000,  0.0000)
  12 Li     0.000000    3.234074   11.617037    ( 0.0000,  0.0000,  0.0000)
  13 Li     3.234074    3.234074   11.617037    ( 0.0000,  0.0000,  0.0000)
  14 Li     6.468148    3.234074   11.617037    ( 0.0000,  0.0000,  0.0000)
  15 Li     0.000000    6.468148   11.617037    ( 0.0000,  0.0000,  0.0000)
  16 Li     3.234074    6.468148   11.617037    ( 0.0000,  0.0000,  0.0000)
  17 Li     6.468148    6.468148   11.617037    ( 0.0000,  0.0000,  0.0000)
  18 Li     1.617629    1.617033   13.469305    ( 0.0000,  0.0000,  0.0000)
  19 Li     4.851127    1.617038   13.471035    ( 0.0000,  0.0000,  0.0000)
  20 Li     8.084577    1.617036   13.469267    ( 0.0000,  0.0000,  0.0000)
  21 Li     1.616764    4.850717   13.471117    ( 0.0000,  0.0000,  0.0000)
  22 Li     4.851119    4.851361   13.470475    ( 0.0000,  0.0000,  0.0000)
  23 Li     8.085456    4.850720   13.471135    ( 0.0000,  0.0000,  0.0000)
  24 Li     1.616792    8.085578   13.471134    ( 0.0000,  0.0000,  0.0000)
  25 Li     4.851137    8.084926   13.470447    ( 0.0000,  0.0000,  0.0000)
  26 Li     8.085410    8.085571   13.471072    ( 0.0000,  0.0000,  0.0000)
  27 Li     0.000120    0.000324   15.446468    ( 0.0000,  0.0000,  0.0000)
  28 Li     3.234839   -0.000444   15.444820    ( 0.0000,  0.0000,  0.0000)
  29 Li     6.467324   -0.000414   15.444865    ( 0.0000,  0.0000,  0.0000)
  30 Li     0.000070    3.233128   15.447462    ( 0.0000,  0.0000,  0.0000)
  31 Li     3.234958    3.234482   15.444737    ( 0.0000,  0.0000,  0.0000)
  32 Li     6.467243    3.234500   15.444782    ( 0.0000,  0.0000,  0.0000)
  33 Li     0.000079    6.468207   15.445454    ( 0.0000,  0.0000,  0.0000)
  34 Li     3.233736    6.468183   15.445622    ( 0.0000,  0.0000,  0.0000)
  35 Li     6.468400    6.468125   15.445481    ( 0.0000,  0.0000,  0.0000)
  36 O      0.004130    1.581599   20.624907    ( 0.0000,  0.0000,  0.0000)
  37 C      1.190387    0.799410   20.487537    ( 0.0000,  0.0000,  0.0000)
  38 C      2.468398    1.620475   20.438667    ( 0.0000,  0.0000,  0.0000)
  39 H      1.183264    0.105265   21.318508    ( 0.0000,  0.0000,  0.0000)
  40 H      1.104506    0.195330   19.566896    ( 0.0000,  0.0000,  0.0000)
  41 H      3.343597    0.966356   20.419162    ( 0.0000,  0.0000,  0.0000)
  42 H      2.501289    2.268158   19.558995    ( 0.0000,  0.0000,  0.0000)
  43 H      2.538901    2.249522   21.328807    ( 0.0000,  0.0000,  0.0000)
  44 H      0.060427    2.235733   21.292258    ( 0.0000,  0.0000,  0.0000)
  45 N      0.001380    1.647892   17.791750    ( 0.0000,  0.0000,  0.0000)
  46 N     -0.046100    1.592076   18.870376    ( 0.0000,  0.0000,  0.0000)

Unit cell:
           periodic     x           y           z      points  spacing
  1. axis:    yes    9.702222    0.000000    0.000000    60     0.1617
  2. axis:    yes    0.000000    9.702222    0.000000    60     0.1617
  3. axis:    no     0.000000    0.000000   24.851111   156     0.1593

  Lengths:   9.702222   9.702222  24.851111
  Angles:   90.000000  90.000000  90.000000

Effective grid spacing dv^(1/3) = 0.1609

     iter     time        total  log10-change:
                         energy  eigst   dens
iter:   1 21:46:16  -305.121433  -0.72
iter:   2 21:48:56  -305.057255  -1.00  -1.61
iter:   3 21:51:24  -305.040313  -1.63  -1.82
iter:   4 21:54:01  -305.028762c -1.43  -2.11
Writing to output.gpw (mode='')

iter:   5 21:56:37  -305.025010c -1.12  -2.37
iter:   6 21:59:04  -305.026274c -1.85  -2.24
iter:   7 22:01:36  -305.026448c -2.19  -2.27
iter:   8 22:04:07  -305.024160c -2.38  -2.29
iter:   9 22:06:51  -305.024364c -2.22  -2.56
Writing to output.gpw (mode='')

iter:  10 22:09:36  -305.024438c -2.57  -2.63
iter:  11 22:12:12  -305.023982c -2.92  -2.68
iter:  12 22:14:45  -305.024059c -3.12  -3.10
iter:  13 22:17:16  -305.024104c -3.29  -3.10
iter:  14 22:19:52  -305.023997c -3.17  -3.10
Writing to output.gpw (mode='')

iter:  15 22:22:25  -305.024007c -4.17  -3.26
iter:  16 22:24:57  -305.024009c -4.05  -3.38
iter:  17 22:27:32  -305.024023c -3.94  -3.55
iter:  18 22:30:08  -305.024020c -4.41  -3.69
iter:  19 22:32:47  -305.024027c -4.42  -3.70
Writing to output.gpw (mode='')

iter:  20 22:35:22  -305.024024c -4.74  -3.84
iter:  21 22:37:54  -305.024036c -4.22  -3.85
iter:  22 22:40:25  -305.024053c -3.90  -3.78
iter:  23 22:42:58  -305.024028c -4.56  -3.68
iter:  24 22:45:31  -305.024030c -4.04  -3.87
Writing to output.gpw (mode='')

iter:  25 22:48:05  -305.024030c -5.08  -4.03c
iter:  26 22:50:39  -305.024029c -4.92  -4.08c
iter:  27 22:53:15  -305.024029c -5.69  -4.12c
iter:  28 22:55:45  -305.024031c -5.08  -4.24c
iter:  29 22:58:23  -305.024030c -5.54  -4.42c
Writing to output.gpw (mode='')

iter:  30 23:00:58  -305.024031c -5.10  -4.56c
iter:  31 23:03:36  -305.024030c -5.58  -4.27c
iter:  32 23:06:11  -305.024030c -5.36  -4.51c
iter:  33 23:08:54  -305.024031c -6.15  -4.69c
iter:  34 23:11:29  -305.024031c -5.85  -4.65c
Writing to output.gpw (mode='')

iter:  35 23:14:01  -305.024031c -6.72  -4.57c
iter:  36 23:16:43  -305.024031c -6.88  -4.64c
iter:  37 23:19:24  -305.024031c -5.83  -4.66c
iter:  38 23:22:00  -305.024030c -6.14  -4.70c
iter:  39 23:24:37  -305.024031c -6.06  -4.98c
Writing to output.gpw (mode='')

iter:  40 23:27:15  -305.024031c -6.72  -4.95c
iter:  41 23:29:54  -305.024031c -6.99  -4.99c
iter:  42 23:32:27  -305.024031c -7.33  -5.07c
iter:  43 23:35:04  -305.024031c -7.05  -5.10c
iter:  44 23:37:35  -305.024031c -7.60c -5.23c

Converged after 44 iterations.

Dipole moment: (-14.510577, -9.850405, 0.354985) |e|*Ang

Energy contributions relative to reference atoms: (reference = -14434.854043)

Kinetic:       +174.231351
Potential:     -162.859101
External:        +0.000000
XC:            -317.045145
Entropy (-ST):   -0.149337
Local:           +0.723533
--------------------------
Free energy:   -305.098699
Extrapolated:  -305.024031

Dipole-layer corrected work functions: 3.387766, 2.705364 eV

Showing only first 2 kpts
 Kpt  Band  Eigenvalues  Occupancy
  0    31     -3.29740    1.98683
  0    32     -3.20423    1.91808
  0    33     -2.88530    0.07646
  0    34     -2.79172    0.01216

  1    31     -3.08181    1.33855
  1    32     -3.04284    0.96273
  1    33     -3.01108    0.65933
  1    34     -2.98012    0.41868


Fermi level: -3.04657

No gap
Writing to output.gpw (mode='')


Forces in eV/Ang:
  0 Li    0.00948   -0.00080   -0.27249
  1 Li    0.00020    0.00038   -0.27168
  2 Li   -0.00955   -0.00011   -0.27165
  3 Li    0.00020    0.00474   -0.27113
  4 Li    0.00025   -0.00319   -0.27781
  5 Li   -0.00070    0.00425   -0.27072
  6 Li   -0.00010   -0.00406   -0.27180
  7 Li   -0.00040    0.00307   -0.27861
  8 Li    0.00025   -0.00426   -0.27098
  9 Li    0.00009    0.00684    0.27865
 10 Li    0.01322   -0.00422    0.25318
 11 Li   -0.01363   -0.00424    0.25412
 12 Li    0.00017   -0.00808    0.28168
 13 Li    0.01327    0.00381    0.25330
 14 Li   -0.01376    0.00503    0.25298
 15 Li   -0.00017    0.00172    0.24853
 16 Li   -0.01904    0.00042    0.26987
 17 Li    0.01965   -0.00075    0.26675
 18 Li    0.02249   -0.00032   -0.01667
 19 Li    0.00024    0.00017    0.04546
 20 Li   -0.02271   -0.00010   -0.01570
 21 Li   -0.01038   -0.01381    0.04870
 22 Li    0.00034    0.00883    0.02705
 23 Li    0.01042   -0.01367    0.04930
 24 Li   -0.00921    0.01416    0.05052
 25 Li    0.00109   -0.00932    0.02511
 26 Li    0.00852    0.01377    0.04832
 27 Li    0.00475    0.01098    0.01385
 28 Li    0.02565   -0.01559   -0.03803
 29 Li   -0.02676   -0.01340   -0.03653
 30 Li    0.00311   -0.03522    0.05471
 31 Li    0.03014    0.01388   -0.04094
 32 Li   -0.02895    0.01327   -0.03847
 33 Li    0.00304    0.00286   -0.01577
 34 Li   -0.01196    0.00146   -0.01087
 35 Li    0.00854   -0.00039   -0.01605
 36 O    -0.10768   -0.41702    6.58346
 37 C     0.71114   -0.51328    1.19001
 38 C     0.02183    0.09411    0.13783
 39 H     0.32206   -0.32961    0.25052
 40 H    -0.07814    0.13680    0.63361
 41 H    -0.03041   -0.00410   -0.04023
 42 H    -0.00595   -0.03180    0.01361
 43 H     0.09184    0.04794    0.01105
 44 H     0.61632    0.88008    2.16929
 45 N     0.13729    1.13420   -4.85440
 46 N    -1.73780   -1.03256   -6.16400

System changes: positions 

Initializing position-dependent things.

Density initialized from wave functions
       .-----------------------.  
      /|                       |  
     / |                       |  
    /  |                       |  
   /   |                       |  
  /    |                       |  
 *     |                       |  
 |     |                       |  
 |     |                       |  
 | H   | H                     |  
 |O H  |C                      |  
 |  C  | HH                    |  
 |  H  |       Li      Li      |  
 |     |                  N    |  
 |N  Li|     Li      Li        |  
 |     |  Li      Li      Li   |  
 | Li  |   Li      Li          |  
 |     |Li      Li      Li     |  
 Li    |                       |  
 |   LLi     LLi     LLi       |  
 |     |  Li      Li      Li   |  
 | Li  |   Li      Li          |  
 |     |Li      Li      Li     |  
 Li    | Li      Li            |  
 |    Li      Li      Li       |  
 |     |                       |  
 |     |                       |  
 |     |                       |  
 |     |                       |  
 |     |                       |  
 |     |                       |  
 |     .-----------------------.  
 |    /                       /   
 |   /                       /    
 |  /                       /     
 | /                       /      
 |/                       /       
 *-----------------------*        

Positions:
   0 Li     1.617037    1.617037   10.000000    ( 0.0000,  0.0000,  0.0000)
   1 Li     4.851111    1.617037   10.000000    ( 0.0000,  0.0000,  0.0000)
   2 Li     8.085185    1.617037   10.000000    ( 0.0000,  0.0000,  0.0000)
   3 Li     1.617037    4.851111   10.000000    ( 0.0000,  0.0000,  0.0000)
   4 Li     4.851111    4.851111   10.000000    ( 0.0000,  0.0000,  0.0000)
   5 Li     8.085185    4.851111   10.000000    ( 0.0000,  0.0000,  0.0000)
   6 Li     1.617037    8.085185   10.000000    ( 0.0000,  0.0000,  0.0000)
   7 Li     4.851111    8.085185   10.000000    ( 0.0000,  0.0000,  0.0000)
   8 Li     8.085185    8.085185   10.000000    ( 0.0000,  0.0000,  0.0000)
   9 Li     0.000000    0.000000   11.617037    ( 0.0000,  0.0000,  0.0000)
  10 Li     3.234074    0.000000   11.617037    ( 0.0000,  0.0000,  0.0000)
  11 Li     6.468148    0.000000   11.617037    ( 0.0000,  0.0000,  0.0000)
  12 Li     0.000000    3.234074   11.617037    ( 0.0000,  0.0000,  0.0000)
  13 Li     3.234074    3.234074   11.617037    ( 0.0000,  0.0000,  0.0000)
  14 Li     6.468148    3.234074   11.617037    ( 0.0000,  0.0000,  0.0000)
  15 Li     0.000000    6.468148   11.617037    ( 0.0000,  0.0000,  0.0000)
  16 Li     3.234074    6.468148   11.617037    ( 0.0000,  0.0000,  0.0000)
  17 Li     6.468148    6.468148   11.617037    ( 0.0000,  0.0000,  0.0000)
  18 Li     1.617906    1.617031   13.469063    ( 0.0000,  0.0000,  0.0000)
  19 Li     4.851125    1.617036   13.471553    ( 0.0000,  0.0000,  0.0000)
  20 Li     8.084301    1.617036   13.469070    ( 0.0000,  0.0000,  0.0000)
[...]
Writing to output.gpw (mode='')

iter:  20 07:39:40  -308.766731c -6.59  -4.79c
iter:  21 07:40:34  -308.766730c -6.75  -4.82c
iter:  22 07:41:28  -308.766730c -6.93  -4.93c
iter:  23 07:42:21  -308.766731c -7.13  -5.02c
iter:  24 07:43:14  -308.766731c -7.24  -5.18c
Writing to output.gpw (mode='')

iter:  25 07:44:10  -308.766731c -7.46c -5.18c

Converged after 25 iterations.

Dipole moment: (1.037263, -10.610487, 0.163013) |e|*Ang

Energy contributions relative to reference atoms: (reference = -14434.854043)

Kinetic:       +149.784345
Potential:     -145.431913
External:        +0.000000
XC:            -313.802653
Entropy (-ST):   -0.148771
Local:           +0.757875
--------------------------
Free energy:   -308.841116
Extrapolated:  -308.766731

Dipole-layer corrected work functions: 3.401414, 3.088047 eV

Showing only first 2 kpts
 Kpt  Band  Eigenvalues  Occupancy
  0    31     -3.49268    1.98606
  0    32     -3.42759    1.94969
  0    33     -3.06946    0.05831
  0    34     -3.02949    0.02665

  1    31     -3.27998    1.33862
  1    32     -3.22826    0.83676
  1    33     -3.21021    0.66788
  1    34     -3.16800    0.35462


Fermi level: -3.24473

No gap

Forces in eV/Ang:
  0 Li    0.01531   -0.00062   -0.26582
  1 Li   -0.00765   -0.00159   -0.27509
  2 Li   -0.01026   -0.00153   -0.26476
  3 Li    0.00060    0.00522   -0.27907
  4 Li   -0.00027   -0.00230   -0.27620
  5 Li    0.00060    0.01289   -0.27791
  6 Li   -0.00041   -0.00617   -0.26929
  7 Li    0.00008   -0.00209   -0.28944
  8 Li    0.00025   -0.01364   -0.26711
  9 Li    0.00798   -0.00543    0.25603
 10 Li    0.01474   -0.00765    0.26553
 11 Li   -0.00862   -0.02069    0.27155
 12 Li    0.00780    0.00492    0.30455
 13 Li    0.00532   -0.00125    0.26658
 14 Li   -0.00474    0.01457    0.27735
 15 Li    0.00516    0.01637    0.25365
 16 Li   -0.04013    0.02240    0.27727
 17 Li    0.03792    0.02020    0.27543
 18 Li   -0.01372   -0.00222    0.00661
 19 Li   -0.00779   -0.00479   -0.00172
 20 Li    0.00180   -0.00515   -0.00372
 21 Li   -0.00827   -0.00319    0.00566
 22 Li    0.00045    0.00277   -0.00462
 23 Li    0.00406   -0.00164   -0.00025
 24 Li   -0.01409    0.01328    0.01370
 25 Li   -0.00513    0.00201   -0.00069
 26 Li    0.00465    0.01410    0.01322
 27 Li    0.00835   -0.02046   -0.03876
 28 Li   -0.00462   -0.00167    0.01124
 29 Li   -0.01541    0.00011    0.00432
 30 Li   -0.00243    0.00899    0.00584
 31 Li    0.00134    0.00371   -0.00462
 32 Li   -0.00380   -0.00235   -0.00380
 33 Li   -0.00135    0.00800    0.01048
 34 Li    0.00016   -0.00144    0.00312
 35 Li    0.00530    0.00341   -0.00135
 36 O     0.00868    0.02432    0.03791
 37 C    -0.02864   -0.00544    0.01512
 38 C     0.02218   -0.00196   -0.02667
 39 H    -0.00987   -0.00005    0.00929
 40 H     0.01901   -0.02045    0.00393
 41 H     0.03619   -0.00527    0.00091
 42 H    -0.02564    0.02059   -0.00924
 43 H    -0.00490   -0.01219   -0.02167
 44 H     0.00053   -0.03923    0.02218
 45 N    -0.03119    0.09973    0.06496
 46 N    -0.01204   -0.06861   -0.07911

System changes: positions 

Initializing position-dependent things.

Density initialized from wave functions
       .-----------------------.  
      /|                       |  
     / |                       |  
    /  |                       |  
   /   |                       |  
  /    |                       |  
 *     |                       |  
 |     |                       |  
 |     |                       |  
 | H   | H                     |  
 |O  H |C                      |  
 |   C |H H                    |  
 |  H  |               Li      |  
 |     |                 N     |  
 |     |     Li      Li      Li|  
 |     |  Li      Li     NLi   |  
 | Li  |   Li      Li          |  
 Li    |Li      Li      Li     |  
 |     | Li                    |  
 |   LLi     LLi     LLi       |  
 |     |  Li      Li      Li   |  
 | Li  |   Li      Li          |  
 |     |Li      Li      Li     |  
 Li    | Li      Li            |  
 |    Li      Li      Li       |  
 |     |                       |  
 |     |                       |  
 |     |                       |  
 |     |                       |  
 |     |                       |  
 |     |                       |  
 |     .-----------------------.  
 |    /                       /   
 |   /                       /    
 |  /                       /     
 | /                       /      
 |/                       /       
 *-----------------------*        

Positions:
   0 Li     1.617037    1.617037   10.000000    ( 0.0000,  0.0000,  0.0000)
   1 Li     4.851111    1.617037   10.000000    ( 0.0000,  0.0000,  0.0000)
   2 Li     8.085185    1.617037   10.000000    ( 0.0000,  0.0000,  0.0000)
   3 Li     1.617037    4.851111   10.000000    ( 0.0000,  0.0000,  0.0000)
   4 Li     4.851111    4.851111   10.000000    ( 0.0000,  0.0000,  0.0000)
   5 Li     8.085185    4.851111   10.000000    ( 0.0000,  0.0000,  0.0000)
   6 Li     1.617037    8.085185   10.000000    ( 0.0000,  0.0000,  0.0000)
   7 Li     4.851111    8.085185   10.000000    ( 0.0000,  0.0000,  0.0000)
   8 Li     8.085185    8.085185   10.000000    ( 0.0000,  0.0000,  0.0000)
   9 Li     0.000000    0.000000   11.617037    ( 0.0000,  0.0000,  0.0000)
  10 Li     3.234074    0.000000   11.617037    ( 0.0000,  0.0000,  0.0000)
  11 Li     6.468148    0.000000   11.617037    ( 0.0000,  0.0000,  0.0000)
  12 Li     0.000000    3.234074   11.617037    ( 0.0000,  0.0000,  0.0000)
  13 Li     3.234074    3.234074   11.617037    ( 0.0000,  0.0000,  0.0000)
  14 Li     6.468148    3.234074   11.617037    ( 0.0000,  0.0000,  0.0000)
  15 Li     0.000000    6.468148   11.617037    ( 0.0000,  0.0000,  0.0000)
  16 Li     3.234074    6.468148   11.617037    ( 0.0000,  0.0000,  0.0000)
  17 Li     6.468148    6.468148   11.617037    ( 0.0000,  0.0000,  0.0000)
  18 Li     1.615666    1.602957   13.482873    ( 0.0000,  0.0000,  0.0000)
  19 Li     4.860903    1.617653   13.464956    ( 0.0000,  0.0000,  0.0000)
  20 Li     8.098614    1.607455   13.458431    ( 0.0000,  0.0000,  0.0000)
  21 Li     1.620429    4.868462   13.479060    ( 0.0000,  0.0000,  0.0000)
  22 Li     4.842134    4.869266   13.471932    ( 0.0000,  0.0000,  0.0000)
  23 Li     8.089648    4.868143   13.479310    ( 0.0000,  0.0000,  0.0000)
  24 Li     1.592698    8.120616   13.527861    ( 0.0000,  0.0000,  0.0000)
  25 Li     4.851935    8.065160   13.467956    ( 0.0000,  0.0000,  0.0000)
  26 Li     8.124960    8.115259   13.520669    ( 0.0000,  0.0000,  0.0000)
  27 Li     0.010534    0.125786   15.700127    ( 0.0000,  0.0000,  0.0000)
  28 Li     3.275392    0.005483   15.406845    ( 0.0000,  0.0000,  0.0000)
  29 Li     6.441961   -0.024452   15.385799    ( 0.0000,  0.0000,  0.0000)
  30 Li     0.022614    3.293115   15.384898    ( 0.0000,  0.0000,  0.0000)
  31 Li     3.247285    3.225761   15.398051    ( 0.0000,  0.0000,  0.0000)
  32 Li     6.426552    3.258977   15.366330    ( 0.0000,  0.0000,  0.0000)
  33 Li    -0.001339    6.490096   15.452541    ( 0.0000,  0.0000,  0.0000)
  34 Li     3.229545    6.467824   15.441656    ( 0.0000,  0.0000,  0.0000)
  35 Li     6.473602    6.463699   15.436218    ( 0.0000,  0.0000,  0.0000)
  36 O      0.080066    1.450498   20.943104    ( 0.0000,  0.0000,  0.0000)
  37 C      1.287747    0.712290   20.708100    ( 0.0000,  0.0000,  0.0000)
  38 C      2.499723    1.601839   20.477162    ( 0.0000,  0.0000,  0.0000)
  39 H      1.479528    0.022798   21.540854    ( 0.0000,  0.0000,  0.0000)
  40 H      1.079748    0.106285   19.822411    ( 0.0000,  0.0000,  0.0000)
  41 H      3.386108    0.989891   20.293908    ( 0.0000,  0.0000,  0.0000)
  42 H      2.351660    2.258451   19.617334    ( 0.0000,  0.0000,  0.0000)
  43 H      2.701052    2.221986   21.356580    ( 0.0000,  0.0000,  0.0000)
  44 H      0.266918    2.138600   21.592748    ( 0.0000,  0.0000,  0.0000)
  45 N     -0.323528    1.364783   17.307899    ( 0.0000,  0.0000,  0.0000)
  46 N     -0.544003    2.165291   18.055999    ( 0.0000,  0.0000,  0.0000)

Unit cell:
           periodic     x           y           z      points  spacing
  1. axis:    yes    9.702222    0.000000    0.000000    60     0.1617
  2. axis:    yes    0.000000    9.702222    0.000000    60     0.1617
  3. axis:    no     0.000000    0.000000   24.851111   156     0.1593

  Lengths:   9.702222   9.702222  24.851111
  Angles:   90.000000  90.000000  90.000000

Effective grid spacing dv^(1/3) = 0.1609

     iter     time        total  log10-change:
                         energy  eigst   dens
iter:   1 07:45:27  -308.767721  -2.31
iter:   2 07:46:20  -308.767674  -2.93  -2.66
iter:   3 07:47:14  -308.767558c -3.44  -2.87
iter:   4 07:48:07  -308.767484c -3.69  -3.05
Writing to output.gpw (mode='')

iter:   5 07:49:02  -308.767450c -3.47  -3.25
iter:   6 07:49:56  -308.767408c -4.24  -3.32
iter:   7 07:50:49  -308.767393c -4.23  -3.52
iter:   8 07:51:43  -308.767408c -4.54  -3.63
iter:   9 07:52:37  -308.767405c -4.85  -3.67
Writing to output.gpw (mode='')

iter:  10 07:53:34  -308.767402c -5.45  -3.90
iter:  11 07:54:27  -308.767407c -5.45  -3.94
iter:  12 07:55:21  -308.767404c -5.43  -4.02c
iter:  13 07:56:15  -308.767405c -5.72  -4.19c
iter:  14 07:57:08  -308.767405c -6.20  -4.26c
Writing to output.gpw (mode='')

iter:  15 07:58:04  -308.767403c -6.08  -4.31c
iter:  16 07:58:57  -308.767402c -6.44  -4.57c
iter:  17 07:59:51  -308.767402c -6.75  -4.56c
iter:  18 08:00:45  -308.767403c -6.41  -4.73c
iter:  19 08:01:38  -308.767403c -7.10  -4.79c
Writing to output.gpw (mode='')

iter:  20 08:02:34  -308.767403c -7.32  -4.97c
iter:  21 08:03:27  -308.767403c -7.12  -5.03c
iter:  22 08:04:21  -308.767403c -7.48c -5.10c

Converged after 22 iterations.

Dipole moment: (0.737483, -10.563198, 0.163003) |e|*Ang

Energy contributions relative to reference atoms: (reference = -14434.854043)

Kinetic:       +149.862497
Potential:     -145.501940
External:        +0.000000
XC:            -313.811292
Entropy (-ST):   -0.148664
Local:           +0.757664
--------------------------
Free energy:   -308.841735
Extrapolated:  -308.767403

Dipole-layer corrected work functions: 3.401373, 3.088025 eV

Showing only first 2 kpts
 Kpt  Band  Eigenvalues  Occupancy
  0    31     -3.49305    1.98617
  0    32     -3.42788    1.95000
  0    33     -3.06906    0.05790
  0    34     -3.02921    0.02652

  1    31     -3.27963    1.33577
  1    32     -3.22827    0.83718
  1    33     -3.21023    0.66833
  1    34     -3.16780    0.35363


Fermi level: -3.24470

No gap
Writing to output.gpw (mode='')


Forces in eV/Ang:
  0 Li    0.01540   -0.00057   -0.26589
  1 Li   -0.00772   -0.00160   -0.27505
  2 Li   -0.01027   -0.00152   -0.26487
  3 Li    0.00043    0.00523   -0.27894
  4 Li   -0.00025   -0.00229   -0.27627
  5 Li    0.00060    0.01293   -0.27790
  6 Li   -0.00044   -0.00613   -0.26942
  7 Li    0.00003   -0.00199   -0.28933
  8 Li    0.00030   -0.01367   -0.26711
  9 Li    0.00818   -0.00568    0.25654
 10 Li    0.01499   -0.00774    0.26507
 11 Li   -0.00912   -0.02098    0.27113
 12 Li    0.00774    0.00515    0.30411
 13 Li    0.00580   -0.00078    0.26600
 14 Li   -0.00491    0.01482    0.27714
 15 Li    0.00496    0.01599    0.25342
 16 Li   -0.03987    0.02172    0.27669
 17 Li    0.03820    0.02009    0.27488
 18 Li   -0.01348   -0.00300    0.00732
 19 Li   -0.00710   -0.00441   -0.00155
 20 Li    0.00206   -0.00466   -0.00220
 21 Li   -0.00764   -0.00219    0.00515
 22 Li   -0.00001    0.00224   -0.00384
 23 Li    0.00354   -0.00105   -0.00032
 24 Li   -0.01389    0.01379    0.01455
 25 Li   -0.00491    0.00201   -0.00047
 26 Li    0.00496    0.01352    0.01280
 27 Li    0.00267   -0.01273   -0.02267
 28 Li   -0.00517   -0.00097    0.01065
 29 Li   -0.01444    0.00033    0.00389
 30 Li   -0.00260    0.00964    0.00503
 31 Li    0.00043    0.00279   -0.00449
 32 Li   -0.00342   -0.00237   -0.00480
 33 Li   -0.00134    0.00764    0.00981
 34 Li    0.00044   -0.00144    0.00279
 35 Li    0.00502    0.00320   -0.00162
 36 O    -0.00467    0.00774    0.00750
 37 C    -0.02649    0.00234    0.01386
 38 C     0.01768   -0.00342   -0.02490
 39 H    -0.00526    0.00076    0.00897
 40 H     0.01550   -0.01887    0.00660
 41 H     0.02887   -0.00276   -0.00312
 42 H    -0.02010    0.01381   -0.00578
 43 H    -0.00234   -0.00913   -0.01838
 44 H     0.00561   -0.02565    0.03683
 45 N    -0.00499    0.03634   -0.00719
 46 N    -0.01587   -0.00907   -0.02060

Timing:                                      incl.     excl.
-------------------------------------------------------------------
Density initialized from wave functions:   142.880   142.878   0.0% |
 Symmetrize density:                         0.002     0.002   0.0% |
Forces:                                    541.237   541.237   0.2% |
Hamiltonian:                              6382.762     0.025   0.0% |
 Atomic:                                    10.058     0.102   0.0% |
  XC Correction:                             9.956     9.956   0.0% |
 Calculate atomic Hamiltonians:             32.758    32.758   0.0% |
 Communicate:                               36.268    36.268   0.0% |
 Hartree integrate/restrict:                11.868    11.868   0.0% |
 Initialize Hamiltonian:                     0.000     0.000   0.0% |
 Poisson:                                  247.487   111.488   0.0% |
  Communicate from 1D:                      19.322    19.322   0.0% |
  Communicate from 2D:                      29.329    29.329   0.0% |
  Communicate to 1D:                         7.484     7.484   0.0% |
  Communicate to 2D:                        28.150    28.150   0.0% |
  FFT 1D:                                   25.902    25.902   0.0% |
  FFT 2D:                                   25.810    25.810   0.0% |
 XC 3D grid:                              6041.628   616.610   0.2% |
  VdW-DF integral:                        5425.018    13.633   0.0% |
   Convolution:                            371.122   371.122   0.1% |
   FFT:                                     62.831    62.831   0.0% |
   gather:                                4301.252  4301.252   1.2% |
   hmm1:                                    61.516    61.516   0.0% |
   hmm2:                                    82.649    82.649   0.0% |
   iFFT:                                    65.414    65.414   0.0% |
   potential:                              454.119     5.172   0.0% |
    collect:                                42.214    42.214   0.0% |
    p1:                                    182.815   182.815   0.1% |
    p2:                                    118.633   118.633   0.0% |
    sum:                                   105.286   105.286   0.0% |
   splines:                                 12.483    12.483   0.0% |
 vbar:                                       2.669     2.669   0.0% |
LCAO initialization:                        11.839     1.050   0.0% |
 LCAO eigensolver:                           2.497     0.001   0.0% |
  Calculate projections:                     0.000     0.000   0.0% |
  DenseAtomicCorrection:                     0.000     0.000   0.0% |
  Distribute overlap matrix:                 2.335     2.335   0.0% |
  Orbital Layouts:                           0.103     0.103   0.0% |
  Potential matrix:                          0.053     0.053   0.0% |
  Sum over cells:                            0.005     0.005   0.0% |
 LCAO to grid:                               6.676     6.676   0.0% |
 Set positions (LCAO WFS):                   1.615     1.140   0.0% |
  Basic WFS set positions:                   0.004     0.004   0.0% |
  Basis functions set positions:             0.001     0.001   0.0% |
  P tci:                                     0.001     0.001   0.0% |
  ST tci:                                    0.266     0.266   0.0% |
  mktci:                                     0.204     0.204   0.0% |
Redistribute:                                0.135     0.135   0.0% |
SCF-cycle:                               339441.452  4829.285   1.4% ||
 Davidson:                               106559.023 42884.847  12.3% |----|
  Apply hamiltonian:                      6558.417  6558.417   1.9% ||
  Subspace diag:                         14950.733     0.727   0.0% |
   calc_h_matrix:                         9128.116  2692.690   0.8% |
    Apply hamiltonian:                    6435.426  6435.426   1.8% ||
   diagonalize:                            514.127   514.127   0.1% |
   rotate_psi:                            5307.763  5307.763   1.5% ||
  calc. matrices:                        31775.276 19865.448   5.7% |-|
   Apply hamiltonian:                    11909.828 11909.828   3.4% ||
  diagonalize:                              45.938    45.938   0.0% |
  rotate_psi:                            10343.813 10343.813   3.0% ||
 Density:                                 2200.742     0.183   0.0% |
  Atomic density matrices:                 576.194   576.194   0.2% |
  Mix:                                     657.100   657.100   0.2% |
  Multipole moments:                         8.725     8.725   0.0% |
  Pseudo density:                          958.540   958.445   0.3% |
   Symmetrize density:                       0.096     0.096   0.0% |
 Hamiltonian:                            225628.312     0.555   0.0% |
  Atomic:                                  348.120     4.202   0.0% |
   XC Correction:                          343.919   343.919   0.1% |
  Calculate atomic Hamiltonians:          1140.263  1140.263   0.3% |
  Communicate:                            1120.335  1120.335   0.3% |
  Hartree integrate/restrict:              404.683   404.683   0.1% |
  Poisson:                                8858.786  3996.845   1.1% |
   Communicate from 1D:                    642.388   642.388   0.2% |
   Communicate from 2D:                   1108.998  1108.998   0.3% |
   Communicate to 1D:                      268.733   268.733   0.1% |
   Communicate to 2D:                     1023.200  1023.200   0.3% |
   FFT 1D:                                 909.466   909.466   0.3% |
   FFT 2D:                                 909.156   909.156   0.3% |
  XC 3D grid:                            213658.700 21499.941   6.2% |-|
   VdW-DF integral:                      192158.759   467.607   0.1% |
    Convolution:                         13133.740 13133.740   3.8% |-|
    FFT:                                  2215.689  2215.689   0.6% |
    gather:                              152863.233 152863.233  43.9% |-----------------|
    hmm1:                                 2203.771  2203.771   0.6% |
    hmm2:                                 2929.296  2929.296   0.8% |
    iFFT:                                 2321.291  2321.291   0.7% |
    potential:                           16024.102   190.221   0.1% |
     collect:                             1445.831  1445.831   0.4% |
     p1:                                  6396.813  6396.813   1.8% ||
     p2:                                  4156.965  4156.965   1.2% |
     sum:                                 3834.272  3834.272   1.1% |
    splines:                                 0.029     0.029   0.0% |
  vbar:                                     96.870    96.870   0.0% |
 Orthonormalize:                           224.089     0.017   0.0% |
  calc_s_matrix:                            36.277    36.277   0.0% |
  inverse-cholesky:                          7.194     7.194   0.0% |
  projections:                              99.150    99.150   0.0% |
  rotate_psi_s:                             81.451    81.451   0.0% |
Set symmetry:                                0.003     0.003   0.0% |
Other:                                    1806.860  1806.860   0.5% |
-------------------------------------------------------------------
Total:                                             348327.167 100.0%

Memory usage: 1.58 GiB
Date: Sat Feb 11 08:04:33 2023
