
  ___ ___ ___ _ _ _  
 |   |   |_  | | | | 
 | | | | | . | | | | 
 |__ |  _|___|_____|  22.8.0
 |___|_|             

User:   vazumah@r208.ib.bridges2.psc.edu
Date:   Wed Mar  8 21:49:44 2023
Arch:   x86_64
Pid:    97686
CWD:    /jet/home/vazumah/Calcs/N2_with_proton_donor/CH3CH2OH_y/bridge/0.0_1.617/N2_z
Python: 3.11.0
gpaw:   /jet/home/vazumah/.conda/envs/GPAW_mpich/lib/python3.11/site-packages/gpaw
_gpaw:  /jet/home/vazumah/.conda/envs/GPAW_mpich/lib/python3.11/site-packages/
        _gpaw.cpython-311-x86_64-linux-gnu.so
ase:    /jet/home/vazumah/.conda/envs/GPAW_mpich/lib/python3.11/site-packages/ase (version 3.22.1)
numpy:  /jet/home/vazumah/.conda/envs/GPAW_mpich/lib/python3.11/site-packages/numpy (version 1.24.2)
scipy:  /jet/home/vazumah/.conda/envs/GPAW_mpich/lib/python3.11/site-packages/scipy (version 1.10.1)
libxc:  5.2.3
units:  Angstrom and eV
cores: 128
OpenMP: True
OMP_NUM_THREADS: 1

Input parameters:
  h: 0.16
  kpts: {size: [4, 4, 1]}
  occupations: {name: fermi-dirac,
                width: 0.05}
  poissonsolver: {dipolelayer: xy}
  xc: BEEF-vdW

System changes: positions, numbers, cell, pbc, initial_charges, initial_magmoms 

Initialize ...

species:
  Li:
    name: Lithium
    id: 830b4218f175192f93f959cfc0aad614
    Z: 3.0
    valence: 1
    core: 2
    charge: 0.0
    file: /jet/home/vazumah/datasets/gpaw-setups-0.9.20000/Li.PBE.gz
    compensation charges: {type: gauss,
                           rc: 0.33,
                           lmax: 2}
    cutoffs: {filter: 1.91,
              core: 2.55}
    valence states:
      #              energy  rcut
      - 2s(1.00)    -2.874   1.058
      - 2p(0.00)    -1.090   1.058
      -  s          24.337   1.058
  
    # Using partial waves for Li as LCAO basis

  O:
    name: Oxygen
    id: 32ecd46bf208036f09c70b0ec9a88b78
    Z: 8.0
    valence: 6
    core: 2
    charge: 0.0
    file: /jet/home/vazumah/datasets/gpaw-setups-0.9.20000/O.PBE.gz
    compensation charges: {type: gauss,
                           rc: 0.21,
                           lmax: 2}
    cutoffs: {filter: 1.17,
              core: 0.83}
    valence states:
      #              energy  rcut
      - 2s(2.00)   -23.961   0.688
      - 2p(4.00)    -9.029   0.598
      -  s           3.251   0.688
      -  p          18.182   0.598
      -  d           0.000   0.619
  
    # Using partial waves for O as LCAO basis

  C:
    name: Carbon
    id: 4aa54d4b901d75f77cc0ea3eec22967b
    Z: 6.0
    valence: 4
    core: 2
    charge: 0.0
    file: /jet/home/vazumah/datasets/gpaw-setups-0.9.20000/C.PBE.gz
    compensation charges: {type: gauss,
                           rc: 0.20,
                           lmax: 2}
    cutoffs: {filter: 1.14,
              core: 1.14}
    valence states:
      #              energy  rcut
      - 2s(2.00)   -13.751   0.635
      - 2p(2.00)    -5.284   0.635
      -  s          13.461   0.635
      -  p          21.927   0.635
      -  d           0.000   0.635
  
    # Using partial waves for C as LCAO basis

  H:
    name: Hydrogen
    id: d65de229564ff8ea4db303e23b6d1ecf
    Z: 1.0
    valence: 1
    core: 0
    charge: 0.0
    file: /jet/home/vazumah/datasets/gpaw-setups-0.9.20000/H.PBE.gz
    compensation charges: {type: gauss,
                           rc: 0.15,
                           lmax: 2}
    cutoffs: {filter: 0.85,
              core: 0.53}
    valence states:
      #              energy  rcut
      - 1s(1.00)    -6.494   0.476
      -  s          20.717   0.476
      -  p           0.000   0.476
  
    # Using partial waves for H as LCAO basis

  N:
    name: Nitrogen
    id: f7500608b86eaa90eef8b1d9a670dc53
    Z: 7.0
    valence: 5
    core: 2
    charge: 0.0
    file: /jet/home/vazumah/datasets/gpaw-setups-0.9.20000/N.PBE.gz
    compensation charges: {type: gauss,
                           rc: 0.18,
                           lmax: 2}
    cutoffs: {filter: 1.11,
              core: 0.96}
    valence states:
      #              energy  rcut
      - 2s(2.00)   -18.583   0.603
      - 2p(3.00)    -7.089   0.529
      -  s           8.629   0.603
      -  p          20.123   0.529
      -  d           0.000   0.577
  
    # Using partial waves for N as LCAO basis

Reference energy: -14434.854043  # eV

Spin-paired calculation

Convergence criteria:
 Maximum [total energy] change in last 3 cyles: 0.0005 eV / electron
 Maximum integral of absolute [dens]ity change: 0.0001 electrons / valence electron
 Maximum integral of absolute [eigenst]ate change: 4e-08 eV^2 / valence electron
 Maximum number of scf [iter]ations: 333
 (Square brackets indicate name in SCF output, whereas a 'c' in
 the SCF output indicates the quantity has converged.)

Symmetries present (total): 1

  ( 1  0  0)
  ( 0  1  0)
  ( 0  0  1)

16 k-points: 4 x 4 x 1 Monkhorst-Pack grid
8 k-points in the irreducible part of the Brillouin zone
       k-points in crystal coordinates                weights
   0:     0.12500000   -0.37500000    0.00000000          2/16
   1:     0.12500000   -0.12500000    0.00000000          2/16
   2:     0.12500000    0.12500000    0.00000000          2/16
   3:     0.12500000    0.37500000    0.00000000          2/16
   4:     0.37500000   -0.37500000    0.00000000          2/16
   5:     0.37500000   -0.12500000    0.00000000          2/16
   6:     0.37500000    0.12500000    0.00000000          2/16
   7:     0.37500000    0.37500000    0.00000000          2/16

Wave functions: Uniform real-space grid
  Kinetic energy operator: 6*3+1=19 point O(h^6) finite-difference Laplacian
  ScaLapack parameters: grid=1x1, blocksize=None
  Wavefunction extrapolation:
    Improved wavefunction reuse through dual PAW basis 

Occupation numbers: Fermi-Dirac:
  width: 0.0500  # eV
 

Eigensolver
   Davidson(niter=2) 

Densities:
  Coarse grid: 60*60*164 grid
  Fine grid: 120*120*328 grid
  Total Charge: 0.000000 

Density mixing:
  Method: separate
  Backend: pulay
  Linear mixing parameter: 0.05
  old densities: 5
  Damping of long wavelength oscillations: 50 

Hamiltonian:
  XC and Coulomb potentials evaluated on a 120*120*328 grid
  Using the BEEF-vdW Exchange-Correlation functional
  Interpolation: tri-quintic (5. degree polynomial)
  Poisson solver: FastPoissonSolver using
    Stencil: 6*3+1=19 point O(h^6) finite-difference Laplacian
    FFT axes: [0, 1]
    FST axes: [2]

Dipole correction along z-axis 

XC parameters: BEEF-vdW with 2 nearest neighbor stencil

Memory estimate:
  Process memory now: 128.71 MiB
  Calculator: 80.22 MiB
    Density: 22.47 MiB
      Arrays: 7.22 MiB
      Localized functions: 12.50 MiB
      Mixer: 2.75 MiB
    Hamiltonian: 5.71 MiB
      Arrays: 4.72 MiB
      XC: 0.00 MiB
      Poisson: 0.00 MiB
      vbar: 0.99 MiB
    Wavefunctions: 52.04 MiB
      Arrays psit_nG: 24.17 MiB
      Eigensolver: 27.21 MiB
      Projections: 0.01 MiB
      Projectors: 0.65 MiB

Total number of cores used: 128
Parallelization over k-points: 8
Domain decomposition: 2 x 2 x 4

Number of atoms: 47
Number of atomic orbitals: 170
Number of bands in calculation: 44
Number of valence electrons: 66
Bands to converge: occupied

... initialized

Initializing position-dependent things.

Density initialized from atomic densities
Creating initial wave functions:
  44 bands from LCAO basis set

       .-----------------------.  
      /|                       |  
     / |                       |  
    /  |                       |  
   /   |                       |  
  /    |                       |  
 *     |                       |  
 |     |                       |  
 |     |                       |  
 |     |                       |  
 |     |                       |  
 |    H|                  H    |  
 |   C |                 H  C  |  
 |O    |                  H    |  
 |    H|                       |  
 |N  Li|     Li      Li        |  
 |N    |                       |  
 | Li  |  LLi     LLi     Li   |  
 |     |                       |  
 Li    |LLi     LLi     Li     |  
 |   Li|     Li      Li        |  
 |    Li  Li  Li  Li  Li  Li   |  
 | Li  |   Li      Li          |  
 |     |Li      Li      Li     |  
 Li    | Li      Li            |  
 |    Li      Li      Li       |  
 |     |                       |  
 |     |                       |  
 |     |                       |  
 |     |                       |  
 |     |                       |  
 |     |                       |  
 |     .-----------------------.  
 |    /                       /   
 |   /                       /    
 |  /                       /     
 | /                       /      
 |/                       /       
 *-----------------------*        

Positions:
   0 Li     1.617037    1.617037   10.000000    ( 0.0000,  0.0000,  0.0000)
   1 Li     4.851111    1.617037   10.000000    ( 0.0000,  0.0000,  0.0000)
   2 Li     8.085185    1.617037   10.000000    ( 0.0000,  0.0000,  0.0000)
   3 Li     1.617037    4.851111   10.000000    ( 0.0000,  0.0000,  0.0000)
   4 Li     4.851111    4.851111   10.000000    ( 0.0000,  0.0000,  0.0000)
   5 Li     8.085185    4.851111   10.000000    ( 0.0000,  0.0000,  0.0000)
   6 Li     1.617037    8.085185   10.000000    ( 0.0000,  0.0000,  0.0000)
   7 Li     4.851111    8.085185   10.000000    ( 0.0000,  0.0000,  0.0000)
   8 Li     8.085185    8.085185   10.000000    ( 0.0000,  0.0000,  0.0000)
   9 Li     0.000000    0.000000   11.617037    ( 0.0000,  0.0000,  0.0000)
  10 Li     3.234074    0.000000   11.617037    ( 0.0000,  0.0000,  0.0000)
  11 Li     6.468148    0.000000   11.617037    ( 0.0000,  0.0000,  0.0000)
  12 Li     0.000000    3.234074   11.617037    ( 0.0000,  0.0000,  0.0000)
  13 Li     3.234074    3.234074   11.617037    ( 0.0000,  0.0000,  0.0000)
  14 Li     6.468148    3.234074   11.617037    ( 0.0000,  0.0000,  0.0000)
  15 Li     0.000000    6.468148   11.617037    ( 0.0000,  0.0000,  0.0000)
  16 Li     3.234074    6.468148   11.617037    ( 0.0000,  0.0000,  0.0000)
  17 Li     6.468148    6.468148   11.617037    ( 0.0000,  0.0000,  0.0000)
  18 Li     1.617038    1.617038   13.469728    ( 0.0000,  0.0000,  0.0000)
  19 Li     4.851111    1.617038   13.469729    ( 0.0000,  0.0000,  0.0000)
  20 Li     8.085184    1.617038   13.469728    ( 0.0000,  0.0000,  0.0000)
  21 Li     1.617038    4.851111   13.469729    ( 0.0000,  0.0000,  0.0000)
  22 Li     4.851111    4.851111   13.469730    ( 0.0000,  0.0000,  0.0000)
  23 Li     8.085184    4.851111   13.469729    ( 0.0000,  0.0000,  0.0000)
  24 Li     1.617038    8.085184   13.469728    ( 0.0000,  0.0000,  0.0000)
  25 Li     4.851111    8.085184   13.469729    ( 0.0000,  0.0000,  0.0000)
  26 Li     8.085184    8.085184   13.469728    ( 0.0000,  0.0000,  0.0000)
  27 Li    -0.000000   -0.000000   15.445939    ( 0.0000,  0.0000,  0.0000)
  28 Li     3.234074    0.000000   15.445939    ( 0.0000,  0.0000,  0.0000)
  29 Li     6.468148    0.000000   15.445939    ( 0.0000,  0.0000,  0.0000)
  30 Li     0.000000    3.234074   15.445939    ( 0.0000,  0.0000,  0.0000)
  31 Li     3.234076    3.234076   15.445938    ( 0.0000,  0.0000,  0.0000)
  32 Li     6.468146    3.234076   15.445938    ( 0.0000,  0.0000,  0.0000)
  33 Li     0.000000    6.468148   15.445939    ( 0.0000,  0.0000,  0.0000)
  34 Li     3.234076    6.468146   15.445938    ( 0.0000,  0.0000,  0.0000)
  35 Li     6.468146    6.468146   15.445938    ( 0.0000,  0.0000,  0.0000)
  36 O      0.000000    1.617037   19.645939    ( 0.0000,  0.0000,  0.0000)
  37 C      0.816757    2.799444   19.650238    ( 0.0000,  0.0000,  0.0000)
  38 C     -0.002861    4.083659   19.635704    ( 0.0000,  0.0000,  0.0000)
  39 H      1.500293    2.790821   20.510398    ( 0.0000,  0.0000,  0.0000)
  40 H      1.426483    2.724056   18.747442    ( 0.0000,  0.0000,  0.0000)
  41 H      0.651085    4.960586   19.620269    ( 0.0000,  0.0000,  0.0000)
  42 H     -0.651884    4.118370   18.758886    ( 0.0000,  0.0000,  0.0000)
  43 H     -0.631349    4.153847   20.528265    ( 0.0000,  0.0000,  0.0000)
  44 H     -0.582977    1.656204   20.414164    ( 0.0000,  0.0000,  0.0000)
  45 N      0.000000    1.617000   16.945939    ( 0.0000,  0.0000,  0.0000)
  46 N      0.000000    1.617000   18.042561    ( 0.0000,  0.0000,  0.0000)

Unit cell:
           periodic     x           y           z      points  spacing
  1. axis:    yes    9.702222    0.000000    0.000000    60     0.1617
  2. axis:    yes    0.000000    9.702222    0.000000    60     0.1617
  3. axis:    no     0.000000    0.000000   26.351111   164     0.1607

  Lengths:   9.702222   9.702222  26.351111
  Angles:   90.000000  90.000000  90.000000

Effective grid spacing dv^(1/3) = 0.1614

     iter     time        total  log10-change:
                         energy  eigst   dens
iter:   1 21:49:59  -576.986046
iter:   2 21:50:06   -59.640383  +2.57  +0.01
iter:   3 21:50:13     9.228151  +3.25  -0.15
iter:   4 21:50:21  -166.249461  +3.19  -0.22
Writing to output.gpw (mode='')

iter:   5 21:50:28  -229.815462  +2.92  -0.24
iter:   6 21:50:35  -290.886355  +2.63  -0.52
iter:   7 21:50:42  -317.699289  +2.24  -0.62
iter:   8 21:50:49  -345.606479  +2.07  -0.61
iter:   9 21:50:56  -420.609270  +2.39  -0.51
Writing to output.gpw (mode='')

iter:  10 21:51:03  -353.090821  +1.64  -0.39
iter:  11 21:51:10  -312.534613  +1.46  -0.51
iter:  12 21:51:17  -311.008777  +1.36  -0.72
iter:  13 21:51:24  -312.605528  +1.47  -0.77
iter:  14 21:51:31  -308.971774  +0.55  -0.67
Writing to output.gpw (mode='')

iter:  15 21:51:38  -311.881354  +1.57  -0.75
iter:  16 21:51:45  -304.681721  +0.81  -0.68
iter:  17 21:51:53  -304.372372  +0.48  -0.90
iter:  18 21:52:00  -304.303814  +0.23  -0.97
iter:  19 21:52:07  -303.687928  +0.25  -1.02
Writing to output.gpw (mode='')

iter:  20 21:52:14  -303.538538  -0.05  -1.30
iter:  21 21:52:21  -303.405183  -0.02  -1.42
iter:  22 21:52:28  -303.528547  -0.03  -1.47
iter:  23 21:52:35  -303.412117  -0.47  -1.50
iter:  24 21:52:42  -303.421870  -0.64  -1.62
Writing to output.gpw (mode='')

iter:  25 21:52:49  -303.441966c -0.85  -1.69
iter:  26 21:52:56  -303.495404  -0.74  -1.71
iter:  27 21:53:04  -303.408660  -1.05  -1.70
iter:  28 21:53:11  -303.406285  -1.29  -1.91
iter:  29 21:53:18  -303.410840c -1.34  -2.04
Writing to output.gpw (mode='')

iter:  30 21:53:25  -303.411959c -1.56  -2.15
iter:  31 21:53:32  -303.412203c -1.60  -2.21
iter:  32 21:53:41  -303.412624c -1.68  -2.21
iter:  33 21:53:48  -303.414154c -1.77  -2.40
iter:  34 21:53:55  -303.415257c -1.89  -2.57
Writing to output.gpw (mode='')

iter:  35 21:54:02  -303.416883c -2.06  -2.76
iter:  36 21:54:09  -303.418376c -2.16  -2.80
iter:  37 21:54:16  -303.419874c -2.12  -2.76
iter:  38 21:54:30  -303.420912c -2.27  -2.76
iter:  39 21:54:44  -303.421793c -2.40  -2.78
Writing to output.gpw (mode='')

iter:  40 21:54:52  -303.422605c -2.37  -2.78
iter:  41 21:54:59  -303.423406c -2.56  -2.74
iter:  42 21:55:06  -303.423957c -2.54  -2.87
iter:  43 21:55:13  -303.424418c -2.63  -2.93
iter:  44 21:55:20  -303.424868c -2.58  -2.93
Writing to output.gpw (mode='')

iter:  45 21:55:27  -303.425275c -2.64  -2.94
iter:  46 21:55:34  -303.425635c -2.76  -3.03
iter:  47 21:55:41  -303.425900c -2.98  -3.11
iter:  48 21:55:48  -303.426133c -2.92  -3.31
iter:  49 21:55:55  -303.426336c -3.01  -3.34
Writing to output.gpw (mode='')

iter:  50 21:56:02  -303.426498c -3.19  -3.45
iter:  51 21:56:10  -303.426653c -3.11  -3.47
iter:  52 21:56:17  -303.426888c -2.84  -3.51
iter:  53 21:56:24  -303.427002c -3.28  -3.60
iter:  54 21:56:31  -303.427100c -3.33  -3.60
Writing to output.gpw (mode='')

iter:  55 21:56:38  -303.427185c -3.53  -3.62
iter:  56 21:56:45  -303.427248c -3.70  -3.69
iter:  57 21:56:52  -303.427312c -3.62  -3.87
iter:  58 21:56:59  -303.427356c -3.68  -4.03c
iter:  59 21:57:06  -303.427396c -3.75  -3.99
Writing to output.gpw (mode='')

iter:  60 21:57:13  -303.427439c -3.62  -4.12c
iter:  61 21:57:20  -303.427470c -3.83  -4.16c
iter:  62 21:57:27  -303.427497c -3.86  -4.32c
iter:  63 21:57:34  -303.427520c -3.97  -4.32c
iter:  64 21:57:41  -303.427539c -4.16  -4.34c
Writing to output.gpw (mode='')

iter:  65 21:57:48  -303.427555c -4.10  -4.61c
iter:  66 21:57:55  -303.427570c -4.10  -4.69c
iter:  67 21:58:03  -303.427583c -4.19  -4.62c
iter:  68 21:58:10  -303.427594c -4.35  -4.55c
iter:  69 21:58:17  -303.427603c -4.53  -4.57c
Writing to output.gpw (mode='')

iter:  70 21:58:24  -303.427610c -4.55  -4.36c
iter:  71 21:58:31  -303.427617c -4.61  -4.46c
iter:  72 21:58:38  -303.427626c -4.20  -4.43c
iter:  73 21:58:45  -303.427631c -4.61  -4.37c
iter:  74 21:58:52  -303.427636c -4.61  -4.32c
Writing to output.gpw (mode='')

iter:  75 21:58:59  -303.427641c -4.62  -4.32c
iter:  76 21:59:06  -303.427644c -4.87  -4.28c
iter:  77 21:59:13  -303.427647c -4.90  -4.35c
iter:  78 21:59:25  -303.427649c -4.86  -4.31c
iter:  79 21:59:43  -303.427651c -5.06  -4.41c
Writing to output.gpw (mode='')

iter:  80 21:59:50  -303.427653c -4.92  -4.27c
iter:  81 21:59:57  -303.427655c -5.10  -4.31c
iter:  82 22:00:05  -303.427656c -5.10  -4.34c
iter:  83 22:00:12  -303.427657c -5.11  -4.44c
iter:  84 22:00:19  -303.427658c -5.09  -4.58c
Writing to output.gpw (mode='')

iter:  85 22:00:26  -303.427659c -5.10  -4.64c
iter:  86 22:00:33  -303.427660c -5.29  -4.68c
iter:  87 22:00:40  -303.427660c -5.45  -4.79c
iter:  88 22:00:47  -303.427661c -5.56  -5.06c
iter:  89 22:00:54  -303.427661c -5.54  -5.10c
Writing to output.gpw (mode='')

iter:  90 22:01:01  -303.427661c -5.50  -5.18c
iter:  91 22:01:08  -303.427661c -5.52  -5.28c
iter:  92 22:01:15  -303.427662c -5.58  -5.39c
iter:  93 22:01:22  -303.427662c -5.64  -5.39c
iter:  94 22:01:29  -303.427662c -5.72  -5.40c
Writing to output.gpw (mode='')

iter:  95 22:01:37  -303.427662c -5.68  -5.51c
iter:  96 22:01:44  -303.427662c -5.92  -5.55c
iter:  97 22:01:51  -303.427662c -5.98  -5.55c
iter:  98 22:01:58  -303.427662c -5.98  -5.50c
iter:  99 22:02:05  -303.427662c -6.04  -5.36c
Writing to output.gpw (mode='')

iter: 100 22:02:12  -303.427662c -6.13  -5.27c
iter: 101 22:02:19  -303.427662c -6.08  -5.35c
iter: 102 22:02:26  -303.427662c -6.19  -5.40c
iter: 103 22:02:33  -303.427662c -6.21  -5.39c
iter: 104 22:02:40  -303.427662c -6.30  -5.36c
Writing to output.gpw (mode='')

iter: 105 22:02:47  -303.427662c -6.27  -5.62c
iter: 106 22:02:54  -303.427662c -6.34  -5.57c
iter: 107 22:03:01  -303.427662c -6.41  -5.64c
iter: 108 22:03:08  -303.427662c -6.45  -5.65c
iter: 109 22:03:16  -303.427662c -6.50  -5.79c
Writing to output.gpw (mode='')

iter: 110 22:03:23  -303.427662c -6.55  -5.85c
iter: 111 22:03:30  -303.427662c -6.68  -5.94c
iter: 112 22:03:37  -303.427662c -6.66  -5.91c
iter: 113 22:03:44  -303.427662c -6.81  -5.88c
iter: 114 22:03:51  -303.427662c -6.55  -5.76c
Writing to output.gpw (mode='')

iter: 115 22:03:58  -303.427662c -6.57  -5.79c
iter: 116 22:04:05  -303.427662c -6.88  -5.79c
iter: 117 22:04:12  -303.427662c -6.97  -5.73c
iter: 118 22:04:28  -303.427662c -6.96  -5.86c
iter: 119 22:04:41  -303.427662c -6.95  -5.97c
Writing to output.gpw (mode='')

iter: 120 22:04:49  -303.427662c -7.09  -6.03c
iter: 121 22:04:56  -303.427662c -7.20  -6.22c
iter: 122 22:05:03  -303.427662c -7.22  -6.22c
iter: 123 22:05:10  -303.427662c -7.22  -6.30c
iter: 124 22:05:17  -303.427662c -7.30  -6.44c
Writing to output.gpw (mode='')

iter: 125 22:05:25  -303.427662c -7.36  -6.51c
iter: 126 22:05:32  -303.427662c -7.36  -6.66c
iter: 127 22:05:39  -303.427662c -7.38  -6.72c
iter: 128 22:05:46  -303.427661c -7.40c -6.68c

Converged after 128 iterations.

Dipole moment: (-17.462829, -3.255776, 0.333721) |e|*Ang

Energy contributions relative to reference atoms: (reference = -14434.854043)

Kinetic:       +178.708719
Potential:     -165.137803
External:        +0.000000
XC:            -317.645029
Entropy (-ST):   -0.141473
Local:           +0.717188
--------------------------
Free energy:   -303.498398
Extrapolated:  -303.427661

Dipole-layer corrected work functions: 3.381747, 2.740220 eV

Showing only first 2 kpts
 Kpt  Band  Eigenvalues  Occupancy
  0    31     -3.30553    1.98508
  0    32     -3.18200    1.83672
  0    33     -2.90334    0.08195
  0    34     -2.80501    0.01189

  1    31     -3.11790    1.51475
  1    32     -3.06056    0.99576
  1    33     -3.03753    0.76972
  1    34     -2.93965    0.16231


Fermi level: -3.06098

No gap
Writing to output.gpw (mode='')


Forces in eV/Ang:
  0 Li    0.01336    0.00103   -0.27420
  1 Li   -0.00241   -0.00048   -0.26027
  2 Li   -0.01163    0.00003   -0.27334
  3 Li    0.00154    0.00821   -0.27188
  4 Li    0.00006    0.00221   -0.28174
  5 Li   -0.00162    0.01140   -0.27126
  6 Li    0.00200   -0.00897   -0.27152
  7 Li    0.00085   -0.00112   -0.28020
  8 Li   -0.00296   -0.01135   -0.27188
  9 Li   -0.00031    0.02019    0.31725
 10 Li    0.02073   -0.00456    0.25328
 11 Li   -0.01985   -0.00743    0.25505
 12 Li   -0.00028   -0.01804    0.31320
 13 Li    0.02186    0.00497    0.25335
 14 Li   -0.02124    0.00600    0.25755
 15 Li    0.00015   -0.00162    0.23458
 16 Li   -0.02974   -0.00096    0.26902
 17 Li    0.02989    0.00094    0.26345
 18 Li    0.07242    0.00132   -0.08581
 19 Li    0.00309   -0.00170    0.05989
 20 Li   -0.07194    0.00054   -0.09979
 21 Li   -0.02233   -0.02569    0.06276
 22 Li    0.00165    0.01421    0.02335
 23 Li    0.02089   -0.02315    0.06111
 24 Li   -0.02330    0.02433    0.05552
 25 Li    0.00045   -0.01288    0.03034
 26 Li    0.02295    0.02201    0.05570
 27 Li   -0.00477    0.08947   -0.03248
 28 Li    0.05263   -0.02165   -0.04535
 29 Li   -0.06012   -0.03227   -0.05484
 30 Li    0.00014   -0.08512   -0.08048
 31 Li    0.04942    0.02912   -0.05123
 32 Li   -0.05860    0.03569   -0.05455
 33 Li   -0.00106   -0.00567   -0.02759
 34 Li   -0.01559   -0.00532   -0.01075
 35 Li    0.01667   -0.00288   -0.01327
 36 O    -0.84372    0.06503   12.02602
 37 C     0.66381    0.94085    1.31023
 38 C    -0.09014   -0.02679    0.10251
 39 H    -0.13473   -0.17225   -0.12707
 40 H     0.19406    0.14791    0.28403
 41 H     0.00925   -0.07737   -0.05777
 42 H    -0.02179    0.08874   -0.02739
 43 H     0.00799   -0.00418   -0.03348
 44 H    -0.23029    0.06608    2.13927
 45 N    -1.10727   -0.39731   -4.61672
 46 N     1.57608   -0.63849  -10.79034

System changes: positions 

Initializing position-dependent things.

Density initialized from wave functions
       .-----------------------.  
      /|                       |  
     / |                       |  
    /  |                       |  
   /   |                       |  
  /    |                       |  
 *     |                       |  
 |     |                       |  
 |     |                       |  
 |     |                       |  
 |     |                       |  
 |    H|                  H    |  
 |   C |                 H  C  |  
 |     |       Li      Li O    |  
 |    H|                       |  
 |N    |     Li      Li      Li|  
 |     |                  N    |  
 | Li  |  LLi     LLi     Li   |  
 |     |                       |  
 |     |Li      Li      LLi    |  
 |   Li|     Li      Li        |  
 |    Li  Li  Li  Li  Li  Li   |  
 | Li  |   Li      Li          |  
 |     |Li      Li      Li     |  
 Li    | Li      Li            |  
 |    Li      Li      Li       |  
 |     |                       |  
 |     |                       |  
 |     |                       |  
 |     |                       |  
 |     |                       |  
 |     |                       |  
 |     .-----------------------.  
 |    /                       /   
 |   /                       /    
 |  /                       /     
 | /                       /      
 |/                       /       
 *-----------------------*        

Positions:
   0 Li     1.617037    1.617037   10.000000    ( 0.0000,  0.0000,  0.0000)
   1 Li     4.851111    1.617037   10.000000    ( 0.0000,  0.0000,  0.0000)
   2 Li     8.085185    1.617037   10.000000    ( 0.0000,  0.0000,  0.0000)
   3 Li     1.617037    4.851111   10.000000    ( 0.0000,  0.0000,  0.0000)
   4 Li     4.851111    4.851111   10.000000    ( 0.0000,  0.0000,  0.0000)
   5 Li     8.085185    4.851111   10.000000    ( 0.0000,  0.0000,  0.0000)
   6 Li     1.617037    8.085185   10.000000    ( 0.0000,  0.0000,  0.0000)
   7 Li     4.851111    8.085185   10.000000    ( 0.0000,  0.0000,  0.0000)
   8 Li     8.085185    8.085185   10.000000    ( 0.0000,  0.0000,  0.0000)
   9 Li     0.000000    0.000000   11.617037    ( 0.0000,  0.0000,  0.0000)
  10 Li     3.234074    0.000000   11.617037    ( 0.0000,  0.0000,  0.0000)
  11 Li     6.468148    0.000000   11.617037    ( 0.0000,  0.0000,  0.0000)
  12 Li     0.000000    3.234074   11.617037    ( 0.0000,  0.0000,  0.0000)
  13 Li     3.234074    3.234074   11.617037    ( 0.0000,  0.0000,  0.0000)
  14 Li     6.468148    3.234074   11.617037    ( 0.0000,  0.0000,  0.0000)
  15 Li     0.000000    6.468148   11.617037    ( 0.0000,  0.0000,  0.0000)
  16 Li     3.234074    6.468148   11.617037    ( 0.0000,  0.0000,  0.0000)
  17 Li     6.468148    6.468148   11.617037    ( 0.0000,  0.0000,  0.0000)
  18 Li     1.617278    1.617042   13.469443    ( 0.0000,  0.0000,  0.0000)
  19 Li     4.851121    1.617033   13.469928    ( 0.0000,  0.0000,  0.0000)
  20 Li     8.084945    1.617040   13.469397    ( 0.0000,  0.0000,  0.0000)
  21 Li     1.616964    4.851026   13.469938    ( 0.0000,  0.0000,  0.0000)
  22 Li     4.851116    4.851158   13.469808    ( 0.0000,  0.0000,  0.0000)
  23 Li     8.085253    4.851034   13.469932    ( 0.0000,  0.0000,  0.0000)
  24 Li     1.616961    8.085265   13.469912    ( 0.0000,  0.0000,  0.0000)
  25 Li     4.851113    8.085141   13.469830    ( 0.0000,  0.0000,  0.0000)
  26 Li     8.085260    8.085257   13.469913    ( 0.0000,  0.0000,  0.0000)
  27 Li    -0.000016    0.000297   15.445832    ( 0.0000,  0.0000,  0.0000)
  28 Li     3.234248   -0.000072   15.445788    ( 0.0000,  0.0000,  0.0000)
  29 Li     6.467949   -0.000107   15.445757    ( 0.0000,  0.0000,  0.0000)
  30 Li     0.000000    3.233791   15.445672    ( 0.0000,  0.0000,  0.0000)
  31 Li     3.234240    3.234173   15.445768    ( 0.0000,  0.0000,  0.0000)
  32 Li     6.467951    3.234195   15.445757    ( 0.0000,  0.0000,  0.0000)
  33 Li    -0.000004    6.468129   15.445847    ( 0.0000,  0.0000,  0.0000)
  34 Li     3.234025    6.468128   15.445902    ( 0.0000,  0.0000,  0.0000)
  35 Li     6.468201    6.468136   15.445894    ( 0.0000,  0.0000,  0.0000)
  36 O     -0.002799    1.617253   19.685841    ( 0.0000,  0.0000,  0.0000)
  37 C      0.818960    2.802566   19.654585    ( 0.0000,  0.0000,  0.0000)
  38 C     -0.003160    4.083570   19.636044    ( 0.0000,  0.0000,  0.0000)
  39 H      1.499846    2.790250   20.509976    ( 0.0000,  0.0000,  0.0000)
  40 H      1.427127    2.724546   18.748384    ( 0.0000,  0.0000,  0.0000)
  41 H      0.651116    4.960329   19.620078    ( 0.0000,  0.0000,  0.0000)
  42 H     -0.651956    4.118665   18.758795    ( 0.0000,  0.0000,  0.0000)
  43 H     -0.631322    4.153833   20.528154    ( 0.0000,  0.0000,  0.0000)
  44 H     -0.583741    1.656423   20.421262    ( 0.0000,  0.0000,  0.0000)
  45 N     -0.003674    1.615682   16.930621    ( 0.0000,  0.0000,  0.0000)
  46 N      0.005229    1.614882   18.006760    ( 0.0000,  0.0000,  0.0000)

Unit cell:
           periodic     x           y           z      points  spacing
  1. axis:    yes    9.702222    0.000000    0.000000    60     0.1617
  2. axis:    yes    0.000000    9.702222    0.000000    60     0.1617
  3. axis:    no     0.000000    0.000000   26.351111   164     0.1607

  Lengths:   9.702222   9.702222  26.351111
  Angles:   90.000000  90.000000  90.000000

Effective grid spacing dv^(1/3) = 0.1614

     iter     time        total  log10-change:
                         energy  eigst   dens
iter:   1 22:05:54  -304.882840  -0.72
iter:   2 22:06:02  -304.433424  -0.42  -1.26
iter:   3 22:06:09  -304.334816  -1.22  -1.49
iter:   4 22:06:16  -304.282614  -0.51  -1.84
Writing to output.gpw (mode='')

iter:   5 22:06:23  -304.279432  -1.48  -1.87
iter:   6 22:06:30  -304.289246c -1.31  -2.18
iter:   7 22:06:37  -304.276269c -1.14  -2.09
iter:   8 22:06:45  -304.271436c -1.86  -2.25
iter:   9 22:06:52  -304.270023c -1.88  -2.37
Writing to output.gpw (mode='')

iter:  10 22:06:59  -304.270123c -2.42  -2.56
iter:  11 22:07:06  -304.270154c -2.56  -2.66
iter:  12 22:07:13  -304.270535c -2.39  -2.74
iter:  13 22:07:20  -304.270536c -2.91  -2.83
iter:  14 22:07:28  -304.270598c -3.11  -2.93
Writing to output.gpw (mode='')

iter:  15 22:07:35  -304.270712c -2.95  -3.04
iter:  16 22:07:42  -304.270732c -3.48  -3.11
iter:  17 22:07:49  -304.270790c -3.05  -3.34
iter:  18 22:07:56  -304.270894c -3.20  -3.45
iter:  19 22:08:03  -304.270922c -3.87  -3.50
Writing to output.gpw (mode='')

iter:  20 22:08:11  -304.270944c -3.83  -3.56
iter:  21 22:08:18  -304.270959c -3.88  -3.64
iter:  22 22:08:25  -304.270994c -3.63  -3.71
iter:  23 22:08:32  -304.271005c -4.47  -3.70
iter:  24 22:08:39  -304.271013c -4.13  -3.72
Writing to output.gpw (mode='')

iter:  25 22:08:47  -304.271020c -4.63  -3.71
iter:  26 22:08:54  -304.271021c -4.72  -3.69
iter:  27 22:09:01  -304.271022c -4.35  -3.73
iter:  28 22:09:08  -304.271025c -4.77  -3.89
iter:  29 22:09:15  -304.271029c -4.67  -3.93
Writing to output.gpw (mode='')

iter:  30 22:09:34  -304.271028c -4.87  -3.97
iter:  31 22:09:54  -304.271030c -5.10  -4.08c
iter:  32 22:10:04  -304.271031c -5.27  -4.17c
iter:  33 22:10:12  -304.271032c -5.07  -4.26c
iter:  34 22:10:19  -304.271033c -5.58  -4.36c
Writing to output.gpw (mode='')

iter:  35 22:10:26  -304.271033c -5.28  -4.42c
iter:  36 22:10:33  -304.271033c -5.62  -4.53c
iter:  37 22:10:40  -304.271034c -5.38  -4.62c
iter:  38 22:10:47  -304.271034c -5.90  -4.83c
iter:  39 22:10:55  -304.271034c -5.88  -4.88c
Writing to output.gpw (mode='')

iter:  40 22:11:02  -304.271035c -5.82  -4.82c
iter:  41 22:11:09  -304.271035c -5.80  -4.89c
iter:  42 22:11:16  -304.271035c -5.57  -5.04c
iter:  43 22:11:23  -304.271035c -5.99  -5.04c
iter:  44 22:11:30  -304.271035c -6.22  -5.09c
Writing to output.gpw (mode='')

iter:  45 22:11:38  -304.271035c -5.85  -5.23c
iter:  46 22:11:45  -304.271035c -5.92  -5.29c
iter:  47 22:11:52  -304.271035c -6.26  -5.41c
iter:  48 22:11:59  -304.271035c -6.33  -5.37c
iter:  49 22:12:06  -304.271035c -6.22  -5.47c
Writing to output.gpw (mode='')

iter:  50 22:12:13  -304.271035c -6.69  -5.59c
iter:  51 22:12:21  -304.271035c -6.62  -5.66c
iter:  52 22:12:28  -304.271035c -6.50  -5.74c
iter:  53 22:12:35  -304.271035c -6.52  -5.74c
iter:  54 22:12:42  -304.271035c -6.85  -5.74c
Writing to output.gpw (mode='')

iter:  55 22:12:49  -304.271035c -6.72  -5.71c
iter:  56 22:12:56  -304.271035c -6.89  -5.70c
iter:  57 22:13:04  -304.271035c -6.95  -5.54c
iter:  58 22:13:11  -304.271035c -6.95  -5.51c
iter:  59 22:13:18  -304.271035c -6.88  -5.56c
Writing to output.gpw (mode='')

iter:  60 22:13:25  -304.271035c -7.24  -5.65c
iter:  61 22:13:32  -304.271035c -7.24  -5.62c
iter:  62 22:13:39  -304.271035c -7.31  -5.58c
iter:  63 22:13:47  -304.271035c -7.14  -5.56c
iter:  64 22:13:54  -304.271035c -7.08  -5.57c
Writing to output.gpw (mode='')

iter:  65 22:14:01  -304.271035c -7.07  -5.66c
iter:  66 22:14:08  -304.271035c -7.08  -5.69c
iter:  67 22:14:15  -304.271035c -7.30  -5.70c
iter:  68 22:14:29  -304.271035c -7.26  -5.74c
iter:  69 22:14:43  -304.271035c -7.49c -5.70c

Converged after 69 iterations.

Dipole moment: (-17.275068, -3.287770, 0.356183) |e|*Ang

Energy contributions relative to reference atoms: (reference = -14434.854043)

Kinetic:       +179.821154
Potential:     -166.416539
External:        +0.000000
XC:            -318.334147
Entropy (-ST):   -0.141247
Local:           +0.729121
--------------------------
Free energy:   -304.341659
Extrapolated:  -304.271035

Dipole-layer corrected work functions: 3.380494, 2.695788 eV

Showing only first 2 kpts
 Kpt  Band  Eigenvalues  Occupancy
  0    31     -3.28318    1.98523
  0    32     -3.16066    1.84119
  0    33     -2.87935    0.08016
  0    34     -2.78212    0.01188

  1    31     -3.09310    1.50023
  1    32     -3.03837    1.00226
  1    33     -3.01424    0.76543
  1    34     -2.91796    0.16580


Fermi level: -3.03814

Gap: 0.001 eV
Transition (v -> c):
  (s=0, k=1, n=32, [0.12, -0.12, 0.00]) -> (s=0, k=7, n=33, [0.38, 0.38, 0.00])
Writing to output.gpw (mode='')


Forces in eV/Ang:
  0 Li    0.01318    0.00098   -0.27401
  1 Li   -0.00200   -0.00042   -0.26025
  2 Li   -0.01175    0.00002   -0.27329
  3 Li    0.00138    0.00829   -0.27168
  4 Li   -0.00005    0.00203   -0.28129
  5 Li   -0.00128    0.01098   -0.27105
  6 Li    0.00174   -0.00905   -0.27137
  7 Li    0.00078   -0.00103   -0.27983
  8 Li   -0.00255   -0.01092   -0.27168
  9 Li   -0.00030    0.02058    0.31686
 10 Li    0.02121   -0.00500    0.25326
 11 Li   -0.02036   -0.00749    0.25453
 12 Li   -0.00017   -0.01853    0.31309
 13 Li    0.02228    0.00542    0.25329
 14 Li   -0.02177    0.00614    0.25681
 15 Li    0.00005   -0.00150    0.23455
 16 Li   -0.03006   -0.00087    0.26889
 17 Li    0.03015    0.00085    0.26447
 18 Li    0.07350    0.00109   -0.08720
 19 Li    0.00264   -0.00167    0.05988
 20 Li   -0.07349    0.00068   -0.10009
 21 Li   -0.02247   -0.02658    0.06400
 22 Li    0.00136    0.01546    0.02248
 23 Li    0.02118   -0.02479    0.06258
 24 Li   -0.02334    0.02545    0.05684
 25 Li    0.00023   -0.01417    0.02910
 26 Li    0.02307    0.02369    0.05718
 27 Li   -0.00529    0.05950   -0.07250
 28 Li    0.05593   -0.02389   -0.04918
 29 Li   -0.06318   -0.03333   -0.05706
 30 Li    0.00088   -0.05729   -0.11813
 31 Li    0.05378    0.03146   -0.05549
 32 Li   -0.06102    0.03650   -0.05665
 33 Li   -0.00075   -0.00553   -0.02622
 34 Li   -0.01648   -0.00549   -0.01019
 35 Li    0.01735   -0.00274   -0.01246
 36 O     0.24968    0.09609    8.87369
 37 C     0.29019    0.58706    1.23765
 38 C    -0.02750    0.01761    0.08635
 39 H     0.02180   -0.05540   -0.00920
 40 H     0.11341    0.07679    0.34205
 41 H    -0.00789   -0.05624   -0.05505
 42 H    -0.01713    0.07319   -0.02197
 43 H    -0.00308    0.00139   -0.01313
 44 H    -0.86521    0.24232    2.69082
 45 N    -0.92866   -0.32067   -6.97087
 46 N     1.21924   -0.66434   -5.73611

System changes: positions 

Initializing position-dependent things.

Density initialized from wave functions
       .-----------------------.  
      /|                       |  
     / |                       |  
    /  |                       |  
   /   |                       |  
  /    |                       |  
 *     |                       |  
 |     |                       |  
 |     |                       |  
 |     |                       |  
 |     |                       |  
 |    H|                  H    |  
 |   C |                 H  C  |  
 |O    |       Li      Li H    |  
 |    H|                       |  
 |N    |     Li      Li      Li|  
 |     |                  N    |  
 | Li  |  LLi     LLi     Li   |  
 |     |                       |  
 |     |Li      Li      LLi    |  
 |   Li|     Li      Li        |  
 |    Li  Li  Li  Li  Li  Li   |  
 | Li  |   Li      Li          |  
 |     |Li      Li      Li     |  
 Li    | Li      Li            |  
 |    Li      Li      Li       |  
 |     |                       |  
 |     |                       |  
 |     |                       |  
 |     |                       |  
 |     |                       |  
 |     |                       |  
 |     .-----------------------.  
 |    /                       /   
 |   /                       /    
 |  /                       /     
 | /                       /      
 |/                       /       
 *-----------------------*        

Positions:
   0 Li     1.617037    1.617037   10.000000    ( 0.0000,  0.0000,  0.0000)
   1 Li     4.851111    1.617037   10.000000    ( 0.0000,  0.0000,  0.0000)
   2 Li     8.085185    1.617037   10.000000    ( 0.0000,  0.0000,  0.0000)
   3 Li     1.617037    4.851111   10.000000    ( 0.0000,  0.0000,  0.0000)
   4 Li     4.851111    4.851111   10.000000    ( 0.0000,  0.0000,  0.0000)
   5 Li     8.085185    4.851111   10.000000    ( 0.0000,  0.0000,  0.0000)
   6 Li     1.617037    8.085185   10.000000    ( 0.0000,  0.0000,  0.0000)
   7 Li     4.851111    8.085185   10.000000    ( 0.0000,  0.0000,  0.0000)
   8 Li     8.085185    8.085185   10.000000    ( 0.0000,  0.0000,  0.0000)
   9 Li     0.000000    0.000000   11.617037    ( 0.0000,  0.0000,  0.0000)
  10 Li     3.234074    0.000000   11.617037    ( 0.0000,  0.0000,  0.0000)
  11 Li     6.468148    0.000000   11.617037    ( 0.0000,  0.0000,  0.0000)
  12 Li     0.000000    3.234074   11.617037    ( 0.0000,  0.0000,  0.0000)
  13 Li     3.234074    3.234074   11.617037    ( 0.0000,  0.0000,  0.0000)
  14 Li     6.468148    3.234074   11.617037    ( 0.0000,  0.0000,  0.0000)
  15 Li     0.000000    6.468148   11.617037    ( 0.0000,  0.0000,  0.0000)
  16 Li     3.234074    6.468148   11.617037    ( 0.0000,  0.0000,  0.0000)
  17 Li     6.468148    6.468148   11.617037    ( 0.0000,  0.0000,  0.0000)
  18 Li     1.617645    1.617047   13.469008    ( 0.0000,  0.0000,  0.0000)
  19 Li     4.851133    1.617025   13.470225    ( 0.0000,  0.0000,  0.0000)
  20 Li     8.084577    1.617044   13.468900    ( 0.0000,  0.0000,  0.0000)
  21 Li     1.616853    4.850892   13.470258    ( 0.0000,  0.0000,  0.0000)
  22 Li     4.851123    4.851238   13.469917    ( 0.0000,  0.0000,  0.0000)
  23 Li     8.085359    4.850908   13.470246    ( 0.0000,  0.0000,  0.0000)
  24 Li     1.616845    8.085393   13.470197    ( 0.0000,  0.0000,  0.0000)
  25 Li     4.851113    8.085068   13.469972    ( 0.0000,  0.0000,  0.0000)
  26 Li     8.085375    8.085378   13.470200    ( 0.0000,  0.0000,  0.0000)
  27 Li    -0.000043    0.000526   15.445384    ( 0.0000,  0.0000,  0.0000)
  28 Li     3.234533   -0.000195   15.445536    ( 0.0000,  0.0000,  0.0000)
  29 Li     6.467629   -0.000275   15.445469    ( 0.0000,  0.0000,  0.0000)
  30 Li     0.000006    3.233568   15.445003    ( 0.0000,  0.0000,  0.0000)
  31 Li     3.234517    3.234334   15.445483    ( 0.0000,  0.0000,  0.0000)
  32 Li     6.467643    3.234378   15.445471    ( 0.0000,  0.0000,  0.0000)
  33 Li    -0.000007    6.468102   15.445720    ( 0.0000,  0.0000,  0.0000)
  34 Li     3.233941    6.468100   15.445853    ( 0.0000,  0.0000,  0.0000)
  35 Li     6.468288    6.468123   15.445834    ( 0.0000,  0.0000,  0.0000)
  36 O      0.000842    1.617798   19.722931    ( 0.0000,  0.0000,  0.0000)
  37 C      0.819578    2.804701   19.660565    ( 0.0000,  0.0000,  0.0000)
  38 C     -0.003159    4.083755   19.636437    ( 0.0000,  0.0000,  0.0000)
  39 H      1.500298    2.790232   20.510189    ( 0.0000,  0.0000,  0.0000)
  40 H      1.427512    2.724771   18.750209    ( 0.0000,  0.0000,  0.0000)
  41 H      0.651039    4.960097   19.619810    ( 0.0000,  0.0000,  0.0000)
  42 H     -0.652031    4.118994   18.758698    ( 0.0000,  0.0000,  0.0000)
  43 H     -0.631362    4.153852   20.528134    ( 0.0000,  0.0000,  0.0000)
  44 H     -0.589428    1.658012   20.435822    ( 0.0000,  0.0000,  0.0000)
  45 N     -0.007888    1.614259   16.890870    ( 0.0000,  0.0000,  0.0000)
  46 N      0.010493    1.611529   17.989412    ( 0.0000,  0.0000,  0.0000)

Unit cell:
           periodic     x           y           z      points  spacing
  1. axis:    yes    9.702222    0.000000    0.000000    60     0.1617
  2. axis:    yes    0.000000    9.702222    0.000000    60     0.1617
  3. axis:    no     0.000000    0.000000   26.351111   164     0.1607

  Lengths:   9.702222   9.702222  26.351111
  Angles:   90.000000  90.000000  90.000000

Effective grid spacing dv^(1/3) = 0.1614

     iter     time        total  log10-change:
                         energy  eigst   dens
iter:   1 22:14:52  -304.998780  -0.80
iter:   2 22:14:59  -304.991709  -1.50  -2.06
iter:   3 22:15:06  -304.962575  -1.51  -2.16
iter:   4 22:15:13  -304.957903  -1.57  -2.24
Writing to output.gpw (mode='')

iter:   5 22:15:21  -304.956076c -2.41  -2.22
iter:   6 22:15:28  -304.953802c -2.16  -2.52
iter:   7 22:15:35  -304.954260c -2.05  -2.57
iter:   8 22:15:42  -304.953819c -2.80  -2.65
iter:   9 22:15:49  -304.953139c -2.57  -2.68
Writing to output.gpw (mode='')

iter:  10 22:15:56  -304.952991c -2.91  -2.76
iter:  11 22:16:03  -304.953031c -3.22  -2.89
iter:  12 22:16:11  -304.952810c -3.42  -2.94
iter:  13 22:16:18  -304.952727c -3.34  -3.05
iter:  14 22:16:25  -304.952686c -3.57  -3.20
Writing to output.gpw (mode='')

iter:  15 22:16:32  -304.952664c -4.05  -3.26
iter:  16 22:16:39  -304.952679c -3.98  -3.36
iter:  17 22:16:46  -304.952684c -4.41  -3.46
iter:  18 22:16:53  -304.952707c -4.30  -3.49
iter:  19 22:17:01  -304.952690c -4.49  -3.61
Writing to output.gpw (mode='')

iter:  20 22:17:08  -304.952692c -4.98  -3.72
iter:  21 22:17:15  -304.952692c -5.44  -3.77
iter:  22 22:17:22  -304.952696c -4.96  -3.85
iter:  23 22:17:29  -304.952691c -5.28  -3.98
iter:  24 22:17:36  -304.952690c -5.40  -4.18c
Writing to output.gpw (mode='')

iter:  25 22:17:44  -304.952690c -5.48  -4.27c
iter:  26 22:17:51  -304.952690c -6.06  -4.38c
iter:  27 22:17:58  -304.952690c -5.90  -4.44c
iter:  28 22:18:05  -304.952691c -6.00  -4.54c
iter:  29 22:18:12  -304.952691c -6.18  -4.66c
Writing to output.gpw (mode='')

iter:  30 22:18:19  -304.952690c -6.35  -4.76c
iter:  31 22:18:26  -304.952691c -6.34  -4.78c
iter:  32 22:18:33  -304.952691c -6.42  -4.86c
iter:  33 22:18:41  -304.952691c -6.59  -4.97c
iter:  34 22:18:48  -304.952691c -6.91  -4.97c
Writing to output.gpw (mode='')

iter:  35 22:18:55  -304.952691c -7.00  -5.04c
iter:  36 22:19:02  -304.952691c -6.83  -5.27c
iter:  37 22:19:09  -304.952691c -6.77  -5.36c
iter:  38 22:19:16  -304.952691c -7.15  -5.47c
iter:  39 22:19:28  -304.952691c -7.04  -5.48c
Writing to output.gpw (mode='')

iter:  40 22:19:42  -304.952691c -7.14  -5.47c
iter:  41 22:19:49  -304.952691c -7.16  -5.48c
iter:  42 22:19:56  -304.952691c -7.25  -5.51c
iter:  43 22:20:03  -304.952691c -7.32  -5.55c
iter:  44 22:20:11  -304.952691c -7.43c -5.66c

Converged after 44 iterations.

Dipole moment: (-17.675892, -3.227283, 0.344652) |e|*Ang

Energy contributions relative to reference atoms: (reference = -14434.854043)

Kinetic:       +174.336012
Potential:     -162.282557
External:        +0.000000
XC:            -317.670180
Entropy (-ST):   -0.141055
Local:           +0.734562
--------------------------
Free energy:   -305.023219
Extrapolated:  -304.952691

Dipole-layer corrected work functions: 3.381464, 2.718925 eV

Showing only first 2 kpts
 Kpt  Band  Eigenvalues  Occupancy
  0    31     -3.29468    1.98507
  0    32     -3.16893    1.82975
  0    33     -2.89112    0.07973
  0    34     -2.79493    0.01206

  1    31     -3.10442    1.49469
  1    32     -3.05038    1.00191
  1    33     -3.02727    0.77466
  1    34     -2.92525    0.15187


Fermi level: -3.05019

Gap: 0.003 eV
Transition (v -> c):
  (s=0, k=1, n=32, [0.12, -0.12, 0.00]) -> (s=0, k=7, n=33, [0.38, 0.38, 0.00])
Writing to output.gpw (mode='')


Forces in eV/Ang:
  0 Li    0.01289    0.00097   -0.27426
  1 Li   -0.00225   -0.00044   -0.25957
  2 Li   -0.01134    0.00006   -0.27351
  3 Li    0.00170    0.00827   -0.27216
  4 Li   -0.00004    0.00264   -0.28168
  5 Li   -0.00141    0.01118   -0.27156
  6 Li    0.00207   -0.00903   -0.27180
  7 Li    0.00088   -0.00150   -0.28020
  8 Li   -0.00276   -0.01108   -0.27218
  9 Li   -0.00042    0.02081    0.31812
 10 Li    0.02119   -0.00502    0.25340
 11 Li   -0.01994   -0.00751    0.25497
 12 Li   -0.00014   -0.01862    0.31415
 13 Li    0.02219    0.00535    0.25374
 14 Li   -0.02141    0.00615    0.25721
 15 Li   -0.00001   -0.00156    0.23436
 16 Li   -0.03041   -0.00080    0.26859
 17 Li    0.03022    0.00071    0.26445
 18 Li    0.07531    0.00083   -0.08822
 19 Li    0.00293   -0.00168    0.05949
 20 Li   -0.07530    0.00092   -0.10250
 21 Li   -0.02263   -0.02562    0.06205
 22 Li    0.00114    0.01462    0.02281
 23 Li    0.02124   -0.02401    0.06080
 24 Li   -0.02374    0.02464    0.05523
 25 Li    0.00012   -0.01339    0.02971
 26 Li    0.02322    0.02266    0.05529
 27 Li   -0.00755    0.06199   -0.07197
 28 Li    0.05382   -0.02262   -0.04819
 29 Li   -0.06292   -0.03282   -0.05527
 30 Li    0.00108   -0.06187   -0.11689
 31 Li    0.05243    0.03049   -0.05463
 32 Li   -0.05943    0.03579   -0.05452
 33 Li   -0.00091   -0.00577   -0.02780
 34 Li   -0.01491   -0.00564   -0.01099
 35 Li    0.01618   -0.00253   -0.01306
 36 O     0.89639    0.02410    6.66581
 37 C     0.14424    0.43067    1.13875
 38 C    -0.02288    0.03444    0.08758
 39 H     0.15332    0.04956    0.10429
 40 H     0.01690    0.01344    0.41280
 41 H    -0.00759   -0.03609   -0.05093
 42 H    -0.00548    0.05300   -0.01248
 43 H    -0.01256    0.01680   -0.00221
 44 H    -1.24152    0.37437    2.90071
 45 N    -0.78168   -0.26151   -3.61718
 46 N     0.92281   -0.71331   -7.24713

System changes: positions 

Initializing position-dependent things.

Density initialized from wave functions
       .-----------------------.  
      /|                       |  
     / |                       |  
    /  |                       |  
   /   |                       |  
  /    |                       |  
 *     |                       |  
 |     |                       |  
 |     |                       |  
 |     |                       |  
 |     |                       |  
 |    H|                  H    |  
 |   C |                 H  C  |  
 |O    |       Li      Li H    |  
 |    H|                       |  
 |N    |     Li      Li      Li|  
 |     |                       |  
 | Li  |  LLi     LLi     Ni   |  
 |     |                       |  
 |     |Li      Li      LLi    |  
 |   Li|     Li      Li        |  
 |    Li  Li  Li  Li  Li  Li   |  
 | Li  |   Li      Li          |  
 |     |Li      Li      Li     |  
 Li    | Li      Li            |  
 |    Li      Li      Li       |  
 |     |                       |  
 |     |                       |  
 |     |                       |  
 |     |                       |  
 |     |                       |  
 |     |                       |  
 |     .-----------------------.  
 |    /                       /   
 |   /                       /    
 |  /                       /     
 | /                       /      
 |/                       /       
 *-----------------------*        

Positions:
   0 Li     1.617037    1.617037   10.000000    ( 0.0000,  0.0000,  0.0000)
   1 Li     4.851111    1.617037   10.000000    ( 0.0000,  0.0000,  0.0000)
   2 Li     8.085185    1.617037   10.000000    ( 0.0000,  0.0000,  0.0000)
   3 Li     1.617037    4.851111   10.000000    ( 0.0000,  0.0000,  0.0000)
   4 Li     4.851111    4.851111   10.000000    ( 0.0000,  0.0000,  0.0000)
   5 Li     8.085185    4.851111   10.000000    ( 0.0000,  0.0000,  0.0000)
   6 Li     1.617037    8.085185   10.000000    ( 0.0000,  0.0000,  0.0000)
   7 Li     4.851111    8.085185   10.000000    ( 0.0000,  0.0000,  0.0000)
   8 Li     8.085185    8.085185   10.000000    ( 0.0000,  0.0000,  0.0000)
   9 Li     0.000000    0.000000   11.617037    ( 0.0000,  0.0000,  0.0000)
  10 Li     3.234074    0.000000   11.617037    ( 0.0000,  0.0000,  0.0000)
  11 Li     6.468148    0.000000   11.617037    ( 0.0000,  0.0000,  0.0000)
  12 Li     0.000000    3.234074   11.617037    ( 0.0000,  0.0000,  0.0000)
  13 Li     3.234074    3.234074   11.617037    ( 0.0000,  0.0000,  0.0000)
  14 Li     6.468148    3.234074   11.617037    ( 0.0000,  0.0000,  0.0000)
  15 Li     0.000000    6.468148   11.617037    ( 0.0000,  0.0000,  0.0000)
  16 Li     3.234074    6.468148   11.617037    ( 0.0000,  0.0000,  0.0000)
  17 Li     6.468148    6.468148   11.617037    ( 0.0000,  0.0000,  0.0000)
  18 Li     1.618317    1.617053   13.468223    ( 0.0000,  0.0000,  0.0000)
  19 Li     4.851157    1.617010   13.470746    ( 0.0000,  0.0000,  0.0000)
  20 Li     8.083903    1.617053   13.467992    ( 0.0000,  0.0000,  0.0000)
  21 Li     1.616653    4.850665   13.470804    ( 0.0000,  0.0000,  0.0000)
  22 Li     4.851130    4.851371   13.470113    ( 0.0000,  0.0000,  0.0000)
  23 Li     8.085547    4.850690   13.470782    ( 0.0000,  0.0000,  0.0000)
  24 Li     1.616635    8.085614   13.470684    ( 0.0000,  0.0000,  0.0000)
  25 Li     4.851113    8.084945   13.470227    ( 0.0000,  0.0000,  0.0000)
  26 Li     8.085580    8.085583   13.470688    ( 0.0000,  0.0000,  0.0000)
  27 Li    -0.000119    0.000906   15.444526    ( 0.0000,  0.0000,  0.0000)
  28 Li     3.235018   -0.000403   15.445094    ( 0.0000,  0.0000,  0.0000)
  29 Li     6.467060   -0.000567   15.444977    ( 0.0000,  0.0000,  0.0000)
  30 Li     0.000021    3.233171   15.443767    ( 0.0000,  0.0000,  0.0000)
  31 Li     3.234998    3.234612   15.444983    ( 0.0000,  0.0000,  0.0000)
  32 Li     6.467113    3.234694   15.444987    ( 0.0000,  0.0000,  0.0000)
  33 Li    -0.000013    6.468052   15.445480    ( 0.0000,  0.0000,  0.0000)
  34 Li     3.233810    6.468049   15.445758    ( 0.0000,  0.0000,  0.0000)
  35 Li     6.468431    6.468102   15.445722    ( 0.0000,  0.0000,  0.0000)
  36 O      0.016791    1.617979   19.757097    ( 0.0000,  0.0000,  0.0000)
  37 C      0.818296    2.806014   19.669855    ( 0.0000,  0.0000,  0.0000)
  38 C     -0.002990    4.084358   19.637117    ( 0.0000,  0.0000,  0.0000)
  39 H      1.502912    2.791634   20.512102    ( 0.0000,  0.0000,  0.0000)
  40 H      1.426924    2.724302   18.754363    ( 0.0000,  0.0000,  0.0000)
  41 H      0.650876    4.959958   19.619391    ( 0.0000,  0.0000,  0.0000)
  42 H     -0.652019    4.119312   18.758647    ( 0.0000,  0.0000,  0.0000)
  43 H     -0.631562    4.154075   20.528262    ( 0.0000,  0.0000,  0.0000)
  44 H     -0.605016    1.662680   20.465009    ( 0.0000,  0.0000,  0.0000)
  45 N     -0.013304    1.612572   16.855368    ( 0.0000,  0.0000,  0.0000)
  46 N      0.015703    1.604985   17.950297    ( 0.0000,  0.0000,  0.0000)

Unit cell:
           periodic     x           y           z      points  spacing
  1. axis:    yes    9.702222    0.000000    0.000000    60     0.1617
  2. axis:    yes    0.000000    9.702222    0.000000    60     0.1617
  3. axis:    no     0.000000    0.000000   26.351111   164     0.1607

  Lengths:   9.702222   9.702222  26.351111
  Angles:   90.000000  90.000000  90.000000

Effective grid spacing dv^(1/3) = 0.1614

     iter     time        total  log10-change:
                         energy  eigst   dens
iter:   1 22:20:19  -305.819633  -0.72
iter:   2 22:20:26  -305.704164  -0.86  -1.54
iter:   3 22:20:33  -305.671083  -1.74  -1.74
iter:   4 22:20:41  -305.664253  -0.93  -2.15
Writing to output.gpw (mode='')

iter:   5 22:20:48  -305.651292c -1.86  -2.00
iter:   6 22:20:55  -305.652006c -1.80  -2.32
iter:   7 22:21:02  -305.652303c -1.82  -2.50
iter:   8 22:21:09  -305.650852c -2.48  -2.41
iter:   9 22:21:16  -305.650720c -2.64  -2.54
Writing to output.gpw (mode='')

iter:  10 22:21:24  -305.650410c -2.57  -2.65
iter:  11 22:21:31  -305.650511c -3.34  -2.90
iter:  12 22:21:38  -305.650412c -3.25  -2.91
iter:  13 22:21:45  -305.650433c -3.06  -3.09
iter:  14 22:21:52  -305.650436c -3.74  -3.15
Writing to output.gpw (mode='')

iter:  15 22:22:00  -305.650440c -3.79  -3.27
iter:  16 22:22:07  -305.650462c -3.95  -3.55
iter:  17 22:22:14  -305.650467c -4.34  -3.60
iter:  18 22:22:21  -305.650462c -4.21  -3.65
iter:  19 22:22:28  -305.650467c -4.50  -3.72
Writing to output.gpw (mode='')

iter:  20 22:22:35  -305.650470c -4.78  -3.88
iter:  21 22:22:42  -305.650474c -4.67  -3.95
iter:  22 22:22:50  -305.650478c -4.92  -4.06c
iter:  23 22:22:57  -305.650480c -5.12  -4.13c
iter:  24 22:23:04  -305.650482c -5.09  -4.28c
Writing to output.gpw (mode='')

iter:  25 22:23:11  -305.650482c -5.13  -4.39c
iter:  26 22:23:18  -305.650483c -5.47  -4.50c
iter:  27 22:23:25  -305.650482c -5.49  -4.54c
iter:  28 22:23:32  -305.650482c -5.58  -4.65c
iter:  29 22:23:40  -305.650483c -5.86  -4.76c
Writing to output.gpw (mode='')

iter:  30 22:23:47  -305.650483c -5.85  -4.80c
iter:  31 22:23:54  -305.650483c -5.93  -4.95c
iter:  32 22:24:01  -305.650484c -5.92  -5.03c
iter:  33 22:24:08  -305.650484c -6.19  -5.08c
iter:  34 22:24:15  -305.650484c -6.17  -5.17c
Writing to output.gpw (mode='')

iter:  35 22:24:29  -305.650484c -6.46  -5.33c
iter:  36 22:24:43  -305.650484c -6.49  -5.33c
iter:  37 22:24:50  -305.650484c -6.35  -5.34c
iter:  38 22:24:57  -305.650484c -6.49  -5.44c
iter:  39 22:25:04  -305.650484c -6.63  -5.55c
Writing to output.gpw (mode='')

iter:  40 22:25:11  -305.650484c -6.54  -5.58c
iter:  41 22:25:18  -305.650484c -6.83  -5.58c
iter:  42 22:25:26  -305.650484c -6.84  -5.57c
iter:  43 22:25:33  -305.650484c -6.95  -5.52c
iter:  44 22:25:40  -305.650484c -6.86  -5.62c
Writing to output.gpw (mode='')

iter:  45 22:25:47  -305.650484c -6.95  -5.61c
iter:  46 22:25:57  -305.650484c -7.01  -5.57c
iter:  47 22:26:04  -305.650484c -6.71  -5.54c
iter:  48 22:26:11  -305.650484c -7.27  -5.42c
iter:  49 22:26:19  -305.650484c -7.46c -5.37c

Converged after 49 iterations.

Dipole moment: (-18.976459, -3.211992, 0.330180) |e|*Ang

Energy contributions relative to reference atoms: (reference = -14434.854043)

Kinetic:       +171.351748
Potential:     -160.297636
External:        +0.000000
XC:            -317.373885
Entropy (-ST):   -0.140692
Local:           +0.739636
--------------------------
Free energy:   -305.720830
Extrapolated:  -305.650484

Dipole-layer corrected work functions: 3.381897, 2.747178 eV

Showing only first 2 kpts
 Kpt  Band  Eigenvalues  Occupancy
  0    31     -3.30888    1.98502
  0    32     -3.18150    1.82416
  0    33     -2.90494    0.07894
  0    34     -2.80965    0.01215

  1    31     -3.11768    1.48643
  1    32     -3.06481    1.00272
  1    33     -3.04219    0.78017
  1    34     -2.93700    0.14476


Fermi level: -3.06454

Gap: 0.004 eV
Transition (v -> c):
  (s=0, k=1, n=32, [0.12, -0.12, 0.00]) -> (s=0, k=7, n=33, [0.38, 0.38, 0.00])
Writing to output.gpw (mode='')


Forces in eV/Ang:
  0 Li    0.01266    0.00090   -0.27425
  1 Li   -0.00230   -0.00038   -0.25905
  2 Li   -0.01112    0.00009   -0.27358
  3 Li    0.00183    0.00832   -0.27239
  4 Li   -0.00001    0.00303   -0.28183
  5 Li   -0.00135    0.01115   -0.27186
  6 Li    0.00217   -0.00904   -0.27207
  7 Li    0.00090   -0.00184   -0.28042
  8 Li   -0.00264   -0.01107   -0.27245
  9 Li   -0.00046    0.02117    0.31872
 10 Li    0.02166   -0.00542    0.25335
 11 Li   -0.02014   -0.00772    0.25491
 12 Li   -0.00012   -0.01893    0.31489
 13 Li    0.02257    0.00568    0.25381
 14 Li   -0.02154    0.00642    0.25701
 15 Li   -0.00011   -0.00146    0.23428
 16 Li   -0.03104   -0.00073    0.26841
 17 Li    0.03057    0.00059    0.26511
 18 Li    0.07684    0.00061   -0.08820
 19 Li    0.00289   -0.00164    0.05836
 20 Li   -0.07696    0.00097   -0.10285
 21 Li   -0.02274   -0.02541    0.06105
 22 Li    0.00082    0.01471    0.02239
 23 Li    0.02131   -0.02408    0.05993
 24 Li   -0.02389    0.02460    0.05470
 25 Li   -0.00007   -0.01362    0.02908
 26 Li    0.02317    0.02275    0.05461
 27 Li   -0.00853    0.03411   -0.10866
 28 Li    0.05372   -0.02269   -0.04967
 29 Li   -0.06351   -0.03271   -0.05540
 30 Li    0.00058   -0.04097   -0.14755
 31 Li    0.05277    0.03038   -0.05573
 32 Li   -0.05930    0.03549   -0.05443
 33 Li   -0.00098   -0.00574   -0.02764
 34 Li   -0.01422   -0.00549   -0.01113
 35 Li    0.01581   -0.00241   -0.01276
 36 O     0.27257   -0.10230    5.62642
 37 C     0.19757    0.36121    0.94134
 38 C    -0.05416    0.02375    0.10071
 39 H     0.26909    0.18081    0.18701
 40 H    -0.07221   -0.01763    0.49167
 41 H     0.00264   -0.01371   -0.04612
 42 H     0.00551    0.03432    0.00150
 43 H    -0.02791    0.04140    0.00758
 44 H    -0.52872    0.40313    1.77250
 45 N    -0.67481   -0.17538   -3.86151
 46 N     0.62487   -0.74101   -4.85849

System changes: positions 

Initializing position-dependent things.

Density initialized from wave functions
       .-----------------------.  
      /|                       |  
     / |                       |  
    /  |                       |  
   /   |                       |  
  /    |                       |  
 *     |                       |  
 |     |                       |  
 |     |                       |  
 |     |                       |  
 |     |                       |  
 |    H|                  H    |  
 |   C |                 H  C  |  
 |O    |       Li      Li H    |  
 |    H|                       |  
 |N    |     Li      Li      Li|  
 |     |                       |  
 | Li  |  LLi     LLi     Ni   |  
 |     |                       |  
 |     |Li      Li      LLi    |  
 |   Li|     Li      Li        |  
 |    Li  Li  Li  Li  Li  Li   |  
 | Li  |   Li      Li          |  
 |     |Li      Li      Li     |  
 Li    | Li      Li            |  
 |    Li      Li      Li       |  
 |     |                       |  
 |     |                       |  
 |     |                       |  
 |     |                       |  
 |     |                       |  
 |     |                       |  
 |     .-----------------------.  
 |    /                       /   
 |   /                       /    
 |  /                       /     
 | /                       /      
 |/                       /       
 *-----------------------*        

Positions:
   0 Li     1.617037    1.617037   10.000000    ( 0.0000,  0.0000,  0.0000)
   1 Li     4.851111    1.617037   10.000000    ( 0.0000,  0.0000,  0.0000)
   2 Li     8.085185    1.617037   10.000000    ( 0.0000,  0.0000,  0.0000)
   3 Li     1.617037    4.851111   10.000000    ( 0.0000,  0.0000,  0.0000)
   4 Li     4.851111    4.851111   10.000000    ( 0.0000,  0.0000,  0.0000)
   5 Li     8.085185    4.851111   10.000000    ( 0.0000,  0.0000,  0.0000)
   6 Li     1.617037    8.085185   10.000000    ( 0.0000,  0.0000,  0.0000)
   7 Li     4.851111    8.085185   10.000000    ( 0.0000,  0.0000,  0.0000)
   8 Li     8.085185    8.085185   10.000000    ( 0.0000,  0.0000,  0.0000)
   9 Li     0.000000    0.000000   11.617037    ( 0.0000,  0.0000,  0.0000)
  10 Li     3.234074    0.000000   11.617037    ( 0.0000,  0.0000,  0.0000)
  11 Li     6.468148    0.000000   11.617037    ( 0.0000,  0.0000,  0.0000)
  12 Li     0.000000    3.234074   11.617037    ( 0.0000,  0.0000,  0.0000)
  13 Li     3.234074    3.234074   11.617037    ( 0.0000,  0.0000,  0.0000)
  14 Li     6.468148    3.234074   11.617037    ( 0.0000,  0.0000,  0.0000)
  15 Li     0.000000    6.468148   11.617037    ( 0.0000,  0.0000,  0.0000)
  16 Li     3.234074    6.468148   11.617037    ( 0.0000,  0.0000,  0.0000)
  17 Li     6.468148    6.468148   11.617037    ( 0.0000,  0.0000,  0.0000)
  18 Li     1.619247    1.617057   13.467166    ( 0.0000,  0.0000,  0.0000)
  19 Li     4.851191    1.616991   13.471431    ( 0.0000,  0.0000,  0.0000)
  20 Li     8.082969    1.617067   13.466758    ( 0.0000,  0.0000,  0.0000)
  21 Li     1.616382    4.850366   13.471519    ( 0.0000,  0.0000,  0.0000)
  22 Li     4.851136    4.851546   13.470375    ( 0.0000,  0.0000,  0.0000)
  23 Li     8.085801    4.850401   13.471487    ( 0.0000,  0.0000,  0.0000)
  24 Li     1.616350    8.085906   13.471328    ( 0.0000,  0.0000,  0.0000)
  25 Li     4.851109    8.084781   13.470567    ( 0.0000,  0.0000,  0.0000)
  26 Li     8.085855    8.085856   13.471329    ( 0.0000,  0.0000,  0.0000)
  27 Li    -0.000238    0.001088   15.442929    ( 0.0000,  0.0000,  0.0000)
  28 Li     3.235658   -0.000676   15.444488    ( 0.0000,  0.0000,  0.0000)
  29 Li     6.466293   -0.000957   15.444319    ( 0.0000,  0.0000,  0.0000)
  30 Li     0.000031    3.232863   15.441744    ( 0.0000,  0.0000,  0.0000)
  31 Li     3.235637    3.234978   15.444303    ( 0.0000,  0.0000,  0.0000)
  32 Li     6.466408    3.235113   15.444345    ( 0.0000,  0.0000,  0.0000)
  33 Li    -0.000025    6.467983   15.445151    ( 0.0000,  0.0000,  0.0000)
  34 Li     3.233648    6.467983   15.445624    ( 0.0000,  0.0000,  0.0000)
  35 Li     6.468614    6.468076   15.445573    ( 0.0000,  0.0000,  0.0000)
  36 O      0.026826    1.616112   19.792988    ( 0.0000,  0.0000,  0.0000)
  37 C      0.818201    2.807496   19.679468    ( 0.0000,  0.0000,  0.0000)
  38 C     -0.003404    4.084912   19.638281    ( 0.0000,  0.0000,  0.0000)
  39 H      1.507954    2.795343   20.515778    ( 0.0000,  0.0000,  0.0000)
  40 H      1.424859    2.723301   18.761112    ( 0.0000,  0.0000,  0.0000)
  41 H      0.650859    4.960081   19.618896    ( 0.0000,  0.0000,  0.0000)
  42 H     -0.651831    4.119472   18.758788    ( 0.0000,  0.0000,  0.0000)
  43 H     -0.632048    4.154757   20.528542    ( 0.0000,  0.0000,  0.0000)
  44 H     -0.614094    1.669125   20.486150    ( 0.0000,  0.0000,  0.0000)
  45 N     -0.019278    1.611471   16.815832    ( 0.0000,  0.0000,  0.0000)
  46 N      0.018781    1.595725   17.916709    ( 0.0000,  0.0000,  0.0000)

Unit cell:
           periodic     x           y           z      points  spacing
  1. axis:    yes    9.702222    0.000000    0.000000    60     0.1617
  2. axis:    yes    0.000000    9.702222    0.000000    60     0.1617
  3. axis:    no     0.000000    0.000000   26.351111   164     0.1607

  Lengths:   9.702222   9.702222  26.351111
  Angles:   90.000000  90.000000  90.000000

Effective grid spacing dv^(1/3) = 0.1614

     iter     time        total  log10-change:
                         energy  eigst   dens
iter:   1 22:26:27  -306.254577  -0.77
iter:   2 22:26:34  -306.207636  -1.18  -1.70
iter:   3 22:26:41  -306.193070  -2.00  -1.90
iter:   4 22:26:49  -306.188760c -1.22  -2.28
Writing to output.gpw (mode='')

iter:   5 22:26:56  -306.184730c -2.22  -2.22
iter:   6 22:27:03  -306.184329c -2.26  -2.47
iter:   7 22:27:10  -306.185475c -2.18  -2.72
iter:   8 22:27:17  -306.184285c -2.76  -2.65
iter:   9 22:27:24  -306.184088c -2.74  -2.83
Writing to output.gpw (mode='')

iter:  10 22:27:31  -306.184099c -3.49  -3.08
iter:  11 22:27:38  -306.184111c -3.53  -3.14
iter:  12 22:27:45  -306.184069c -3.67  -3.15
iter:  13 22:27:53  -306.184061c -4.12  -3.27
iter:  14 22:28:00  -306.184054c -4.14  -3.33
Writing to output.gpw (mode='')

iter:  15 22:28:07  -306.184082c -3.96  -3.46
iter:  16 22:28:14  -306.184080c -4.56  -3.50
iter:  17 22:28:21  -306.184083c -4.56  -3.78
iter:  18 22:28:28  -306.184086c -4.92  -3.89
iter:  19 22:28:35  -306.184088c -4.94  -3.93
Writing to output.gpw (mode='')

iter:  20 22:28:42  -306.184090c -5.32  -3.98
iter:  21 22:28:49  -306.184091c -5.50  -4.28c
iter:  22 22:28:57  -306.184091c -5.43  -4.33c
iter:  23 22:29:04  -306.184092c -5.76  -4.38c
iter:  24 22:29:11  -306.184092c -5.71  -4.47c
Writing to output.gpw (mode='')

iter:  25 22:29:20  -306.184092c -6.05  -4.55c
iter:  26 22:29:35  -306.184092c -5.75  -4.66c
iter:  27 22:29:46  -306.184093c -5.91  -4.69c
iter:  28 22:29:53  -306.184093c -6.29  -4.74c
iter:  29 22:30:00  -306.184093c -6.42  -4.83c
Writing to output.gpw (mode='')

iter:  30 22:30:07  -306.184093c -6.21  -4.81c
iter:  31 22:30:14  -306.184093c -6.30  -4.79c
iter:  32 22:30:21  -306.184093c -6.55  -4.84c
iter:  33 22:30:28  -306.184093c -6.47  -4.81c
iter:  34 22:30:35  -306.184093c -6.70  -4.80c
Writing to output.gpw (mode='')

iter:  35 22:30:43  -306.184093c -6.74  -4.79c
iter:  36 22:30:50  -306.184094c -6.97  -4.76c
iter:  37 22:30:57  -306.184094c -7.11  -4.76c
iter:  38 22:31:04  -306.184094c -6.89  -4.74c
iter:  39 22:31:11  -306.184093c -7.05  -4.73c
Writing to output.gpw (mode='')

iter:  40 22:31:18  -306.184093c -7.21  -4.77c
iter:  41 22:31:25  -306.184093c -7.21  -4.75c
iter:  42 22:31:32  -306.184093c -7.24  -4.74c
iter:  43 22:31:39  -306.184093c -7.38  -4.75c
iter:  44 22:31:46  -306.184093c -7.73c -4.79c

Converged after 44 iterations.

Dipole moment: (-19.413804, -3.167899, 0.309674) |e|*Ang

Energy contributions relative to reference atoms: (reference = -14434.854043)

Kinetic:       +168.001086
Potential:     -157.866436
External:        +0.000000
XC:            -316.992566
Entropy (-ST):   -0.140480
Local:           +0.744062
--------------------------
Free energy:   -306.254333
Extrapolated:  -306.184093

Dipole-layer corrected work functions: 3.382818, 2.787518 eV

Showing only first 2 kpts
 Kpt  Band  Eigenvalues  Occupancy
  0    31     -3.32927    1.98495
  0    32     -3.19929    1.81482
  0    33     -2.92520    0.07838
  0    34     -2.83136    0.01241

  1    31     -3.13734    1.47901
  1    32     -3.08539    1.00222
  1    33     -3.06368    0.78833
  1    34     -2.95382    0.13484


Fermi level: -3.08517

Gap: 0.005 eV
Transition (v -> c):
  (s=0, k=1, n=32, [0.12, -0.12, 0.00]) -> (s=0, k=7, n=33, [0.38, 0.38, 0.00])
Writing to output.gpw (mode='')


Forces in eV/Ang:
  0 Li    0.01243    0.00085   -0.27443
  1 Li   -0.00245   -0.00032   -0.25846
  2 Li   -0.01081    0.00010   -0.27379
  3 Li    0.00205    0.00843   -0.27285
  4 Li    0.00002    0.00359   -0.28216
  5 Li   -0.00133    0.01130   -0.27239
  6 Li    0.00237   -0.00908   -0.27258
  7 Li    0.00095   -0.00220   -0.28083
  8 Li   -0.00261   -0.01120   -0.27296
  9 Li   -0.00052    0.02134    0.31968
 10 Li    0.02208   -0.00580    0.25346
 11 Li   -0.02020   -0.00799    0.25511
 12 Li   -0.00013   -0.01894    0.31590
 13 Li    0.02284    0.00595    0.25412
 14 Li   -0.02146    0.00667    0.25726
 15 Li   -0.00022   -0.00132    0.23426
 16 Li   -0.03154   -0.00071    0.26824
 17 Li    0.03072    0.00047    0.26565
 18 Li    0.07796    0.00035   -0.08798
 19 Li    0.00297   -0.00163    0.05696
 20 Li   -0.07807    0.00098   -0.10306
 21 Li   -0.02261   -0.02451    0.05889
 22 Li    0.00055    0.01422    0.02203
 23 Li    0.02101   -0.02329    0.05774
 24 Li   -0.02380    0.02382    0.05291
 25 Li   -0.00028   -0.01335    0.02869
 26 Li    0.02280    0.02199    0.05261
 27 Li   -0.00934    0.00914   -0.13628
 28 Li    0.05257   -0.02206   -0.04999
 29 Li   -0.06324   -0.03212   -0.05441
 30 Li   -0.00004   -0.02691   -0.16825
 31 Li    0.05197    0.02968   -0.05572
 32 Li   -0.05813    0.03471   -0.05306
 33 Li   -0.00104   -0.00598   -0.02811
 34 Li   -0.01305   -0.00541   -0.01151
 35 Li    0.01501   -0.00232   -0.01275
 36 O     0.36170   -0.15036    4.30164
 37 C     0.15237    0.25690    0.85394
 38 C    -0.04926    0.00967    0.10622
 39 H     0.32064    0.27708    0.22370
 40 H    -0.12209   -0.07040    0.49589
 41 H     0.00065   -0.00756   -0.03898
 42 H     0.01391    0.01297    0.01142
 43 H    -0.04667    0.06572    0.02483
 44 H    -0.43027    0.46662    1.44781
 45 N    -0.56364   -0.07729   -2.86293
 46 N     0.41735   -0.78403   -4.05875

System changes: positions 

Initializing position-dependent things.

Density initialized from wave functions
       .-----------------------.  
      /|                       |  
     / |                       |  
    /  |                       |  
   /   |                       |  
  /    |                       |  
 *     |                       |  
 |     |                       |  
 |     |                       |  
 |     |                       |  
 |     |                  H    |  
 |    H|                       |  
 |   C |                H   C  |  
 |O    |       Li      Li H    |  
 |    H|                       |  
 |N    |     Li      Li      Li|  
 |     |                       |  
 | Li  |  LLi     LLi     Ni   |  
 |     |                       |  
 |     |Li      Li      LLi    |  
 |   Li|     Li      Li        |  
 |    Li  Li  Li  Li  Li  Li   |  
 | Li  |   Li      Li          |  
 |     |Li      Li      Li     |  
 Li    | Li      Li            |  
 |    Li      Li      Li       |  
 |     |                       |  
 |     |                       |  
 |     |                       |  
 |     |                       |  
 |     |                       |  
 |     |                       |  
 |     .-----------------------.  
 |    /                       /   
 |   /                       /    
 |  /                       /     
 | /                       /      
 |/                       /       
 *-----------------------*        

Positions:
   0 Li     1.617037    1.617037   10.000000    ( 0.0000,  0.0000,  0.0000)
   1 Li     4.851111    1.617037   10.000000    ( 0.0000,  0.0000,  0.0000)
   2 Li     8.085185    1.617037   10.000000    ( 0.0000,  0.0000,  0.0000)
   3 Li     1.617037    4.851111   10.000000    ( 0.0000,  0.0000,  0.0000)
   4 Li     4.851111    4.851111   10.000000    ( 0.0000,  0.0000,  0.0000)
   5 Li     8.085185    4.851111   10.000000    ( 0.0000,  0.0000,  0.0000)
   6 Li     1.617037    8.085185   10.000000    ( 0.0000,  0.0000,  0.0000)
   7 Li     4.851111    8.085185   10.000000    ( 0.0000,  0.0000,  0.0000)
   8 Li     8.085185    8.085185   10.000000    ( 0.0000,  0.0000,  0.0000)
   9 Li     0.000000    0.000000   11.617037    ( 0.0000,  0.0000,  0.0000)
  10 Li     3.234074    0.000000   11.617037    ( 0.0000,  0.0000,  0.0000)
  11 Li     6.468148    0.000000   11.617037    ( 0.0000,  0.0000,  0.0000)
  12 Li     0.000000    3.234074   11.617037    ( 0.0000,  0.0000,  0.0000)
  13 Li     3.234074    3.234074   11.617037    ( 0.0000,  0.0000,  0.0000)
  14 Li     6.468148    3.234074   11.617037    ( 0.0000,  0.0000,  0.0000)
  15 Li     0.000000    6.468148   11.617037    ( 0.0000,  0.0000,  0.0000)
  16 Li     3.234074    6.468148   11.617037    ( 0.0000,  0.0000,  0.0000)
  17 Li     6.468148    6.468148   11.617037    ( 0.0000,  0.0000,  0.0000)
  18 Li     1.620492    1.617058   13.465775    ( 0.0000,  0.0000,  0.0000)
  19 Li     4.851237    1.616965   13.472316    ( 0.0000,  0.0000,  0.0000)
  20 Li     8.081720    1.617084   13.465127    ( 0.0000,  0.0000,  0.0000)
  21 Li     1.616025    4.849984   13.472431    ( 0.0000,  0.0000,  0.0000)
  22 Li     4.851141    4.851771   13.470715    ( 0.0000,  0.0000,  0.0000)
  23 Li     8.086132    4.850033   13.472383    ( 0.0000,  0.0000,  0.0000)
  24 Li     1.615974    8.086279   13.472151    ( 0.0000,  0.0000,  0.0000)
  25 Li     4.851102    8.084569   13.471010    ( 0.0000,  0.0000,  0.0000)
  26 Li     8.086213    8.086203   13.472146    ( 0.0000,  0.0000,  0.0000)
  27 Li    -0.000403    0.000944   15.440409    ( 0.0000,  0.0000,  0.0000)
  28 Li     3.236486   -0.001026   15.443684    ( 0.0000,  0.0000,  0.0000)
  29 Li     6.465285   -0.001462   15.443465    ( 0.0000,  0.0000,  0.0000)
  30 Li     0.000032    3.232661   15.438773    ( 0.0000,  0.0000,  0.0000)
  31 Li     3.236467    3.235448   15.443408    ( 0.0000,  0.0000,  0.0000)
  32 Li     6.465495    3.235656   15.443515    ( 0.0000,  0.0000,  0.0000)
  33 Li    -0.000041    6.467889   15.444709    ( 0.0000,  0.0000,  0.0000)
  34 Li     3.233451    6.467898   15.445441    ( 0.0000,  0.0000,  0.0000)
  35 Li     6.468844    6.468041   15.445375    ( 0.0000,  0.0000,  0.0000)
  36 O      0.038991    1.613023   19.827920    ( 0.0000,  0.0000,  0.0000)
  37 C      0.818137    2.808565   19.691157    ( 0.0000,  0.0000,  0.0000)
  38 C     -0.003943    4.085296   19.639930    ( 0.0000,  0.0000,  0.0000)
  39 H      1.514896    2.801429   20.520776    ( 0.0000,  0.0000,  0.0000)
  40 H      1.421670    2.721323   18.769796    ( 0.0000,  0.0000,  0.0000)
  41 H      0.650817    4.960254   19.618350    ( 0.0000,  0.0000,  0.0000)
  42 H     -0.651479    4.119392   18.759109    ( 0.0000,  0.0000,  0.0000)
  43 H     -0.632974    4.156026   20.529155    ( 0.0000,  0.0000,  0.0000)
  44 H     -0.623070    1.678178   20.507951    ( 0.0000,  0.0000,  0.0000)
  45 N     -0.025927    1.611429   16.776388    ( 0.0000,  0.0000,  0.0000)
  46 N      0.020672    1.582880   17.881029    ( 0.0000,  0.0000,  0.0000)

Unit cell:
           periodic     x           y           z      points  spacing
  1. axis:    yes    9.702222    0.000000    0.000000    60     0.1617
  2. axis:    yes    0.000000    9.702222    0.000000    60     0.1617
  3. axis:    no     0.000000    0.000000   26.351111   164     0.1607

  Lengths:   9.702222   9.702222  26.351111
  Angles:   90.000000  90.000000  90.000000

Effective grid spacing dv^(1/3) = 0.1614

     iter     time        total  log10-change:
                         energy  eigst   dens
iter:   1 22:31:55  -306.683981  -0.76
iter:   2 22:32:02  -306.640387  -1.24  -1.72
iter:   3 22:32:09  -306.627394  -2.04  -1.92
iter:   4 22:32:16  -306.623137c -1.31  -2.29
Writing to output.gpw (mode='')

iter:   5 22:32:23  -306.619641c -2.34  -2.27
iter:   6 22:32:31  -306.619309c -2.39  -2.51
iter:   7 22:32:38  -306.620316c -2.28  -2.72
iter:   8 22:32:45  -306.619382c -2.62  -2.68
iter:   9 22:32:52  -306.619284c -3.29  -2.75
Writing to output.gpw (mode='')

iter:  10 22:32:59  -306.619222c -3.24  -3.04
iter:  11 22:33:06  -306.619198c -3.69  -3.14
iter:  12 22:33:13  -306.619176c -3.56  -3.24
iter:  13 22:33:21  -306.619180c -4.04  -3.41
iter:  14 22:33:28  -306.619182c -4.04  -3.49
Writing to output.gpw (mode='')

iter:  15 22:33:35  -306.619190c -4.47  -3.66
iter:  16 22:33:42  -306.619208c -4.47  -3.70
iter:  17 22:33:49  -306.619221c -4.47  -3.82
iter:  18 22:33:56  -306.619218c -5.19  -3.79
iter:  19 22:34:03  -306.619212c -4.80  -3.87
Writing to output.gpw (mode='')

iter:  20 22:34:10  -306.619213c -5.20  -4.11c
iter:  21 22:34:18  -306.619212c -5.38  -4.23c
iter:  22 22:34:36  -306.619212c -5.28  -4.24c
iter:  23 22:34:45  -306.619214c -5.71  -4.24c
iter:  24 22:34:52  -306.619216c -5.93  -4.40c
Writing to output.gpw (mode='')

iter:  25 22:34:59  -306.619215c -6.11  -4.52c
iter:  26 22:35:06  -306.619215c -5.89  -4.64c
iter:  27 22:35:13  -306.619215c -6.25  -4.74c
iter:  28 22:35:20  -306.619216c -6.20  -4.77c
iter:  29 22:35:27  -306.619216c -6.34  -4.81c
Writing to output.gpw (mode='')

iter:  30 22:35:35  -306.619216c -6.45  -4.91c
iter:  31 22:35:42  -306.619216c -6.63  -4.91c
iter:  32 22:35:49  -306.619216c -6.75  -4.89c
iter:  33 22:35:56  -306.619216c -6.79  -4.86c
iter:  34 22:36:03  -306.619216c -6.91  -4.86c
Writing to output.gpw (mode='')

iter:  35 22:36:10  -306.619216c -7.14  -4.94c
iter:  36 22:36:17  -306.619216c -7.28  -4.92c
iter:  37 22:36:24  -306.619215c -7.13  -5.01c
iter:  38 22:36:32  -306.619216c -7.36  -4.89c
iter:  39 22:36:39  -306.619216c -7.53c -5.06c

Converged after 39 iterations.

Dipole moment: (-19.765012, -3.119929, 0.287002) |e|*Ang

Energy contributions relative to reference atoms: (reference = -14434.854043)

Kinetic:       +165.133232
Potential:     -155.782706
External:        +0.000000
XC:            -316.647104
Entropy (-ST):   -0.140342
Local:           +0.747534
--------------------------
Free energy:   -306.689387
Extrapolated:  -306.619216

Dipole-layer corrected work functions: 3.383531, 2.831815 eV

Showing only first 2 kpts
 Kpt  Band  Eigenvalues  Occupancy
  0    31     -3.35165    1.98491
  0    32     -3.21908    1.80548
  0    33     -2.94744    0.07798
  0    34     -2.85535    0.01278

  1    31     -3.15892    1.47188
  1    32     -3.10778    1.00111
  1    33     -3.08705    0.79669
  1    34     -2.97249    0.12552


Fermi level: -3.10767

Gap: 0.006 eV
Transition (v -> c):
  (s=0, k=1, n=32, [0.12, -0.12, 0.00]) -> (s=0, k=7, n=33, [0.38, 0.38, 0.00])
Writing to output.gpw (mode='')


Forces in eV/Ang:
  0 Li    0.01221    0.00080   -0.27450
  1 Li   -0.00262   -0.00022   -0.25772
  2 Li   -0.01050    0.00010   -0.27391
  3 Li    0.00222    0.00853   -0.27328
  4 Li    0.00010    0.00426   -0.28238
  5 Li   -0.00126    0.01142   -0.27288
  6 Li    0.00256   -0.00913   -0.27301
  7 Li    0.00100   -0.00256   -0.28120
  8 Li   -0.00249   -0.01134   -0.27340
  9 Li   -0.00057    0.02149    0.32065
 10 Li    0.02264   -0.00628    0.25356
 11 Li   -0.02038   -0.00840    0.25526
 12 Li   -0.00017   -0.01883    0.31695
 13 Li    0.02322    0.00633    0.25444
 14 Li   -0.02140    0.00702    0.25754
 15 Li   -0.00037   -0.00105    0.23431
 16 Li   -0.03207   -0.00075    0.26818
 17 Li    0.03086    0.00040    0.26639
 18 Li    0.07864    0.00012   -0.08737
 19 Li    0.00303   -0.00167    0.05512
 20 Li   -0.07871    0.00083   -0.10257
 21 Li   -0.02221   -0.02335    0.05625
 22 Li    0.00028    0.01377    0.02133
 23 Li    0.02038   -0.02214    0.05497
 24 Li   -0.02334    0.02275    0.05062
 25 Li   -0.00050   -0.01323    0.02803
 26 Li    0.02201    0.02102    0.05012
 27 Li   -0.00932   -0.02399   -0.16788
 28 Li    0.05165   -0.02151   -0.05038
 29 Li   -0.06286   -0.03150   -0.05351
 30 Li   -0.00103   -0.00995   -0.19192
 31 Li    0.05101    0.02891   -0.05547
 32 Li   -0.05699    0.03395   -0.05157
 33 Li   -0.00111   -0.00643   -0.02823
 34 Li   -0.01192   -0.00519   -0.01168
 35 Li    0.01429   -0.00229   -0.01253
 36 O     0.16339   -0.14451    3.34608
 37 C     0.16081    0.17835    0.73567
 38 C    -0.04908   -0.00958    0.11781
 39 H     0.34822    0.35540    0.24331
 40 H    -0.15203   -0.11031    0.48311
 41 H    -0.00352   -0.01122   -0.02989
 42 H     0.02373   -0.01142    0.02318
 43 H    -0.06467    0.09183    0.03964
 44 H    -0.21716    0.47172    1.02906
 45 N    -0.41562    0.02161   -2.23664
 46 N     0.19145   -0.81608   -3.22994

System changes: positions 

Initializing position-dependent things.

Density initialized from wave functions
       .-----------------------.  
      /|                       |  
     / |                       |  
    /  |                       |  
   /   |                       |  
  /    |                       |  
 *     |                       |  
 |     |                       |  
 |     |                       |  
 |     |                       |  
 |     |                  H    |  
 |    HH                       |  
 |   C |                H   C  |  
 |O    |       Li      Li H    |  
 |    H|                       |  
 |N    |     Li      Li      Li|  
 |     |                       |  
 | Li  |  LLi     LLi     Ni   |  
 |     |                       |  
 |     |Li      Li      LLi    |  
 |   Li|     Li      Li        |  
 |    Li  Li  Li  Li  Li  Li   |  
 | Li  |   Li      Li          |  
 |     |Li      Li      Li     |  
 Li    | Li      Li            |  
 |    Li      Li      Li       |  
 |     |                       |  
 |     |                       |  
 |     |                       |  
 |     |                       |  
 |     |                       |  
 |     |                       |  
 |     .-----------------------.  
 |    /                       /   
 |   /                       /    
 |  /                       /     
 | /                       /      
 |/                       /       
 *-----------------------*        

Positions:
   0 Li     1.617037    1.617037   10.000000    ( 0.0000,  0.0000,  0.0000)
   1 Li     4.851111    1.617037   10.000000    ( 0.0000,  0.0000,  0.0000)
   2 Li     8.085185    1.617037   10.000000    ( 0.0000,  0.0000,  0.0000)
   3 Li     1.617037    4.851111   10.000000    ( 0.0000,  0.0000,  0.0000)
   4 Li     4.851111    4.851111   10.000000    ( 0.0000,  0.0000,  0.0000)
   5 Li     8.085185    4.851111   10.000000    ( 0.0000,  0.0000,  0.0000)
   6 Li     1.617037    8.085185   10.000000    ( 0.0000,  0.0000,  0.0000)
   7 Li     4.851111    8.085185   10.000000    ( 0.0000,  0.0000,  0.0000)
   8 Li     8.085185    8.085185   10.000000    ( 0.0000,  0.0000,  0.0000)
   9 Li     0.000000    0.000000   11.617037    ( 0.0000,  0.0000,  0.0000)
  10 Li     3.234074    0.000000   11.617037    ( 0.0000,  0.0000,  0.0000)
  11 Li     6.468148    0.000000   11.617037    ( 0.0000,  0.0000,  0.0000)
  12 Li     0.000000    3.234074   11.617037    ( 0.0000,  0.0000,  0.0000)
[...]

iter:  20 03:12:44  -308.782319c -6.58  -4.52c
iter:  21 03:12:52  -308.782319c -6.79  -4.53c
iter:  22 03:12:59  -308.782319c -6.64  -4.60c
iter:  23 03:13:06  -308.782319c -7.26  -4.93c
iter:  24 03:13:13  -308.782319c -7.19  -5.09c
Writing to output.gpw (mode='')

iter:  25 03:13:20  -308.782319c -7.61c -5.29c

Converged after 25 iterations.

Dipole moment: (6.207654, -4.244480, 0.151694) |e|*Ang

Energy contributions relative to reference atoms: (reference = -14434.854043)

Kinetic:       +151.581768
Potential:     -146.044232
External:        +0.000000
XC:            -315.011550
Entropy (-ST):   -0.144482
Local:           +0.763937
--------------------------
Free energy:   -308.854560
Extrapolated:  -308.782319

Dipole-layer corrected work functions: 3.400589, 3.108982 eV

Showing only first 2 kpts
 Kpt  Band  Eigenvalues  Occupancy
  0    31     -3.51593    1.98927
  0    32     -3.45044    1.96082
  0    33     -3.11055    0.10584
  0    34     -3.04091    0.02737

  1    31     -3.30029    1.42602
  1    32     -3.25220    0.97414
  1    33     -3.20284    0.52274
  1    34     -3.14282    0.19255


Fermi level: -3.25479

No gap

Forces in eV/Ang:
  0 Li    0.02250    0.00465   -0.27120
  1 Li   -0.00684    0.00402   -0.26980
  2 Li   -0.01793    0.00544   -0.26974
  3 Li   -0.00213    0.01314   -0.26891
  4 Li   -0.00158   -0.00162   -0.29287
  5 Li    0.00480    0.01794   -0.26500
  6 Li   -0.00149   -0.01706   -0.27986
  7 Li   -0.00137    0.00343   -0.27312
  8 Li    0.00371   -0.02152   -0.27910
  9 Li    0.00325   -0.00665    0.32929
 10 Li    0.01974   -0.00959    0.26073
 11 Li   -0.01639   -0.01901    0.27138
 12 Li    0.00472    0.03198    0.25890
 13 Li    0.02454    0.01969    0.25376
 14 Li   -0.02295    0.03067    0.25557
 15 Li    0.00000   -0.03193    0.22095
 16 Li   -0.03465   -0.02185    0.25592
 17 Li    0.03263   -0.02537    0.25344
 18 Li    0.00564   -0.00715   -0.00302
 19 Li   -0.00112    0.00371    0.00491
 20 Li   -0.00514   -0.00736    0.00209
 21 Li    0.00064   -0.00486   -0.00366
 22 Li   -0.00194    0.00190    0.00074
 23 Li    0.00169   -0.00420   -0.00549
 24 Li   -0.00675    0.00303    0.00730
 25 Li    0.00139   -0.00088   -0.00469
 26 Li    0.00807    0.00157    0.00639
 27 Li   -0.00450    0.01444    0.02326
 28 Li    0.00582   -0.00974    0.00382
 29 Li   -0.00542   -0.00762    0.00262
 30 Li   -0.00970    0.01163   -0.02498
 31 Li   -0.00730    0.00760    0.00190
 32 Li    0.00329    0.00426    0.00018
 33 Li   -0.00008   -0.01709   -0.00467
 34 Li    0.00347    0.00356    0.01151
 35 Li   -0.00486    0.00507    0.01054
 36 O    -0.01593   -0.04692   -0.00730
 37 C     0.00348   -0.03364    0.02809
 38 C     0.04788   -0.00549   -0.00117
 39 H    -0.00938    0.06116   -0.00452
 40 H    -0.02639    0.02384   -0.02093
 41 H     0.00526    0.04378   -0.02278
 42 H     0.01395    0.01359    0.02588
 43 H     0.00153   -0.00419   -0.01674
 44 H     0.00382    0.01124    0.00423
 45 N     0.02713    0.02438   -0.01040
 46 N    -0.04249   -0.06267    0.05466

System changes: positions 

Initializing position-dependent things.

Density initialized from wave functions
       .-----------------------.  
      /|                       |  
     / |                       |  
    /  |                       |  
   /   |                       |  
  /    |                       |  
 *     |                       |  
 |     |                       |  
 |     |                       |  
 |     |                       |  
 |     |                  H    |  
 |  C HH                 H     |  
 |O  C |                       |  
 |    HLi      Li      Li H    |  
 |     |                       |  
 |     |     Li      Li      Li|  
 |     |                 N     |  
 | Li  |  LLi     LLi     Ni   |  
 |     |                       |  
 |     |Li      Li      Li     |  
 |   Li|     Li      Li        |  
 |    Li  Li  Li  Li  Li  Li   |  
 | Li  |   Li      Li          |  
 |     |Li      Li      Li     |  
 Li    | Li      Li            |  
 |    Li      Li      Li       |  
 |     |                       |  
 |     |                       |  
 |     |                       |  
 |     |                       |  
 |     |                       |  
 |     |                       |  
 |     .-----------------------.  
 |    /                       /   
 |   /                       /    
 |  /                       /     
 | /                       /      
 |/                       /       
 *-----------------------*        

Positions:
   0 Li     1.617037    1.617037   10.000000    ( 0.0000,  0.0000,  0.0000)
   1 Li     4.851111    1.617037   10.000000    ( 0.0000,  0.0000,  0.0000)
   2 Li     8.085185    1.617037   10.000000    ( 0.0000,  0.0000,  0.0000)
   3 Li     1.617037    4.851111   10.000000    ( 0.0000,  0.0000,  0.0000)
   4 Li     4.851111    4.851111   10.000000    ( 0.0000,  0.0000,  0.0000)
   5 Li     8.085185    4.851111   10.000000    ( 0.0000,  0.0000,  0.0000)
   6 Li     1.617037    8.085185   10.000000    ( 0.0000,  0.0000,  0.0000)
   7 Li     4.851111    8.085185   10.000000    ( 0.0000,  0.0000,  0.0000)
   8 Li     8.085185    8.085185   10.000000    ( 0.0000,  0.0000,  0.0000)
   9 Li     0.000000    0.000000   11.617037    ( 0.0000,  0.0000,  0.0000)
  10 Li     3.234074    0.000000   11.617037    ( 0.0000,  0.0000,  0.0000)
  11 Li     6.468148    0.000000   11.617037    ( 0.0000,  0.0000,  0.0000)
  12 Li     0.000000    3.234074   11.617037    ( 0.0000,  0.0000,  0.0000)
  13 Li     3.234074    3.234074   11.617037    ( 0.0000,  0.0000,  0.0000)
  14 Li     6.468148    3.234074   11.617037    ( 0.0000,  0.0000,  0.0000)
  15 Li     0.000000    6.468148   11.617037    ( 0.0000,  0.0000,  0.0000)
  16 Li     3.234074    6.468148   11.617037    ( 0.0000,  0.0000,  0.0000)
  17 Li     6.468148    6.468148   11.617037    ( 0.0000,  0.0000,  0.0000)
  18 Li     1.615357    1.634984   13.431417    ( 0.0000,  0.0000,  0.0000)
  19 Li     4.860387    1.618169   13.452393    ( 0.0000,  0.0000,  0.0000)
  20 Li     8.090623    1.636998   13.411127    ( 0.0000,  0.0000,  0.0000)
  21 Li     1.585133    4.828537   13.518888    ( 0.0000,  0.0000,  0.0000)
  22 Li     4.850104    4.873920   13.447229    ( 0.0000,  0.0000,  0.0000)
  23 Li     8.117327    4.826552   13.516612    ( 0.0000,  0.0000,  0.0000)
  24 Li     1.615262    8.064745   13.457668    ( 0.0000,  0.0000,  0.0000)
  25 Li     4.848306    8.054184   13.457709    ( 0.0000,  0.0000,  0.0000)
  26 Li     8.088726    8.063181   13.453622    ( 0.0000,  0.0000,  0.0000)
  27 Li     0.024116   -0.057681   15.356093    ( 0.0000,  0.0000,  0.0000)
  28 Li     3.280346   -0.000395   15.341643    ( 0.0000,  0.0000,  0.0000)
  29 Li     6.411822   -0.027788   15.341785    ( 0.0000,  0.0000,  0.0000)
  30 Li     0.019175    3.159955   15.546860    ( 0.0000,  0.0000,  0.0000)
  31 Li     3.287955    3.241252   15.377415    ( 0.0000,  0.0000,  0.0000)
  32 Li     6.412485    3.264086   15.377737    ( 0.0000,  0.0000,  0.0000)
  33 Li    -0.003063    6.468733   15.465408    ( 0.0000,  0.0000,  0.0000)
  34 Li     3.225768    6.463068   15.413121    ( 0.0000,  0.0000,  0.0000)
  35 Li     6.479089    6.460453   15.407970    ( 0.0000,  0.0000,  0.0000)
  36 O      0.111162    1.774460   20.379037    ( 0.0000,  0.0000,  0.0000)
  37 C      0.886440    2.943039   20.068208    ( 0.0000,  0.0000,  0.0000)
  38 C      0.019650    4.148913   19.729004    ( 0.0000,  0.0000,  0.0000)
  39 H      1.570357    3.172593   20.895570    ( 0.0000,  0.0000,  0.0000)
  40 H      1.504042    2.654160   19.213741    ( 0.0000,  0.0000,  0.0000)
  41 H      0.644371    5.001978   19.451372    ( 0.0000,  0.0000,  0.0000)
  42 H     -0.648523    3.924315   18.893854    ( 0.0000,  0.0000,  0.0000)
  43 H     -0.589874    4.446897   20.587417    ( 0.0000,  0.0000,  0.0000)
  44 H     -0.407995    1.963239   21.169960    ( 0.0000,  0.0000,  0.0000)
  45 N     -0.171785    1.657266   16.845096    ( 0.0000,  0.0000,  0.0000)
  46 N     -0.267886    0.701913   17.445917    ( 0.0000,  0.0000,  0.0000)

Unit cell:
           periodic     x           y           z      points  spacing
  1. axis:    yes    9.702222    0.000000    0.000000    60     0.1617
  2. axis:    yes    0.000000    9.702222    0.000000    60     0.1617
  3. axis:    no     0.000000    0.000000   26.351111   164     0.1607

  Lengths:   9.702222   9.702222  26.351111
  Angles:   90.000000  90.000000  90.000000

Effective grid spacing dv^(1/3) = 0.1614

     iter     time        total  log10-change:
                         energy  eigst   dens
iter:   1 03:13:32  -308.784680  -2.49
iter:   2 03:13:39  -308.783693  -3.12  -2.41
iter:   3 03:13:46  -308.782983c -3.90  -2.61
iter:   4 03:13:53  -308.782823c -4.04  -2.86
Writing to output.gpw (mode='')

iter:   5 03:14:00  -308.782783c -3.98  -3.16
iter:   6 03:14:07  -308.782787c -3.53  -3.41
iter:   7 03:14:15  -308.782780c -4.72  -3.33
iter:   8 03:14:28  -308.782770c -4.58  -3.70
iter:   9 03:14:40  -308.782765c -5.09  -3.74
Writing to output.gpw (mode='')

iter:  10 03:14:49  -308.782767c -5.19  -3.89
iter:  11 03:14:56  -308.782766c -5.31  -4.02c
iter:  12 03:15:03  -308.782766c -6.00  -4.02c
iter:  13 03:15:10  -308.782765c -6.09  -4.06c
iter:  14 03:15:17  -308.782766c -5.71  -4.30c
Writing to output.gpw (mode='')

iter:  15 03:15:24  -308.782767c -6.33  -4.43c
iter:  16 03:15:31  -308.782766c -6.69  -4.55c
iter:  17 03:15:39  -308.782765c -6.54  -4.55c
iter:  18 03:15:46  -308.782766c -6.68  -4.65c
iter:  19 03:15:53  -308.782766c -7.10  -4.74c
Writing to output.gpw (mode='')

iter:  20 03:16:00  -308.782766c -7.10  -4.88c
iter:  21 03:16:07  -308.782765c -7.15  -4.97c
iter:  22 03:16:14  -308.782765c -7.41c -5.11c

Converged after 22 iterations.

Dipole moment: (6.249265, -4.214556, 0.151477) |e|*Ang

Energy contributions relative to reference atoms: (reference = -14434.854043)

Kinetic:       +151.403023
Potential:     -145.911352
External:        +0.000000
XC:            -314.966152
Entropy (-ST):   -0.144554
Local:           +0.763993
--------------------------
Free energy:   -308.855043
Extrapolated:  -308.782765

Dipole-layer corrected work functions: 3.400620, 3.109429 eV

Showing only first 2 kpts
 Kpt  Band  Eigenvalues  Occupancy
  0    31     -3.51599    1.98924
  0    32     -3.45072    1.96085
  0    33     -3.11078    0.10581
  0    34     -3.04124    0.02742

  1    31     -3.30041    1.42502
  1    32     -3.25236    0.97336
  1    33     -3.20327    0.52418
  1    34     -3.14338    0.19367


Fermi level: -3.25502

No gap
Writing to output.gpw (mode='')


Forces in eV/Ang:
  0 Li    0.02256    0.00464   -0.27122
  1 Li   -0.00685    0.00400   -0.26974
  2 Li   -0.01792    0.00544   -0.26978
  3 Li   -0.00203    0.01317   -0.26908
  4 Li   -0.00158   -0.00147   -0.29265
  5 Li    0.00473    0.01796   -0.26520
  6 Li   -0.00140   -0.01698   -0.27969
  7 Li   -0.00135    0.00330   -0.27351
  8 Li    0.00360   -0.02145   -0.27894
  9 Li    0.00318   -0.00762    0.32915
 10 Li    0.02039   -0.01033    0.26107
 11 Li   -0.01712   -0.01961    0.27188
 12 Li    0.00475    0.03169    0.26072
 13 Li    0.02468    0.01946    0.25422
 14 Li   -0.02355    0.03053    0.25619
 15 Li   -0.00010   -0.03179    0.22219
 16 Li   -0.03518   -0.02138    0.25620
 17 Li    0.03319   -0.02514    0.25393
 18 Li    0.00448   -0.00543   -0.00205
 19 Li   -0.00077    0.00351    0.00253
 20 Li   -0.00376   -0.00627    0.00298
 21 Li   -0.00020   -0.00547   -0.00497
 22 Li   -0.00161    0.00098   -0.00003
 23 Li    0.00268   -0.00382   -0.00737
 24 Li   -0.00713    0.00289    0.00512
 25 Li    0.00129    0.00056   -0.00481
 26 Li    0.00831    0.00114    0.00398
 27 Li   -0.00434    0.01426    0.02416
 28 Li    0.00533   -0.00864    0.00483
 29 Li   -0.00543   -0.00635    0.00336
 30 Li   -0.01137    0.01085   -0.02106
 31 Li   -0.00646    0.00657    0.00181
 32 Li    0.00277    0.00295    0.00100
 33 Li    0.00005   -0.01545   -0.00347
 34 Li    0.00307    0.00313    0.01223
 35 Li   -0.00460    0.00464    0.01105
 36 O     0.00812   -0.01885    0.00924
 37 C    -0.00914   -0.02731    0.00571
 38 C     0.04003    0.00235    0.00031
 39 H    -0.01611    0.04634    0.00193
 40 H    -0.03222    0.02240   -0.01471
 41 H     0.00621    0.03067   -0.01774
 42 H     0.01775    0.01178    0.02376
 43 H     0.00933   -0.00396   -0.01971
 44 H     0.00051   -0.00089    0.00125
 45 N     0.03966   -0.01694   -0.00035
 46 N    -0.03155   -0.01511    0.01310

Timing:                                      incl.     excl.
-------------------------------------------------------------------
Density initialized from wave functions:     5.268     5.266   0.0% |
 Symmetrize density:                         0.002     0.002   0.0% |
Forces:                                     29.671    29.671   0.2% |
Hamiltonian:                               439.042     0.010   0.0% |
 Atomic:                                     0.018     0.018   0.0% |
  XC Correction:                             0.000     0.000   0.0% |
 Calculate atomic Hamiltonians:              0.031     0.031   0.0% |
 Communicate:                               11.128    11.128   0.1% |
 Hartree integrate/restrict:                 1.500     1.500   0.0% |
 Initialize Hamiltonian:                     0.000     0.000   0.0% |
 Poisson:                                   20.258     7.273   0.0% |
  Communicate from 1D:                       1.984     1.984   0.0% |
  Communicate from 2D:                       1.995     1.995   0.0% |
  Communicate to 1D:                         1.106     1.106   0.0% |
  Communicate to 2D:                         2.720     2.720   0.0% |
  FFT 1D:                                    2.637     2.637   0.0% |
  FFT 2D:                                    2.542     2.542   0.0% |
 XC 3D grid:                               405.759    61.129   0.3% |
  VdW-DF integral:                         344.630     2.884   0.0% |
   Convolution:                             31.009    31.009   0.2% |
   FFT:                                     13.585    13.585   0.1% |
   gather:                                 119.956   119.956   0.6% |
   hmm1:                                    11.196    11.196   0.1% |
   hmm2:                                    14.648    14.648   0.1% |
   iFFT:                                    13.873    13.873   0.1% |
   potential:                              133.888     3.554   0.0% |
    collect:                                20.384    20.384   0.1% |
    p1:                                     59.856    59.856   0.3% |
    p2:                                     22.501    22.501   0.1% |
    sum:                                    27.593    27.593   0.1% |
   splines:                                  3.591     3.591   0.0% |
 vbar:                                       0.338     0.338   0.0% |
LCAO initialization:                         1.105     0.183   0.0% |
 LCAO eigensolver:                           0.266     0.000   0.0% |
  Calculate projections:                     0.000     0.000   0.0% |
  DenseAtomicCorrection:                     0.000     0.000   0.0% |
  Distribute overlap matrix:                 0.173     0.173   0.0% |
  Orbital Layouts:                           0.091     0.091   0.0% |
  Potential matrix:                          0.001     0.001   0.0% |
  Sum over cells:                            0.001     0.001   0.0% |
 LCAO to grid:                               0.551     0.551   0.0% |
 Set positions (LCAO WFS):                   0.106     0.064   0.0% |
  Basic WFS set positions:                   0.001     0.001   0.0% |
  Basis functions set positions:             0.000     0.000   0.0% |
  P tci:                                     0.000     0.000   0.0% |
  ST tci:                                    0.012     0.012   0.0% |
  mktci:                                     0.028     0.028   0.0% |
Redistribute:                                0.049     0.049   0.0% |
SCF-cycle:                               19039.153   462.274   2.4% ||
 Davidson:                                4668.339  1401.032   7.2% |--|
  Apply hamiltonian:                       292.421   292.421   1.5% ||
  Subspace diag:                           885.605     0.280   0.0% |
   calc_h_matrix:                          434.316   130.754   0.7% |
    Apply hamiltonian:                     303.563   303.563   1.5% ||
   diagonalize:                             50.844    50.844   0.3% |
   rotate_psi:                             400.165   400.165   2.0% ||
  calc. matrices:                         1433.556   739.444   3.8% |-|
   Apply hamiltonian:                      694.112   694.112   3.5% ||
  diagonalize:                              13.092    13.092   0.1% |
  rotate_psi:                              642.633   642.633   3.3% ||
 Density:                                  100.849     0.055   0.0% |
  Atomic density matrices:                  15.511    15.511   0.1% |
  Mix:                                      40.798    40.798   0.2% |
  Multipole moments:                         7.376     7.376   0.0% |
  Pseudo density:                           37.109    37.054   0.2% |
   Symmetrize density:                       0.056     0.056   0.0% |
 Hamiltonian:                            13794.366     0.315   0.0% |
  Atomic:                                    0.647     0.640   0.0% |
   XC Correction:                            0.007     0.007   0.0% |
  Calculate atomic Hamiltonians:             1.038     1.038   0.0% |
  Communicate:                             233.087   233.087   1.2% |
  Hartree integrate/restrict:               48.902    48.902   0.2% |
  Poisson:                                 644.975   235.546   1.2% |
   Communicate from 1D:                     63.267    63.267   0.3% |
   Communicate from 2D:                     67.632    67.632   0.3% |
   Communicate to 1D:                       36.026    36.026   0.2% |
   Communicate to 2D:                       78.525    78.525   0.4% |
   FFT 1D:                                  83.437    83.437   0.4% |
   FFT 2D:                                  80.540    80.540   0.4% |
  XC 3D grid:                            12855.045  1945.076   9.9% |---|
   VdW-DF integral:                      10909.969    91.316   0.5% |
    Convolution:                           983.773   983.773   5.0% |-|
    FFT:                                   428.414   428.414   2.2% ||
    gather:                               3828.382  3828.382  19.5% |-------|
    hmm1:                                  351.085   351.085   1.8% ||
    hmm2:                                  462.692   462.692   2.4% ||
    iFFT:                                  440.157   440.157   2.2% ||
    potential:                            4324.126   112.095   0.6% |
     collect:                              668.354   668.354   3.4% ||
     p1:                                  1891.046  1891.046   9.7% |---|
     p2:                                   709.034   709.034   3.6% ||
     sum:                                  943.597   943.597   4.8% |-|
    splines:                                 0.024     0.024   0.0% |
  vbar:                                     10.356    10.356   0.1% |
 Orthonormalize:                            13.326     0.010   0.0% |
  calc_s_matrix:                             1.898     1.898   0.0% |
  inverse-cholesky:                          3.910     3.910   0.0% |
  projections:                               0.002     0.002   0.0% |
  rotate_psi_s:                              7.506     7.506   0.0% |
Set symmetry:                                0.011     0.011   0.0% |
Other:                                      76.826    76.826   0.4% |
-------------------------------------------------------------------
Total:                                             19591.124 100.0%

Memory usage: 1.12 GiB
Date: Thu Mar  9 03:16:16 2023
