
  ___ ___ ___ _ _ _  
 |   |   |_  | | | | 
 | | | | | . | | | | 
 |__ |  _|___|_____|  22.8.0
 |___|_|             

User:   vazumah@r439.ib.bridges2.psc.edu
Date:   Fri Mar 10 10:03:24 2023
Arch:   x86_64
Pid:    64482
CWD:    /jet/home/vazumah/Calcs/LiMEAS/proton_donors/butanol_y/bridge/0.0_1.617/N2_y
Python: 3.11.0
gpaw:   /jet/home/vazumah/.conda/envs/GPAW_mpich/lib/python3.11/site-packages/gpaw
_gpaw:  /jet/home/vazumah/.conda/envs/GPAW_mpich/lib/python3.11/site-packages/
        _gpaw.cpython-311-x86_64-linux-gnu.so
ase:    /jet/home/vazumah/.conda/envs/GPAW_mpich/lib/python3.11/site-packages/ase (version 3.22.1)
numpy:  /jet/home/vazumah/.conda/envs/GPAW_mpich/lib/python3.11/site-packages/numpy (version 1.24.2)
scipy:  /jet/home/vazumah/.conda/envs/GPAW_mpich/lib/python3.11/site-packages/scipy (version 1.10.1)
libxc:  5.2.3
units:  Angstrom and eV
cores: 128
OpenMP: True
OMP_NUM_THREADS: 1

Input parameters:
  h: 0.16
  kpts: {size: [4, 4, 1]}
  occupations: {name: fermi-dirac,
                width: 0.05}
  poissonsolver: {dipolelayer: xy}
  xc: BEEF-vdW

System changes: positions, numbers, cell, pbc, initial_charges, initial_magmoms 

Initialize ...

species:
  Li:
    name: Lithium
    id: 830b4218f175192f93f959cfc0aad614
    Z: 3.0
    valence: 1
    core: 2
    charge: 0.0
    file: /jet/home/vazumah/datasets/gpaw-setups-0.9.20000/Li.PBE.gz
    compensation charges: {type: gauss,
                           rc: 0.33,
                           lmax: 2}
    cutoffs: {filter: 1.91,
              core: 2.55}
    valence states:
      #              energy  rcut
      - 2s(1.00)    -2.874   1.058
      - 2p(0.00)    -1.090   1.058
      -  s          24.337   1.058
  
    # Using partial waves for Li as LCAO basis

  O:
    name: Oxygen
    id: 32ecd46bf208036f09c70b0ec9a88b78
    Z: 8.0
    valence: 6
    core: 2
    charge: 0.0
    file: /jet/home/vazumah/datasets/gpaw-setups-0.9.20000/O.PBE.gz
    compensation charges: {type: gauss,
                           rc: 0.21,
                           lmax: 2}
    cutoffs: {filter: 1.17,
              core: 0.83}
    valence states:
      #              energy  rcut
      - 2s(2.00)   -23.961   0.688
      - 2p(4.00)    -9.029   0.598
      -  s           3.251   0.688
      -  p          18.182   0.598
      -  d           0.000   0.619
  
    # Using partial waves for O as LCAO basis

  C:
    name: Carbon
    id: 4aa54d4b901d75f77cc0ea3eec22967b
    Z: 6.0
    valence: 4
    core: 2
    charge: 0.0
    file: /jet/home/vazumah/datasets/gpaw-setups-0.9.20000/C.PBE.gz
    compensation charges: {type: gauss,
                           rc: 0.20,
                           lmax: 2}
    cutoffs: {filter: 1.14,
              core: 1.14}
    valence states:
      #              energy  rcut
      - 2s(2.00)   -13.751   0.635
      - 2p(2.00)    -5.284   0.635
      -  s          13.461   0.635
      -  p          21.927   0.635
      -  d           0.000   0.635
  
    # Using partial waves for C as LCAO basis

  H:
    name: Hydrogen
    id: d65de229564ff8ea4db303e23b6d1ecf
    Z: 1.0
    valence: 1
    core: 0
    charge: 0.0
    file: /jet/home/vazumah/datasets/gpaw-setups-0.9.20000/H.PBE.gz
    compensation charges: {type: gauss,
                           rc: 0.15,
                           lmax: 2}
    cutoffs: {filter: 0.85,
              core: 0.53}
    valence states:
      #              energy  rcut
      - 1s(1.00)    -6.494   0.476
      -  s          20.717   0.476
      -  p           0.000   0.476
  
    # Using partial waves for H as LCAO basis

  N:
    name: Nitrogen
    id: f7500608b86eaa90eef8b1d9a670dc53
    Z: 7.0
    valence: 5
    core: 2
    charge: 0.0
    file: /jet/home/vazumah/datasets/gpaw-setups-0.9.20000/N.PBE.gz
    compensation charges: {type: gauss,
                           rc: 0.18,
                           lmax: 2}
    cutoffs: {filter: 1.11,
              core: 0.96}
    valence states:
      #              energy  rcut
      - 2s(2.00)   -18.583   0.603
      - 2p(3.00)    -7.089   0.529
      -  s           8.629   0.603
      -  p          20.123   0.529
      -  d           0.000   0.577
  
    # Using partial waves for N as LCAO basis

Reference energy: -16540.070923  # eV

Spin-paired calculation

Convergence criteria:
 Maximum [total energy] change in last 3 cyles: 0.0005 eV / electron
 Maximum integral of absolute [dens]ity change: 0.0001 electrons / valence electron
 Maximum integral of absolute [eigenst]ate change: 4e-08 eV^2 / valence electron
 Maximum number of scf [iter]ations: 333
 (Square brackets indicate name in SCF output, whereas a 'c' in
 the SCF output indicates the quantity has converged.)

Symmetries present (total): 1

  ( 1  0  0)
  ( 0  1  0)
  ( 0  0  1)

16 k-points: 4 x 4 x 1 Monkhorst-Pack grid
8 k-points in the irreducible part of the Brillouin zone
       k-points in crystal coordinates                weights
   0:     0.12500000   -0.37500000    0.00000000          2/16
   1:     0.12500000   -0.12500000    0.00000000          2/16
   2:     0.12500000    0.12500000    0.00000000          2/16
   3:     0.12500000    0.37500000    0.00000000          2/16
   4:     0.37500000   -0.37500000    0.00000000          2/16
   5:     0.37500000   -0.12500000    0.00000000          2/16
   6:     0.37500000    0.12500000    0.00000000          2/16
   7:     0.37500000    0.37500000    0.00000000          2/16

Wave functions: Uniform real-space grid
  Kinetic energy operator: 6*3+1=19 point O(h^6) finite-difference Laplacian
  ScaLapack parameters: grid=1x1, blocksize=None
  Wavefunction extrapolation:
    Improved wavefunction reuse through dual PAW basis 

Occupation numbers: Fermi-Dirac:
  width: 0.0500  # eV
 

Eigensolver
   Davidson(niter=2) 

Densities:
  Coarse grid: 60*60*164 grid
  Fine grid: 120*120*328 grid
  Total Charge: 0.000000 

Density mixing:
  Method: separate
  Backend: pulay
  Linear mixing parameter: 0.05
  old densities: 5
  Damping of long wavelength oscillations: 50 

Hamiltonian:
  XC and Coulomb potentials evaluated on a 120*120*328 grid
  Using the BEEF-vdW Exchange-Correlation functional
  Interpolation: tri-quintic (5. degree polynomial)
  Poisson solver: FastPoissonSolver using
    Stencil: 6*3+1=19 point O(h^6) finite-difference Laplacian
    FFT axes: [0, 1]
    FST axes: [2]

Dipole correction along z-axis 

XC parameters: BEEF-vdW with 2 nearest neighbor stencil

Memory estimate:
  Process memory now: 128.55 MiB
  Calculator: 88.32 MiB
    Density: 22.73 MiB
      Arrays: 7.22 MiB
      Localized functions: 12.76 MiB
      Mixer: 2.75 MiB
    Hamiltonian: 5.73 MiB
      Arrays: 4.72 MiB
      XC: 0.00 MiB
      Poisson: 0.00 MiB
      vbar: 1.01 MiB
    Wavefunctions: 59.86 MiB
      Arrays psit_nG: 28.02 MiB
      Eigensolver: 31.16 MiB
      Projections: 0.02 MiB
      Projectors: 0.67 MiB

Total number of cores used: 128
Parallelization over k-points: 8
Domain decomposition: 2 x 2 x 4

Number of atoms: 53
Number of atomic orbitals: 182
Number of bands in calculation: 51
Number of valence electrons: 78
Bands to converge: occupied

... initialized

Initializing position-dependent things.

Density initialized from atomic densities
Creating initial wave functions:
  51 bands from LCAO basis set

       .-----------------------.  
      /|                       |  
     / |                       |  
    /  |                       |  
   /   |                       |  
  /    |                       |  
 *     |                       |  
 |     |                       |  
 |     |                       |  
 |     |                       |  
 |     |                   H   |  
 |     HH                    C |  
 |    C|                  H    |  
 |    H|H                  CH  |  
 |   C |                  H    |  
 |O  LH|     Li      Li  H     |  
 |NN   |                       |  
 | Li  |  LLi     LLi     Li   |  
 |     |                       |  
 Li    |LLi     LLi     Li     |  
 |   Li|     Li      Li        |  
 |    Li  Li  Li  Li  Li  Li   |  
 | Li  |   Li      Li          |  
 |     |Li      Li      Li     |  
 Li    | Li      Li            |  
 |    Li      Li      Li       |  
 |     |                       |  
 |     |                       |  
 |     |                       |  
 |     |                       |  
 |     |                       |  
 |     |                       |  
 |     .-----------------------.  
 |    /                       /   
 |   /                       /    
 |  /                       /     
 | /                       /      
 |/                       /       
 *-----------------------*        

Positions:
   0 Li     1.617037    1.617037   10.000000    ( 0.0000,  0.0000,  0.0000)
   1 Li     4.851111    1.617037   10.000000    ( 0.0000,  0.0000,  0.0000)
   2 Li     8.085185    1.617037   10.000000    ( 0.0000,  0.0000,  0.0000)
   3 Li     1.617037    4.851111   10.000000    ( 0.0000,  0.0000,  0.0000)
   4 Li     4.851111    4.851111   10.000000    ( 0.0000,  0.0000,  0.0000)
   5 Li     8.085185    4.851111   10.000000    ( 0.0000,  0.0000,  0.0000)
   6 Li     1.617037    8.085185   10.000000    ( 0.0000,  0.0000,  0.0000)
   7 Li     4.851111    8.085185   10.000000    ( 0.0000,  0.0000,  0.0000)
   8 Li     8.085185    8.085185   10.000000    ( 0.0000,  0.0000,  0.0000)
   9 Li     0.000000    0.000000   11.617037    ( 0.0000,  0.0000,  0.0000)
  10 Li     3.234074    0.000000   11.617037    ( 0.0000,  0.0000,  0.0000)
  11 Li     6.468148    0.000000   11.617037    ( 0.0000,  0.0000,  0.0000)
  12 Li     0.000000    3.234074   11.617037    ( 0.0000,  0.0000,  0.0000)
  13 Li     3.234074    3.234074   11.617037    ( 0.0000,  0.0000,  0.0000)
  14 Li     6.468148    3.234074   11.617037    ( 0.0000,  0.0000,  0.0000)
  15 Li     0.000000    6.468148   11.617037    ( 0.0000,  0.0000,  0.0000)
  16 Li     3.234074    6.468148   11.617037    ( 0.0000,  0.0000,  0.0000)
  17 Li     6.468148    6.468148   11.617037    ( 0.0000,  0.0000,  0.0000)
  18 Li     1.617038    1.617038   13.469728    ( 0.0000,  0.0000,  0.0000)
  19 Li     4.851111    1.617038   13.469729    ( 0.0000,  0.0000,  0.0000)
  20 Li     8.085184    1.617038   13.469728    ( 0.0000,  0.0000,  0.0000)
  21 Li     1.617038    4.851111   13.469729    ( 0.0000,  0.0000,  0.0000)
  22 Li     4.851111    4.851111   13.469730    ( 0.0000,  0.0000,  0.0000)
  23 Li     8.085184    4.851111   13.469729    ( 0.0000,  0.0000,  0.0000)
  24 Li     1.617038    8.085184   13.469728    ( 0.0000,  0.0000,  0.0000)
  25 Li     4.851111    8.085184   13.469729    ( 0.0000,  0.0000,  0.0000)
  26 Li     8.085184    8.085184   13.469728    ( 0.0000,  0.0000,  0.0000)
  27 Li    -0.000000   -0.000000   15.445939    ( 0.0000,  0.0000,  0.0000)
  28 Li     3.234074    0.000000   15.445939    ( 0.0000,  0.0000,  0.0000)
  29 Li     6.468148    0.000000   15.445939    ( 0.0000,  0.0000,  0.0000)
  30 Li     0.000000    3.234074   15.445939    ( 0.0000,  0.0000,  0.0000)
  31 Li     3.234076    3.234076   15.445938    ( 0.0000,  0.0000,  0.0000)
  32 Li     6.468146    3.234076   15.445938    ( 0.0000,  0.0000,  0.0000)
  33 Li     0.000000    6.468148   15.445939    ( 0.0000,  0.0000,  0.0000)
  34 Li     3.234076    6.468146   15.445938    ( 0.0000,  0.0000,  0.0000)
  35 Li     6.468146    6.468146   15.445938    ( 0.0000,  0.0000,  0.0000)
  36 O      0.000000    1.617037   18.445939    ( 0.0000,  0.0000,  0.0000)
  37 C     -0.012341    4.084096   18.481765    ( 0.0000,  0.0000,  0.0000)
  38 C      0.842711    5.353657   18.468355    ( 0.0000,  0.0000,  0.0000)
  39 C      0.810479    2.801520   18.446147    ( 0.0000,  0.0000,  0.0000)
  40 C     -0.008275    6.626368   18.452726    ( 0.0000,  0.0000,  0.0000)
  41 H     -0.645510    4.069298   19.375259    ( 0.0000,  0.0000,  0.0000)
  42 H     -0.682529    4.097413   17.610409    ( 0.0000,  0.0000,  0.0000)
  43 H      1.501786    5.340696   17.592145    ( 0.0000,  0.0000,  0.0000)
  44 H      1.498875    5.358561   19.346325    ( 0.0000,  0.0000,  0.0000)
  45 H      1.476046    2.808074   17.572008    ( 0.0000,  0.0000,  0.0000)
  46 H      1.433794    2.717004   19.340765    ( 0.0000,  0.0000,  0.0000)
  47 H     -0.650755    6.653954   17.568683    ( 0.0000,  0.0000,  0.0000)
  48 H     -0.658288    6.671685   19.330177    ( 0.0000,  0.0000,  0.0000)
  49 H      0.605451    7.529542   18.446581    ( 0.0000,  0.0000,  0.0000)
  50 H     -0.589099    1.666347   17.683760    ( 0.0000,  0.0000,  0.0000)
  51 N      0.000000    1.617000   16.945939    ( 0.0000,  0.0000,  0.0000)
  52 N      0.000000    2.713622   16.945939    ( 0.0000,  0.0000,  0.0000)

Unit cell:
           periodic     x           y           z      points  spacing
  1. axis:    yes    9.702222    0.000000    0.000000    60     0.1617
  2. axis:    yes    0.000000    9.702222    0.000000    60     0.1617
  3. axis:    no     0.000000    0.000000   26.351111   164     0.1607

  Lengths:   9.702222   9.702222  26.351111
  Angles:   90.000000  90.000000  90.000000

Effective grid spacing dv^(1/3) = 0.1614

     iter     time        total  log10-change:
                         energy  eigst   dens
iter:   1 10:03:39  -656.606228
iter:   2 10:03:46   -84.543494  +2.76  +0.02
iter:   3 10:03:54  -148.692745  +3.17  -0.21
iter:   4 10:04:01  -255.888884  +2.96  -0.36
Writing to output.gpw (mode='')

iter:   5 10:04:09  -303.474251  +2.63  -0.45
iter:   6 10:04:16  -350.438031  +2.38  -0.66
iter:   7 10:04:24  -377.472017  +2.18  -0.64
iter:   8 10:04:31  -397.318429  +1.96  -0.57
iter:   9 10:04:44  -419.125707  +1.92  -0.51
Writing to output.gpw (mode='')

iter:  10 10:04:52  -388.254647  +1.32  -0.49
iter:  11 10:05:00  -391.545118  +1.27  -0.55
iter:  12 10:05:08  -521.665627  +2.44  -0.54
iter:  13 10:05:15  -346.718549  +2.09  -0.23
iter:  14 10:05:22  -350.980335  +1.52  -0.76
Writing to output.gpw (mode='')

iter:  15 10:05:30  -347.750020  +0.86  -0.77
iter:  16 10:05:37  -350.670919  +1.04  -0.88
iter:  17 10:05:45  -346.574945  +0.40  -0.90
iter:  18 10:05:52  -348.210666  +0.80  -0.99
iter:  19 10:06:00  -346.415883  +0.41  -0.92
Writing to output.gpw (mode='')

iter:  20 10:06:07  -345.874468  -0.21  -1.01
iter:  21 10:06:15  -345.126723  +0.14  -1.09
iter:  22 10:06:22  -345.044614  -0.14  -1.32
iter:  23 10:06:29  -345.054654  -0.64  -1.41
iter:  24 10:06:37  -344.941370  -0.53  -1.42
Writing to output.gpw (mode='')

iter:  25 10:06:44  -344.945229  -0.88  -1.62
iter:  26 10:06:52  -344.959859c -0.64  -1.73
iter:  27 10:06:59  -344.982613c -0.89  -1.74
iter:  28 10:07:07  -344.924380  -1.23  -1.75
iter:  29 10:07:14  -344.920238  -1.43  -1.88
Writing to output.gpw (mode='')

iter:  30 10:07:22  -344.920008c -1.58  -1.92
iter:  31 10:07:29  -344.927127c -1.60  -1.95
iter:  32 10:07:36  -344.920378c -1.77  -1.96
iter:  33 10:07:44  -344.922930c -1.53  -2.23
iter:  34 10:07:51  -344.922967c -1.98  -2.40
Writing to output.gpw (mode='')

iter:  35 10:07:59  -344.923821c -1.95  -2.52
iter:  36 10:08:06  -344.924597c -2.39  -2.70
iter:  37 10:08:14  -344.925368c -2.50  -2.73
iter:  38 10:08:21  -344.925661c -2.67  -2.80
iter:  39 10:08:28  -344.926103c -2.49  -2.88
Writing to output.gpw (mode='')

iter:  40 10:08:36  -344.926468c -2.52  -2.95
iter:  41 10:08:44  -344.926653c -2.88  -2.97
iter:  42 10:08:51  -344.926869c -3.10  -3.15
iter:  43 10:08:58  -344.927025c -3.10  -3.33
iter:  44 10:09:06  -344.927130c -3.09  -3.37
Writing to output.gpw (mode='')

iter:  45 10:09:14  -344.927253c -3.39  -3.41
iter:  46 10:09:21  -344.927309c -3.19  -3.52
iter:  47 10:09:28  -344.927364c -3.56  -3.57
iter:  48 10:09:36  -344.927448c -3.44  -3.68
iter:  49 10:09:49  -344.927465c -3.77  -3.77
Writing to output.gpw (mode='')

iter:  50 10:09:56  -344.927499c -3.93  -3.82
iter:  51 10:10:04  -344.927527c -3.65  -3.86
iter:  52 10:10:11  -344.927553c -3.88  -3.91
iter:  53 10:10:19  -344.927575c -3.99  -3.95
iter:  54 10:10:26  -344.927588c -4.03  -3.99
Writing to output.gpw (mode='')

iter:  55 10:10:34  -344.927593c -4.09  -4.03c
iter:  56 10:10:41  -344.927597c -4.21  -4.03c
iter:  57 10:10:49  -344.927610c -4.33  -4.17c
iter:  58 10:10:56  -344.927610c -4.32  -4.27c
iter:  59 10:11:04  -344.927620c -4.44  -4.52c
Writing to output.gpw (mode='')

iter:  60 10:11:11  -344.927620c -4.46  -4.49c
iter:  61 10:11:18  -344.927624c -4.55  -4.76c
iter:  62 10:11:26  -344.927625c -4.66  -4.75c
iter:  63 10:11:33  -344.927627c -4.72  -4.73c
iter:  64 10:11:41  -344.927630c -4.70  -4.66c
Writing to output.gpw (mode='')

iter:  65 10:11:48  -344.927631c -4.60  -4.57c
iter:  66 10:11:56  -344.927633c -4.73  -4.56c
iter:  67 10:12:03  -344.927633c -4.93  -4.50c
iter:  68 10:12:11  -344.927633c -4.96  -4.51c
iter:  69 10:12:18  -344.927633c -4.93  -4.54c
Writing to output.gpw (mode='')

iter:  70 10:12:26  -344.927632c -4.93  -4.53c
iter:  71 10:12:33  -344.927629c -5.20  -4.51c
iter:  72 10:12:41  -344.927632c -5.18  -4.60c
iter:  73 10:12:48  -344.927632c -5.31  -4.65c
iter:  74 10:12:56  -344.927634c -5.40  -4.59c
Writing to output.gpw (mode='')

iter:  75 10:13:03  -344.927635c -5.39  -4.58c
iter:  76 10:13:11  -344.927633c -5.40  -4.57c
iter:  77 10:13:18  -344.927633c -5.42  -4.77c
iter:  78 10:13:26  -344.927632c -5.45  -4.86c
iter:  79 10:13:33  -344.927632c -5.47  -5.02c
Writing to output.gpw (mode='')

iter:  80 10:13:40  -344.927632c -5.58  -5.13c
iter:  81 10:13:48  -344.927632c -5.67  -5.15c
iter:  82 10:13:55  -344.927633c -5.55  -5.23c
iter:  83 10:14:03  -344.927632c -5.83  -5.22c
iter:  84 10:14:10  -344.927632c -5.75  -5.31c
Writing to output.gpw (mode='')

iter:  85 10:14:18  -344.927632c -5.83  -5.37c
iter:  86 10:14:25  -344.927632c -6.13  -5.27c
iter:  87 10:14:33  -344.927632c -6.07  -5.33c
iter:  88 10:14:46  -344.927632c -5.86  -5.37c
iter:  89 10:14:54  -344.927632c -6.08  -5.34c
Writing to output.gpw (mode='')

iter:  90 10:15:02  -344.927631c -6.32  -5.32c
iter:  91 10:15:09  -344.927631c -6.32  -5.39c
iter:  92 10:15:17  -344.927631c -6.41  -5.45c
iter:  93 10:15:24  -344.927631c -6.41  -5.58c
iter:  94 10:15:32  -344.927631c -6.40  -5.70c
Writing to output.gpw (mode='')

iter:  95 10:15:39  -344.927631c -6.44  -5.77c
iter:  96 10:15:46  -344.927631c -6.56  -6.02c
iter:  97 10:15:54  -344.927631c -6.61  -6.04c
iter:  98 10:16:01  -344.927631c -6.58  -6.14c
iter:  99 10:16:09  -344.927631c -6.73  -6.25c
Writing to output.gpw (mode='')

iter: 100 10:16:16  -344.927631c -6.79  -6.41c
iter: 101 10:16:24  -344.927631c -6.85  -6.40c
iter: 102 10:16:31  -344.927631c -6.88  -6.37c
iter: 103 10:16:39  -344.927631c -6.99  -6.37c
iter: 104 10:16:46  -344.927631c -7.03  -6.18c
Writing to output.gpw (mode='')

iter: 105 10:16:54  -344.927631c -6.98  -6.31c
iter: 106 10:17:01  -344.927631c -7.06  -6.44c
iter: 107 10:17:09  -344.927631c -7.08  -6.42c
iter: 108 10:17:16  -344.927631c -7.14  -6.39c
iter: 109 10:17:27  -344.927631c -7.22  -6.33c
Writing to output.gpw (mode='')

iter: 110 10:17:34  -344.927631c -7.19  -6.27c
iter: 111 10:17:42  -344.927631c -7.30  -6.22c
iter: 112 10:17:49  -344.927631c -7.36  -6.27c
iter: 113 10:17:56  -344.927631c -7.39  -6.25c
iter: 114 10:18:04  -344.927631c -7.39  -6.21c
Writing to output.gpw (mode='')

iter: 115 10:18:12  -344.927631c -7.40  -6.28c
iter: 116 10:18:19  -344.927631c -7.37  -6.42c
iter: 117 10:18:26  -344.927631c -7.48c -6.44c

Converged after 117 iterations.

Dipole moment: (-20.136121, -2.583553, 0.049108) |e|*Ang

Energy contributions relative to reference atoms: (reference = -16540.070923)

Kinetic:       +261.191541
Potential:     -228.442253
External:        +0.000000
XC:            -378.441636
Entropy (-ST):   -0.163004
Local:           +0.846219
--------------------------
Free energy:   -345.009133
Extrapolated:  -344.927631

Dipole-layer corrected work functions: 3.411078, 3.316677 eV

Showing only first 2 kpts
 Kpt  Band  Eigenvalues  Occupancy
  0    37     -3.61827    1.98773
  0    38     -3.51013    1.89815
  0    39     -3.27080    0.26906
  0    40     -3.12329    0.01614

  1    37     -3.46433    1.76348
  1    38     -3.34661    0.82904
  1    39     -3.30552    0.47475
  1    40     -3.27849    0.30692


Fermi level: -3.36388

No gap
Writing to output.gpw (mode='')


Forces in eV/Ang:
  0 Li    0.01243   -0.00515   -0.27896
  1 Li    0.00189    0.00251   -0.27099
  2 Li   -0.01245   -0.00062   -0.28111
  3 Li    0.00234    0.01216   -0.27399
  4 Li    0.00045   -0.00239   -0.26790
  5 Li   -0.00167    0.01545   -0.27500
  6 Li   -0.00585   -0.01183   -0.26747
  7 Li    0.00026   -0.00100   -0.28055
  8 Li    0.00319   -0.00801   -0.26998
  9 Li   -0.00362    0.00324    0.29256
 10 Li    0.01510   -0.00358    0.25642
 11 Li   -0.01089    0.00082    0.26794
 12 Li    0.00476   -0.00996    0.31911
 13 Li    0.00863    0.00073    0.26721
 14 Li   -0.01873    0.00100    0.25414
 15 Li   -0.00055    0.00398    0.24998
 16 Li   -0.00022    0.01543    0.25114
 17 Li    0.00354   -0.00927    0.24513
 18 Li    0.04277   -0.01200   -0.09419
 19 Li   -0.00478    0.00389    0.06901
 20 Li   -0.04230    0.00634   -0.10123
 21 Li   -0.00170   -0.00229    0.01767
 22 Li   -0.00018    0.00846    0.04887
 23 Li    0.00208   -0.01381    0.01275
 24 Li   -0.01480    0.01893    0.05124
 25 Li   -0.00026   -0.01677    0.02407
 26 Li    0.01509    0.00537    0.05742
 27 Li    0.02301    0.14393    0.30147
 28 Li    0.04669   -0.04019   -0.02032
 29 Li   -0.09070   -0.05813   -0.05289
 30 Li   -0.08278    1.88338   -4.52832
 31 Li    0.11387    0.03489   -0.09326
 32 Li   -0.07716    0.04874   -0.05229
 33 Li    0.01693    0.04846   -0.12711
 34 Li    0.03609    0.00321   -0.06861
 35 Li   -0.02786    0.01029   -0.04737
 36 O     5.05044   -4.86943   17.59427
 37 C    -0.01739    2.36213    2.08231
 38 C     0.02396    0.07547    0.46181
 39 C     1.46796    2.20556    4.26521
 40 C     0.25664   -0.05449    0.18636
 41 H     0.04894    0.02978    0.25521
 42 H    -0.17647    1.08352    1.35558
 43 H     0.03407   -0.03794   -0.07988
 44 H     0.07477    0.08641    0.00282
 45 H     1.40765    0.24064    1.37228
 46 H    -0.12383   -0.19273    0.89917
 47 H    -0.21862    0.04335   -0.02172
 48 H    -0.06992    0.00431   -0.04481
 49 H     0.02065    0.02686   -0.01524
 50 H   -11.14010   -1.34914    5.79215
 51 N     4.23352  -12.63950  -16.91635
 52 N    -0.81534   10.84667  -12.50686

System changes: positions 

Initializing position-dependent things.

Density initialized from wave functions
       .-----------------------.  
      /|                       |  
     / |                       |  
    /  |                       |  
   /   |                       |  
  /    |                       |  
 *     |                       |  
 |     |                       |  
 |     |                       |  
 |     |                       |  
 |     |                   H   |  
 |     HH                    C |  
 |    C|                  H    |  
 |    H|H      Li      Li  CH  |  
 |   C |                  H    |  
 |O  LH|     Li      Li  H     |  
 |N    |                   N   |  
 |     |  LLi     LLi     LLi  |  
 |     |                       |  
 Li    |Li      Li      Li     |  
 |   Li|     Li      Li        |  
 |    Li  Li  Li  Li  Li  Li   |  
 | Li  |   Li      Li          |  
 |     |Li      Li      Li     |  
 Li    | Li      Li            |  
 |    Li      Li      Li       |  
 |     |                       |  
 |     |                       |  
 |     |                       |  
 |     |                       |  
 |     |                       |  
 |     |                       |  
 |     .-----------------------.  
 |    /                       /   
 |   /                       /    
 |  /                       /     
 | /                       /      
 |/                       /       
 *-----------------------*        

Positions:
   0 Li     1.617037    1.617037   10.000000    ( 0.0000,  0.0000,  0.0000)
   1 Li     4.851111    1.617037   10.000000    ( 0.0000,  0.0000,  0.0000)
   2 Li     8.085185    1.617037   10.000000    ( 0.0000,  0.0000,  0.0000)
   3 Li     1.617037    4.851111   10.000000    ( 0.0000,  0.0000,  0.0000)
   4 Li     4.851111    4.851111   10.000000    ( 0.0000,  0.0000,  0.0000)
   5 Li     8.085185    4.851111   10.000000    ( 0.0000,  0.0000,  0.0000)
   6 Li     1.617037    8.085185   10.000000    ( 0.0000,  0.0000,  0.0000)
   7 Li     4.851111    8.085185   10.000000    ( 0.0000,  0.0000,  0.0000)
   8 Li     8.085185    8.085185   10.000000    ( 0.0000,  0.0000,  0.0000)
   9 Li     0.000000    0.000000   11.617037    ( 0.0000,  0.0000,  0.0000)
  10 Li     3.234074    0.000000   11.617037    ( 0.0000,  0.0000,  0.0000)
  11 Li     6.468148    0.000000   11.617037    ( 0.0000,  0.0000,  0.0000)
  12 Li     0.000000    3.234074   11.617037    ( 0.0000,  0.0000,  0.0000)
  13 Li     3.234074    3.234074   11.617037    ( 0.0000,  0.0000,  0.0000)
  14 Li     6.468148    3.234074   11.617037    ( 0.0000,  0.0000,  0.0000)
  15 Li     0.000000    6.468148   11.617037    ( 0.0000,  0.0000,  0.0000)
  16 Li     3.234074    6.468148   11.617037    ( 0.0000,  0.0000,  0.0000)
  17 Li     6.468148    6.468148   11.617037    ( 0.0000,  0.0000,  0.0000)
  18 Li     1.617118    1.617016   13.469553    ( 0.0000,  0.0000,  0.0000)
  19 Li     4.851102    1.617046   13.469858    ( 0.0000,  0.0000,  0.0000)
  20 Li     8.085105    1.617050   13.469540    ( 0.0000,  0.0000,  0.0000)
  21 Li     1.617035    4.851107   13.469762    ( 0.0000,  0.0000,  0.0000)
  22 Li     4.851111    4.851127   13.469821    ( 0.0000,  0.0000,  0.0000)
  23 Li     8.085187    4.851085   13.469753    ( 0.0000,  0.0000,  0.0000)
  24 Li     1.617011    8.085219   13.469823    ( 0.0000,  0.0000,  0.0000)
  25 Li     4.851111    8.085152   13.469774    ( 0.0000,  0.0000,  0.0000)
  26 Li     8.085212    8.085194   13.469834    ( 0.0000,  0.0000,  0.0000)
  27 Li     0.000043    0.000267   15.446499    ( 0.0000,  0.0000,  0.0000)
  28 Li     3.234160   -0.000075   15.445901    ( 0.0000,  0.0000,  0.0000)
  29 Li     6.467980   -0.000108   15.445841    ( 0.0000,  0.0000,  0.0000)
  30 Li    -0.000154    3.237572   15.437529    ( 0.0000,  0.0000,  0.0000)
  31 Li     3.234288    3.234141   15.445765    ( 0.0000,  0.0000,  0.0000)
  32 Li     6.468002    3.234167   15.445841    ( 0.0000,  0.0000,  0.0000)
  33 Li     0.000031    6.468238   15.445703    ( 0.0000,  0.0000,  0.0000)
  34 Li     3.234143    6.468152   15.445811    ( 0.0000,  0.0000,  0.0000)
  35 Li     6.468094    6.468165   15.445850    ( 0.0000,  0.0000,  0.0000)
  36 O      0.009380    1.607993   18.478617    ( 0.0000,  0.0000,  0.0000)
  37 C     -0.012373    4.088483   18.485633    ( 0.0000,  0.0000,  0.0000)
  38 C      0.842756    5.353798   18.469212    ( 0.0000,  0.0000,  0.0000)
  39 C      0.813206    2.805616   18.454068    ( 0.0000,  0.0000,  0.0000)
  40 C     -0.007798    6.626267   18.453072    ( 0.0000,  0.0000,  0.0000)
  41 H     -0.645419    4.069353   19.375733    ( 0.0000,  0.0000,  0.0000)
  42 H     -0.682856    4.099425   17.612927    ( 0.0000,  0.0000,  0.0000)
  43 H      1.501850    5.340626   17.591997    ( 0.0000,  0.0000,  0.0000)
  44 H      1.499014    5.358721   19.346330    ( 0.0000,  0.0000,  0.0000)
  45 H      1.478660    2.808521   17.574556    ( 0.0000,  0.0000,  0.0000)
  46 H      1.433564    2.716646   19.342435    ( 0.0000,  0.0000,  0.0000)
  47 H     -0.651161    6.654035   17.568642    ( 0.0000,  0.0000,  0.0000)
  48 H     -0.658418    6.671693   19.330094    ( 0.0000,  0.0000,  0.0000)
  49 H      0.605489    7.529592   18.446553    ( 0.0000,  0.0000,  0.0000)
  50 H     -0.609790    1.663841   17.694518    ( 0.0000,  0.0000,  0.0000)
  51 N      0.007863    1.593525   16.914521    ( 0.0000,  0.0000,  0.0000)
  52 N     -0.001514    2.733767   16.922711    ( 0.0000,  0.0000,  0.0000)

Unit cell:
           periodic     x           y           z      points  spacing
  1. axis:    yes    9.702222    0.000000    0.000000    60     0.1617
  2. axis:    yes    0.000000    9.702222    0.000000    60     0.1617
  3. axis:    no     0.000000    0.000000   26.351111   164     0.1607

  Lengths:   9.702222   9.702222  26.351111
  Angles:   90.000000  90.000000  90.000000

Effective grid spacing dv^(1/3) = 0.1614

     iter     time        total  log10-change:
                         energy  eigst   dens
iter:   1 10:18:36  -348.352268  -0.30
iter:   2 10:18:43  -347.426831  -0.54  -1.38
iter:   3 10:18:51  -347.199804  -0.79  -1.39
iter:   4 10:18:58  -347.263895  -0.79  -1.66
Writing to output.gpw (mode='')

iter:   5 10:19:06  -347.133296  -1.26  -1.67
iter:   6 10:19:14  -347.200400  -1.10  -1.85
iter:   7 10:19:21  -347.086592  -1.13  -1.70
iter:   8 10:19:29  -347.062174  -2.06  -2.00
iter:   9 10:19:36  -347.046829  -2.12  -2.15
Writing to output.gpw (mode='')

iter:  10 10:19:50  -347.049993c -2.06  -2.48
iter:  11 10:19:58  -347.045848c -2.43  -2.38
iter:  12 10:20:05  -347.045390c -3.07  -2.49
iter:  13 10:20:13  -347.044460c -3.27  -2.70
iter:  14 10:20:20  -347.044971c -3.09  -2.87
Writing to output.gpw (mode='')

iter:  15 10:20:28  -347.044632c -3.55  -2.91
iter:  16 10:20:36  -347.044567c -4.01  -3.13
iter:  17 10:20:43  -347.044700c -3.50  -3.19
iter:  18 10:20:51  -347.044637c -3.97  -3.14
iter:  19 10:20:58  -347.044617c -4.14  -3.42
Writing to output.gpw (mode='')

iter:  20 10:21:06  -347.044644c -4.49  -3.43
iter:  21 10:21:13  -347.044630c -4.61  -3.51
iter:  22 10:21:21  -347.044672c -4.43  -3.58
iter:  23 10:21:28  -347.044648c -4.76  -3.68
iter:  24 10:21:36  -347.044654c -5.23  -3.78
Writing to output.gpw (mode='')

iter:  25 10:21:44  -347.044649c -4.73  -3.83
iter:  26 10:21:51  -347.044649c -5.29  -3.89
iter:  27 10:21:59  -347.044654c -5.20  -4.00
iter:  28 10:22:07  -347.044650c -5.53  -4.21c
iter:  29 10:22:14  -347.044652c -5.72  -4.30c
Writing to output.gpw (mode='')

iter:  30 10:22:22  -347.044652c -5.83  -4.32c
iter:  31 10:22:29  -347.044656c -5.74  -4.39c
iter:  32 10:22:37  -347.044654c -5.93  -4.51c
iter:  33 10:22:44  -347.044656c -6.18  -4.62c
iter:  34 10:22:52  -347.044657c -6.08  -4.80c
Writing to output.gpw (mode='')

iter:  35 10:22:59  -347.044656c -6.50  -4.80c
iter:  36 10:23:07  -347.044655c -6.40  -4.92c
iter:  37 10:23:15  -347.044655c -6.70  -5.09c
iter:  38 10:23:22  -347.044655c -6.88  -5.12c
iter:  39 10:23:30  -347.044656c -6.73  -5.15c
Writing to output.gpw (mode='')

iter:  40 10:23:37  -347.044656c -6.92  -5.27c
iter:  41 10:23:45  -347.044655c -6.91  -5.43c
iter:  42 10:23:52  -347.044656c -7.00  -5.39c
iter:  43 10:24:00  -347.044656c -7.18  -5.50c
iter:  44 10:24:07  -347.044655c -7.29  -5.52c
Writing to output.gpw (mode='')

iter:  45 10:24:15  -347.044656c -7.24  -5.69c
iter:  46 10:24:22  -347.044656c -7.31  -5.58c
iter:  47 10:24:30  -347.044656c -7.66c -5.55c

Converged after 47 iterations.

Dipole moment: (-21.644630, -2.469678, 0.003651) |e|*Ang

Energy contributions relative to reference atoms: (reference = -16540.070923)

Kinetic:       +247.571631
Potential:     -219.260395
External:        +0.000000
XC:            -376.125053
Entropy (-ST):   -0.164237
Local:           +0.851280
--------------------------
Free energy:   -347.126774
Extrapolated:  -347.044656

Dipole-layer corrected work functions: 3.414137, 3.407119 eV

Showing only first 2 kpts
 Kpt  Band  Eigenvalues  Occupancy
  0    37     -3.66362    1.98739
  0    38     -3.55374    1.89190
  0    39     -3.33049    0.33522
  0    40     -3.16317    0.01408

  1    37     -3.52249    1.80709
  1    38     -3.38899    0.78693
  1    39     -3.34244    0.40727
  1    40     -3.31311    0.24903


Fermi level: -3.41063

No gap
Writing to output.gpw (mode='')


Forces in eV/Ang:
  0 Li    0.01265   -0.00525   -0.28058
  1 Li    0.00184    0.00238   -0.27119
  2 Li   -0.01285   -0.00094   -0.28273
  3 Li    0.00234    0.01312   -0.27548
  4 Li    0.00056   -0.00248   -0.26731
  5 Li   -0.00166    0.01652   -0.27667
  6 Li   -0.00599   -0.01245   -0.26798
  7 Li    0.00049   -0.00061   -0.28075
  8 Li    0.00321   -0.00880   -0.27072
  9 Li   -0.00352    0.00246    0.29420
 10 Li    0.01481   -0.00229    0.25827
 11 Li   -0.01029    0.00127    0.26974
 12 Li    0.00456   -0.00903    0.32290
 13 Li    0.00731    0.00021    0.26970
 14 Li   -0.01720   -0.00012    0.25642
 15 Li   -0.00009    0.00368    0.25083
 16 Li    0.00089    0.01503    0.25077
 17 Li    0.00183   -0.00883    0.24466
 18 Li    0.04228   -0.01388   -0.10331
 19 Li   -0.00427    0.00434    0.07246
 20 Li   -0.04140    0.00530   -0.11106
 21 Li    0.00103    0.00140    0.00846
 22 Li    0.00081    0.00560    0.05113
 23 Li   -0.00159   -0.00949    0.00307
 24 Li   -0.01450    0.01713    0.04749
 25 Li   -0.00171   -0.01535    0.02524
 26 Li    0.01540    0.00383    0.05451
 27 Li    0.02363    0.17107    0.34562
 28 Li    0.04580   -0.04234   -0.01534
 29 Li   -0.09261   -0.06160   -0.04848
 30 Li   -0.08476    1.95060   -4.86492
 31 Li    0.10351    0.03622   -0.08100
 32 Li   -0.07025    0.05020   -0.04291
 33 Li    0.01650    0.04703   -0.11571
 34 Li    0.03790    0.00410   -0.06749
 35 Li   -0.02922    0.01063   -0.04725
 36 O     3.87555   -3.41764   13.86661
 37 C    -0.04544    2.10556    1.89399
 38 C     0.04349    0.11565    0.43437
 39 C     1.09422    1.53135    3.77701
 40 C     0.24438   -0.03342    0.16831
 41 H     0.00434    0.05025    0.32989
 42 H    -0.14159    1.05258    1.39608
 43 H     0.02343   -0.04514   -0.06170
 44 H     0.09165    0.09655    0.01856
 45 H     1.18893    0.20904    1.42393
 46 H     0.01600   -0.07107    0.98895
 47 H    -0.20532    0.03820   -0.00976
 48 H    -0.06554    0.00640   -0.04653
 49 H     0.01929    0.03536   -0.01093
 50 H    -7.72074   -1.26452    4.70329
 51 N     2.44746   -7.17015  -13.47039
 52 N    -0.84894    4.53943  -10.42976

System changes: positions 

Initializing position-dependent things.

Density initialized from wave functions
       .-----------------------.  
      /|                       |  
     / |                       |  
    /  |                       |  
   /   |                       |  
  /    |                       |  
 *     |                       |  
 |     |                       |  
 |     |                       |  
 |     |                       |  
 |     |                   H   |  
 |     HH                    C |  
 |    C|                  H    |  
 |    H|H      Li      Li   C  |  
 |   C |                  H    |  
 |O  LH|     Li      Li H      |  
 |     |                   N   |  
 |N    |  LLi     LLi     LLi  |  
 |     |                       |  
 Li    |Li      Li      Li     |  
 |   Li|     Li      Li        |  
 |    Li  Li  Li  Li  Li  Li   |  
 | Li  |   Li      Li          |  
 |     |Li      Li      Li     |  
 Li    | Li      Li            |  
 |    Li      Li      Li       |  
 |     |                       |  
 |     |                       |  
 |     |                       |  
 |     |                       |  
 |     |                       |  
 |     |                       |  
 |     .-----------------------.  
 |    /                       /   
 |   /                       /    
 |  /                       /     
 | /                       /      
 |/                       /       
 *-----------------------*        

Positions:
   0 Li     1.617037    1.617037   10.000000    ( 0.0000,  0.0000,  0.0000)
   1 Li     4.851111    1.617037   10.000000    ( 0.0000,  0.0000,  0.0000)
   2 Li     8.085185    1.617037   10.000000    ( 0.0000,  0.0000,  0.0000)
   3 Li     1.617037    4.851111   10.000000    ( 0.0000,  0.0000,  0.0000)
   4 Li     4.851111    4.851111   10.000000    ( 0.0000,  0.0000,  0.0000)
   5 Li     8.085185    4.851111   10.000000    ( 0.0000,  0.0000,  0.0000)
   6 Li     1.617037    8.085185   10.000000    ( 0.0000,  0.0000,  0.0000)
   7 Li     4.851111    8.085185   10.000000    ( 0.0000,  0.0000,  0.0000)
   8 Li     8.085185    8.085185   10.000000    ( 0.0000,  0.0000,  0.0000)
   9 Li     0.000000    0.000000   11.617037    ( 0.0000,  0.0000,  0.0000)
  10 Li     3.234074    0.000000   11.617037    ( 0.0000,  0.0000,  0.0000)
  11 Li     6.468148    0.000000   11.617037    ( 0.0000,  0.0000,  0.0000)
  12 Li     0.000000    3.234074   11.617037    ( 0.0000,  0.0000,  0.0000)
  13 Li     3.234074    3.234074   11.617037    ( 0.0000,  0.0000,  0.0000)
  14 Li     6.468148    3.234074   11.617037    ( 0.0000,  0.0000,  0.0000)
  15 Li     0.000000    6.468148   11.617037    ( 0.0000,  0.0000,  0.0000)
  16 Li     3.234074    6.468148   11.617037    ( 0.0000,  0.0000,  0.0000)
  17 Li     6.468148    6.468148   11.617037    ( 0.0000,  0.0000,  0.0000)
  18 Li     1.617294    1.616946   13.469063    ( 0.0000,  0.0000,  0.0000)
  19 Li     4.851087    1.617067   13.470185    ( 0.0000,  0.0000,  0.0000)
  20 Li     8.084935    1.617067   13.469014    ( 0.0000,  0.0000,  0.0000)
  21 Li     1.617055    4.851133   13.469747    ( 0.0000,  0.0000,  0.0000)
  22 Li     4.851120    4.851135   13.470051    ( 0.0000,  0.0000,  0.0000)
  23 Li     8.085160    4.851069   13.469712    ( 0.0000,  0.0000,  0.0000)
  24 Li     1.616951    8.085282   13.470004    ( 0.0000,  0.0000,  0.0000)
  25 Li     4.851095    8.085095   13.469888    ( 0.0000,  0.0000,  0.0000)
  26 Li     8.085279    8.085202   13.470050    ( 0.0000,  0.0000,  0.0000)
  27 Li     0.000147    0.001145   15.448212    ( 0.0000,  0.0000,  0.0000)
  28 Li     3.234350   -0.000266   15.445864    ( 0.0000,  0.0000,  0.0000)
  29 Li     6.467576   -0.000389   15.445659    ( 0.0000,  0.0000,  0.0000)
  30 Li    -0.000525    3.246229   15.414998    ( 0.0000,  0.0000,  0.0000)
  31 Li     3.234670    3.234302   15.445489    ( 0.0000,  0.0000,  0.0000)
  32 Li     6.467742    3.234388   15.445711    ( 0.0000,  0.0000,  0.0000)
  33 Li     0.000099    6.468430   15.445275    ( 0.0000,  0.0000,  0.0000)
  34 Li     3.234314    6.468174   15.445530    ( 0.0000,  0.0000,  0.0000)
  35 Li     6.467962    6.468212   15.445650    ( 0.0000,  0.0000,  0.0000)
  36 O      0.019319    1.601536   18.516820    ( 0.0000,  0.0000,  0.0000)
  37 C     -0.012722    4.096002   18.492631    ( 0.0000,  0.0000,  0.0000)
  38 C      0.843049    5.354512   18.470905    ( 0.0000,  0.0000,  0.0000)
  39 C      0.815779    2.808378   18.467400    ( 0.0000,  0.0000,  0.0000)
  40 C     -0.006828    6.626241   18.453686    ( 0.0000,  0.0000,  0.0000)
  41 H     -0.645648    4.069680   19.377548    ( 0.0000,  0.0000,  0.0000)
  42 H     -0.683264    4.103724   17.619081    ( 0.0000,  0.0000,  0.0000)
  43 H      1.501890    5.340394   17.591835    ( 0.0000,  0.0000,  0.0000)
  44 H      1.499497    5.359187   19.346496    ( 0.0000,  0.0000,  0.0000)
  45 H      1.482496    2.809233   17.580891    ( 0.0000,  0.0000,  0.0000)
  46 H      1.434408    2.717020   19.347134    ( 0.0000,  0.0000,  0.0000)
  47 H     -0.651959    6.654168   17.568667    ( 0.0000,  0.0000,  0.0000)
  48 H     -0.658672    6.671732   19.329887    ( 0.0000,  0.0000,  0.0000)
  49 H      0.605563    7.529789   18.446530    ( 0.0000,  0.0000,  0.0000)
  50 H     -0.623602    1.658940   17.708450    ( 0.0000,  0.0000,  0.0000)
  51 N      0.008344    1.593430   16.876437    ( 0.0000,  0.0000,  0.0000)
  52 N     -0.005307    2.718038   16.889942    ( 0.0000,  0.0000,  0.0000)

Unit cell:
           periodic     x           y           z      points  spacing
  1. axis:    yes    9.702222    0.000000    0.000000    60     0.1617
  2. axis:    yes    0.000000    9.702222    0.000000    60     0.1617
  3. axis:    no     0.000000    0.000000   26.351111   164     0.1607

  Lengths:   9.702222   9.702222  26.351111
  Angles:   90.000000  90.000000  90.000000

Effective grid spacing dv^(1/3) = 0.1614

     iter     time        total  log10-change:
                         energy  eigst   dens
iter:   1 10:24:44  -348.854920  -0.45
iter:   2 10:24:53  -348.811116  -0.73  -1.72
iter:   3 10:25:05  -348.778476  -1.24  -1.71
iter:   4 10:25:14  -348.726704  -1.29  -1.90
Writing to output.gpw (mode='')

iter:   5 10:25:21  -348.744000  -1.62  -2.10
iter:   6 10:25:29  -348.718332c -1.80  -1.97
iter:   7 10:25:37  -348.693542  -1.82  -2.05
iter:   8 10:25:44  -348.687225c -1.66  -2.38
iter:   9 10:25:52  -348.687049c -2.31  -2.46
Writing to output.gpw (mode='')

iter:  10 10:25:59  -348.686690c -2.56  -2.57
iter:  11 10:26:07  -348.686980c -2.85  -2.87
iter:  12 10:26:14  -348.686890c -3.11  -2.96
iter:  13 10:26:22  -348.687207c -3.07  -3.01
iter:  14 10:26:29  -348.687093c -3.43  -3.06
Writing to output.gpw (mode='')

iter:  15 10:26:37  -348.687077c -3.76  -3.18
iter:  16 10:26:44  -348.687049c -3.79  -3.41
iter:  17 10:26:52  -348.687073c -4.23  -3.45
iter:  18 10:26:59  -348.687083c -4.10  -3.49
iter:  19 10:27:07  -348.687095c -4.28  -3.37
Writing to output.gpw (mode='')

iter:  20 10:27:14  -348.687100c -4.67  -3.58
iter:  21 10:27:22  -348.687073c -4.78  -3.59
iter:  22 10:27:29  -348.687097c -4.62  -3.62
iter:  23 10:27:37  -348.687096c -4.71  -3.63
iter:  24 10:27:45  -348.687087c -4.86  -3.70
Writing to output.gpw (mode='')

iter:  25 10:27:52  -348.687081c -5.27  -3.77
iter:  26 10:28:00  -348.687095c -5.01  -3.82
iter:  27 10:28:07  -348.687089c -5.56  -4.08c
iter:  28 10:28:15  -348.687086c -5.46  -4.15c
iter:  29 10:28:22  -348.687092c -5.90  -4.20c
Writing to output.gpw (mode='')

iter:  30 10:28:30  -348.687085c -5.80  -4.29c
iter:  31 10:28:37  -348.687099c -5.72  -4.22c
iter:  32 10:28:45  -348.687090c -5.98  -4.42c
iter:  33 10:28:52  -348.687086c -6.15  -4.55c
iter:  34 10:29:00  -348.687089c -6.12  -4.48c
Writing to output.gpw (mode='')

iter:  35 10:29:07  -348.687090c -6.49  -4.72c
iter:  36 10:29:15  -348.687095c -6.63  -4.73c
iter:  37 10:29:22  -348.687094c -6.42  -4.88c
iter:  38 10:29:30  -348.687093c -6.52  -5.09c
iter:  39 10:29:38  -348.687093c -6.72  -5.20c
Writing to output.gpw (mode='')

iter:  40 10:29:51  -348.687094c -6.75  -5.21c
iter:  41 10:29:59  -348.687094c -6.80  -5.22c
iter:  42 10:30:07  -348.687093c -7.08  -5.39c
iter:  43 10:30:14  -348.687093c -7.07  -5.43c
iter:  44 10:30:22  -348.687094c -7.36  -5.48c
Writing to output.gpw (mode='')

iter:  45 10:30:29  -348.687093c -7.40c -5.46c

Converged after 45 iterations.

Dipole moment: (-22.173601, -2.441073, 0.005698) |e|*Ang

Energy contributions relative to reference atoms: (reference = -16540.070923)

Kinetic:       +241.724428
Potential:     -216.155559
External:        +0.000000
XC:            -375.027245
Entropy (-ST):   -0.163751
Local:           +0.853159
--------------------------
Free energy:   -348.768969
Extrapolated:  -348.687093

Dipole-layer corrected work functions: 3.414592, 3.403638 eV

Showing only first 2 kpts
 Kpt  Band  Eigenvalues  Occupancy
  0    37     -3.66461    1.98800
  0    38     -3.55192    1.89126
  0    39     -3.32575    0.31756
  0    40     -3.16214    0.01422

  1    37     -3.52355    1.81586
  1    38     -3.38785    0.79051
  1    39     -3.34193    0.41380
  1    40     -3.31195    0.25057


Fermi level: -3.40912

No gap

Forces in eV/Ang:
  0 Li    0.01355   -0.00503   -0.28103
  1 Li    0.00174    0.00228   -0.27149
  2 Li   -0.01382   -0.00105   -0.28324
  3 Li    0.00165    0.01352   -0.27596
  4 Li    0.00053   -0.00328   -0.26681
  5 Li   -0.00096    0.01720   -0.27671
  6 Li   -0.00639   -0.01270   -0.26727
  7 Li    0.00052    0.00048   -0.28124
  8 Li    0.00366   -0.00916   -0.27074
  9 Li   -0.00313    0.00264    0.29354
 10 Li    0.01618   -0.00208    0.25735
 11 Li   -0.01145    0.00034    0.26881
 12 Li    0.00411   -0.00959    0.32635
 13 Li    0.00778    0.00083    0.26901
 14 Li   -0.01745    0.00012    0.25651
 15 Li    0.00024    0.00392    0.25032
 16 Li   -0.00030    0.01429    0.25103
 17 Li    0.00258   -0.00821    0.24454
 18 Li    0.04536   -0.01732   -0.10517
 19 Li   -0.00336    0.00440    0.07314
 20 Li   -0.04531    0.00113   -0.11688
 21 Li    0.00382    0.00289    0.00750
 22 Li    0.00227    0.00650    0.05019
 23 Li   -0.00515   -0.00705    0.00184
 24 Li   -0.01468    0.01912    0.04951
 25 Li   -0.00293   -0.01703    0.02393
 26 Li    0.01602    0.00565    0.05556
 27 Li    0.01940    0.12202    0.30603
 28 Li    0.04581   -0.04413   -0.01742
 29 Li   -0.09319   -0.06265   -0.04824
 30 Li   -0.07734    2.00460   -4.82153
 31 Li    0.10404    0.03819   -0.08173
 32 Li   -0.08092    0.05299   -0.04987
 33 Li    0.01535    0.04783   -0.11771
 34 Li    0.03593    0.00352   -0.06718
 35 Li   -0.02637    0.00823   -0.04634
 36 O     2.61790   -2.27675   10.89164
 37 C    -0.06138    1.52416    1.46332
 38 C     0.08460    0.17702    0.36237
 39 C     0.81425    0.96736    3.37125
 40 C     0.19371   -0.00237    0.13872
 41 H    -0.06226    0.08264    0.40545
 42 H    -0.07911    0.94112    1.32299
 43 H    -0.00192   -0.05393   -0.02021
 44 H     0.11308    0.10286    0.04392
 45 H     0.91411    0.19970    1.50403
 46 H     0.16949    0.07912    1.01764
 47 H    -0.17049    0.03159    0.02231
 48 H    -0.05941    0.01024   -0.04377
 49 H     0.02373    0.04260   -0.00669
 50 H    -4.91137   -1.52093    4.80044
 51 N     1.20519   -7.52905  -11.33798
 52 N    -0.67691    5.04020   -8.91002

System changes: positions 

Initializing position-dependent things.

Density initialized from wave functions
       .-----------------------.  
      /|                       |  
     / |                       |  
    /  |                       |  
   /   |                       |  
  /    |                       |  
 *     |                       |  
 |     |                       |  
 |     |                       |  
 |     |                       |  
 |     |                   H   |  
 |     HH                    C |  
 |    C|                  H    |  
 |    H|H      Li      Li   C  |  
 |O  C |                  H    |  
 |   LH|     Li      Li H      |  
 |     |                   N   |  
 |     |  LLi     LLi     NLi  |  
 |     |                       |  
 Li    |Li      Li      Li     |  
 |   Li|     Li      Li        |  
 |    Li  Li  Li  Li  Li  Li   |  
 | Li  |   Li      Li          |  
 |     |Li      Li      Li     |  
 Li    | Li      Li            |  
 |    Li      Li      Li       |  
 |     |                       |  
 |     |                       |  
 |     |                       |  
 |     |                       |  
 |     |                       |  
 |     |                       |  
 |     .-----------------------.  
 |    /                       /   
 |   /                       /    
 |  /                       /     
 | /                       /      
 |/                       /       
 *-----------------------*        

Positions:
   0 Li     1.617037    1.617037   10.000000    ( 0.0000,  0.0000,  0.0000)
   1 Li     4.851111    1.617037   10.000000    ( 0.0000,  0.0000,  0.0000)
   2 Li     8.085185    1.617037   10.000000    ( 0.0000,  0.0000,  0.0000)
   3 Li     1.617037    4.851111   10.000000    ( 0.0000,  0.0000,  0.0000)
   4 Li     4.851111    4.851111   10.000000    ( 0.0000,  0.0000,  0.0000)
   5 Li     8.085185    4.851111   10.000000    ( 0.0000,  0.0000,  0.0000)
   6 Li     1.617037    8.085185   10.000000    ( 0.0000,  0.0000,  0.0000)
   7 Li     4.851111    8.085185   10.000000    ( 0.0000,  0.0000,  0.0000)
   8 Li     8.085185    8.085185   10.000000    ( 0.0000,  0.0000,  0.0000)
   9 Li     0.000000    0.000000   11.617037    ( 0.0000,  0.0000,  0.0000)
  10 Li     3.234074    0.000000   11.617037    ( 0.0000,  0.0000,  0.0000)
  11 Li     6.468148    0.000000   11.617037    ( 0.0000,  0.0000,  0.0000)
  12 Li     0.000000    3.234074   11.617037    ( 0.0000,  0.0000,  0.0000)
  13 Li     3.234074    3.234074   11.617037    ( 0.0000,  0.0000,  0.0000)
  14 Li     6.468148    3.234074   11.617037    ( 0.0000,  0.0000,  0.0000)
  15 Li     0.000000    6.468148   11.617037    ( 0.0000,  0.0000,  0.0000)
  16 Li     3.234074    6.468148   11.617037    ( 0.0000,  0.0000,  0.0000)
  17 Li     6.468148    6.468148   11.617037    ( 0.0000,  0.0000,  0.0000)
  18 Li     1.617571    1.616818   13.468387    ( 0.0000,  0.0000,  0.0000)
  19 Li     4.851074    1.617095   13.470635    ( 0.0000,  0.0000,  0.0000)
  20 Li     8.084657    1.617048   13.468246    ( 0.0000,  0.0000,  0.0000)
  21 Li     1.617106    4.851178   13.469733    ( 0.0000,  0.0000,  0.0000)
  22 Li     4.851145    4.851160   13.470353    ( 0.0000,  0.0000,  0.0000)
  23 Li     8.085092    4.851064   13.469661    ( 0.0000,  0.0000,  0.0000)
  24 Li     1.616866    8.085392   13.470281    ( 0.0000,  0.0000,  0.0000)
  25 Li     4.851064    8.084996   13.470028    ( 0.0000,  0.0000,  0.0000)
  26 Li     8.085377    8.085234   13.470363    ( 0.0000,  0.0000,  0.0000)
  27 Li     0.000244    0.001787   15.450073    ( 0.0000,  0.0000,  0.0000)
  28 Li     3.234613   -0.000545   15.445781    ( 0.0000,  0.0000,  0.0000)
  29 Li     6.467017   -0.000780   15.445404    ( 0.0000,  0.0000,  0.0000)
  30 Li    -0.000954    3.258587   15.385064    ( 0.0000,  0.0000,  0.0000)
  31 Li     3.235220    3.234543   15.445079    ( 0.0000,  0.0000,  0.0000)
  32 Li     6.467260    3.234719   15.445441    ( 0.0000,  0.0000,  0.0000)
  33 Li     0.000181    6.468705   15.444643    ( 0.0000,  0.0000,  0.0000)
  34 Li     3.234526    6.468197   15.445145    ( 0.0000,  0.0000,  0.0000)
  35 Li     6.467813    6.468251   15.445384    ( 0.0000,  0.0000,  0.0000)
  36 O      0.021962    1.601951   18.545036    ( 0.0000,  0.0000,  0.0000)
  37 C     -0.013317    4.100721   18.498091    ( 0.0000,  0.0000,  0.0000)
  38 C      0.843847    5.356065   18.472529    ( 0.0000,  0.0000,  0.0000)
  39 C      0.817069    2.807501   18.482388    ( 0.0000,  0.0000,  0.0000)
  40 C     -0.006002    6.626494   18.454255    ( 0.0000,  0.0000,  0.0000)
  41 H     -0.646580    4.070432   19.380702    ( 0.0000,  0.0000,  0.0000)
  42 H     -0.683234    4.108528   17.626709    ( 0.0000,  0.0000,  0.0000)
  43 H      1.501700    5.339996   17.592015    ( 0.0000,  0.0000,  0.0000)
  44 H      1.500355    5.359877   19.346962    ( 0.0000,  0.0000,  0.0000)
  45 H      1.485293    2.810174   17.590354    ( 0.0000,  0.0000,  0.0000)
  46 H      1.436923    2.718886   19.353736    ( 0.0000,  0.0000,  0.0000)
  47 H     -0.652717    6.654292   17.569016    ( 0.0000,  0.0000,  0.0000)
  48 H     -0.658965    6.671822   19.329634    ( 0.0000,  0.0000,  0.0000)
  49 H      0.605715    7.530121   18.446536    ( 0.0000,  0.0000,  0.0000)
  50 H     -0.619420    1.649350   17.730642    ( 0.0000,  0.0000,  0.0000)
  51 N     -0.000745    1.579487   16.840064    ( 0.0000,  0.0000,  0.0000)
  52 N     -0.008659    2.713231   16.856973    ( 0.0000,  0.0000,  0.0000)

Unit cell:
           periodic     x           y           z      points  spacing
  1. axis:    yes    9.702222    0.000000    0.000000    60     0.1617
  2. axis:    yes    0.000000    9.702222    0.000000    60     0.1617
  3. axis:    no     0.000000    0.000000   26.351111   164     0.1607

  Lengths:   9.702222   9.702222  26.351111
  Angles:   90.000000  90.000000  90.000000

Effective grid spacing dv^(1/3) = 0.1614

     iter     time        total  log10-change:
                         energy  eigst   dens
iter:   1 10:30:39  -350.084622  -0.68
iter:   2 10:30:46  -350.086665  -1.29  -2.09
iter:   3 10:30:54  -350.085351c -1.56  -2.15
iter:   4 10:31:01  -350.081292c -1.69  -2.27
Writing to output.gpw (mode='')

iter:   5 10:31:09  -350.070543c -1.72  -2.31
iter:   6 10:31:17  -350.069164c -2.48  -2.36
iter:   7 10:31:24  -350.069875c -2.21  -2.60
iter:   8 10:31:32  -350.069084c -2.41  -2.48
iter:   9 10:31:39  -350.068499c -2.62  -2.78
Writing to output.gpw (mode='')

iter:  10 10:31:47  -350.068638c -2.89  -2.96
iter:  11 10:31:55  -350.068612c -3.50  -3.04
iter:  12 10:32:02  -350.068613c -3.37  -3.15
iter:  13 10:32:10  -350.068708c -3.44  -3.18
iter:  14 10:32:17  -350.068657c -3.81  -3.22
Writing to output.gpw (mode='')

iter:  15 10:32:25  -350.068659c -4.19  -3.34
iter:  16 10:32:32  -350.068661c -4.38  -3.35
iter:  17 10:32:40  -350.068668c -4.26  -3.34
iter:  18 10:32:48  -350.068632c -4.24  -3.33
iter:  19 10:32:55  -350.068622c -4.41  -3.63
Writing to output.gpw (mode='')

iter:  20 10:33:03  -350.068663c -4.53  -3.75
iter:  21 10:33:10  -350.068636c -4.54  -3.70
iter:  22 10:33:18  -350.068654c -4.84  -3.79
iter:  23 10:33:28  -350.068656c -4.62  -3.72
iter:  24 10:33:35  -350.068644c -5.02  -3.58
Writing to output.gpw (mode='')

iter:  25 10:33:43  -350.068649c -5.08  -3.57
iter:  26 10:33:51  -350.068650c -5.38  -3.75
iter:  27 10:33:58  -350.068652c -5.07  -3.79
iter:  28 10:34:06  -350.068657c -5.39  -3.72
iter:  29 10:34:13  -350.068661c -5.36  -3.74
Writing to output.gpw (mode='')

iter:  30 10:34:21  -350.068680c -5.31  -3.80
iter:  31 10:34:28  -350.068667c -5.24  -3.84
iter:  32 10:34:36  -350.068671c -5.76  -4.08c
iter:  33 10:34:48  -350.068668c -5.27  -4.11c
iter:  34 10:34:56  -350.068660c -5.65  -4.12c
Writing to output.gpw (mode='')

iter:  35 10:35:04  -350.068660c -6.20  -4.36c
iter:  36 10:35:11  -350.068662c -6.06  -4.47c
iter:  37 10:35:19  -350.068660c -6.48  -4.53c
iter:  38 10:35:26  -350.068662c -6.45  -4.63c
iter:  39 10:35:34  -350.068663c -6.42  -4.73c
Writing to output.gpw (mode='')

iter:  40 10:35:41  -350.068663c -6.86  -5.09c
iter:  41 10:35:49  -350.068663c -6.78  -5.12c
iter:  42 10:35:56  -350.068664c -6.77  -5.15c
iter:  43 10:36:04  -350.068663c -7.04  -5.00c
iter:  44 10:36:11  -350.068663c -7.10  -5.47c
Writing to output.gpw (mode='')

iter:  45 10:36:19  -350.068663c -7.09  -5.53c
iter:  46 10:36:26  -350.068663c -7.54c -5.59c

Converged after 46 iterations.

Dipole moment: (-21.161811, -2.399729, -0.003630) |e|*Ang

Energy contributions relative to reference atoms: (reference = -16540.070923)

Kinetic:       +235.048087
Potential:     -211.976952
External:        +0.000000
XC:            -373.911868
Entropy (-ST):   -0.163909
Local:           +0.854025
--------------------------
Free energy:   -350.150617
Extrapolated:  -350.068663

Dipole-layer corrected work functions: 3.415414, 3.422393 eV

Showing only first 2 kpts
 Kpt  Band  Eigenvalues  Occupancy
  0    37     -3.67486    1.98811
  0    38     -3.55911    1.88581
  0    39     -3.33855    0.33399
  0    40     -3.16932    0.01350

  1    37     -3.53856    1.83259
  1    38     -3.39618    0.77661
  1    39     -3.34854    0.39334
  1    40     -3.31571    0.22533


Fermi level: -3.41890

No gap
Writing to output.gpw (mode='')


Forces in eV/Ang:
  0 Li    0.01404   -0.00482   -0.28231
  1 Li    0.00168    0.00230   -0.27166
  2 Li   -0.01438   -0.00105   -0.28457
  3 Li    0.00121    0.01409   -0.27731
  4 Li    0.00055   -0.00382   -0.26615
  5 Li   -0.00062    0.01774   -0.27769
  6 Li   -0.00660   -0.01304   -0.26698
  7 Li    0.00051    0.00126   -0.28171
  8 Li    0.00399   -0.00978   -0.27075
  9 Li   -0.00293    0.00236    0.29422
 10 Li    0.01692   -0.00171    0.25746
 11 Li   -0.01200   -0.00036    0.26929
 12 Li    0.00376   -0.00927    0.33109
 13 Li    0.00726    0.00085    0.26989
 14 Li   -0.01673   -0.00002    0.25819
 15 Li    0.00056    0.00379    0.25086
 16 Li   -0.00013    0.01379    0.25113
 17 Li    0.00200   -0.00731    0.24384
 18 Li    0.04769   -0.02146   -0.11006
 19 Li   -0.00258    0.00445    0.07444
 20 Li   -0.04849   -0.00344   -0.12640
 21 Li    0.00979    0.00828   -0.00176
 22 Li    0.00353    0.00583    0.05019
 23 Li   -0.01171   -0.00024   -0.00693
 24 Li   -0.01478    0.01974    0.04979
 25 Li   -0.00357   -0.01718    0.02356
 26 Li    0.01589    0.00591    0.05411
 27 Li    0.01174    0.08160    0.28418
 28 Li    0.04588   -0.04658   -0.01732
 29 Li   -0.09379   -0.06401   -0.04591
 30 Li   -0.06649    1.97683   -4.64725
 31 Li    0.09832    0.03926   -0.07601
 32 Li   -0.08296    0.05489   -0.04875
 33 Li    0.01410    0.04993   -0.11509
 34 Li    0.03548    0.00400   -0.06633
 35 Li   -0.02503    0.00632   -0.04608
 36 O     2.03096   -1.56937    9.06283
 37 C     0.00277    1.13445    1.27911
 38 C     0.07911    0.16715    0.32047
 39 C     0.48233    0.70200    2.75437
 40 C     0.16134    0.02464    0.11850
 41 H    -0.09395    0.11530    0.43145
 42 H    -0.06488    0.81949    1.19637
 43 H    -0.01057   -0.05633    0.00076
 44 H     0.13084    0.11322    0.06281
 45 H     0.67233    0.14558    1.49119
 46 H     0.30256    0.14152    1.07996
 47 H    -0.14468    0.02647    0.04143
 48 H    -0.05357    0.01394   -0.03990
 49 H     0.02442    0.05522   -0.00427
 50 H    -3.49381   -1.47390    4.57039
 51 N     0.58960   -5.65177   -9.81796
 52 N    -0.52063    3.21794   -7.67578

System changes: positions 

Initializing position-dependent things.

Density initialized from wave functions
       .-----------------------.  
      /|                       |  
     / |                       |  
    /  |                       |  
   /   |                       |  
  /    |                       |  
 *     |                       |  
 |     |                       |  
 |     |                       |  
 |     |                       |  
 |     |                   H   |  
 |     HH                    C |  
 |    C|                  H    |  
 |    H|H      Li      Li  HC  |  
 |O  C |                  H    |  
 |   LH|     Li      Li  H     |  
 |     |                   N   |  
 |     |  LLi     LLi     NLi  |  
 |     |                       |  
 Li    |Li      Li      Li     |  
 |   Li|     Li      Li        |  
 |    Li  Li  Li  Li  Li  Li   |  
 | Li  |   Li      Li          |  
 |     |Li      Li      Li     |  
 Li    | Li      Li            |  
 |    Li      Li      Li       |  
 |     |                       |  
 |     |                       |  
 |     |                       |  
 |     |                       |  
 |     |                       |  
 |     |                       |  
 |     .-----------------------.  
 |    /                       /   
 |   /                       /    
 |  /                       /     
 | /                       /      
 |/                       /       
 *-----------------------*        

Positions:
   0 Li     1.617037    1.617037   10.000000    ( 0.0000,  0.0000,  0.0000)
   1 Li     4.851111    1.617037   10.000000    ( 0.0000,  0.0000,  0.0000)
   2 Li     8.085185    1.617037   10.000000    ( 0.0000,  0.0000,  0.0000)
   3 Li     1.617037    4.851111   10.000000    ( 0.0000,  0.0000,  0.0000)
   4 Li     4.851111    4.851111   10.000000    ( 0.0000,  0.0000,  0.0000)
   5 Li     8.085185    4.851111   10.000000    ( 0.0000,  0.0000,  0.0000)
   6 Li     1.617037    8.085185   10.000000    ( 0.0000,  0.0000,  0.0000)
   7 Li     4.851111    8.085185   10.000000    ( 0.0000,  0.0000,  0.0000)
   8 Li     8.085185    8.085185   10.000000    ( 0.0000,  0.0000,  0.0000)
   9 Li     0.000000    0.000000   11.617037    ( 0.0000,  0.0000,  0.0000)
  10 Li     3.234074    0.000000   11.617037    ( 0.0000,  0.0000,  0.0000)
  11 Li     6.468148    0.000000   11.617037    ( 0.0000,  0.0000,  0.0000)
  12 Li     0.000000    3.234074   11.617037    ( 0.0000,  0.0000,  0.0000)
  13 Li     3.234074    3.234074   11.617037    ( 0.0000,  0.0000,  0.0000)
  14 Li     6.468148    3.234074   11.617037    ( 0.0000,  0.0000,  0.0000)
  15 Li     0.000000    6.468148   11.617037    ( 0.0000,  0.0000,  0.0000)
  16 Li     3.234074    6.468148   11.617037    ( 0.0000,  0.0000,  0.0000)
  17 Li     6.468148    6.468148   11.617037    ( 0.0000,  0.0000,  0.0000)
  18 Li     1.617925    1.616625   13.467554    ( 0.0000,  0.0000,  0.0000)
  19 Li     4.851067    1.617128   13.471174    ( 0.0000,  0.0000,  0.0000)
  20 Li     8.084291    1.616977   13.467255    ( 0.0000,  0.0000,  0.0000)
  21 Li     1.617230    4.851287   13.469627    ( 0.0000,  0.0000,  0.0000)
  22 Li     4.851187    4.851189   13.470705    ( 0.0000,  0.0000,  0.0000)
  23 Li     8.084945    4.851129   13.469520    ( 0.0000,  0.0000,  0.0000)
  24 Li     1.616763    8.085533   13.470621    ( 0.0000,  0.0000,  0.0000)
  25 Li     4.851025    8.084875   13.470189    ( 0.0000,  0.0000,  0.0000)
  26 Li     8.085490    8.085278   13.470722    ( 0.0000,  0.0000,  0.0000)
  27 Li     0.000266    0.002027   15.451927    ( 0.0000,  0.0000,  0.0000)
  28 Li     3.234927   -0.000897   15.445673    ( 0.0000,  0.0000,  0.0000)
  29 Li     6.466355   -0.001249   15.445118    ( 0.0000,  0.0000,  0.0000)
  30 Li    -0.001329    3.272576   15.352798    ( 0.0000,  0.0000,  0.0000)
  31 Li     3.235830    3.234833   15.444631    ( 0.0000,  0.0000,  0.0000)
  32 Li     6.466659    3.235127   15.445119    ( 0.0000,  0.0000,  0.0000)
  33 Li     0.000265    6.469061   15.443898    ( 0.0000,  0.0000,  0.0000)
  34 Li     3.234768    6.468229   15.444697    ( 0.0000,  0.0000,  0.0000)
  35 Li     6.467654    6.468275   15.445071    ( 0.0000,  0.0000,  0.0000)
  36 O      0.023152    1.605278   18.571083    ( 0.0000,  0.0000,  0.0000)
  37 C     -0.013089    4.103028   18.503461    ( 0.0000,  0.0000,  0.0000)
  38 C      0.844598    5.357557   18.474115    ( 0.0000,  0.0000,  0.0000)
  39 C      0.815924    2.806010   18.494360    ( 0.0000,  0.0000,  0.0000)
  40 C     -0.005321    6.627026   18.454772    ( 0.0000,  0.0000,  0.0000)
  41 H     -0.647848    4.071628   19.384423    ( 0.0000,  0.0000,  0.0000)
  42 H     -0.683222    4.112930   17.634115    ( 0.0000,  0.0000,  0.0000)
  43 H      1.501436    5.339530   17.592376    ( 0.0000,  0.0000,  0.0000)
  44 H      1.501514    5.360785   19.347668    ( 0.0000,  0.0000,  0.0000)
  45 H      1.486611    2.810704   17.601110    ( 0.0000,  0.0000,  0.0000)
  46 H      1.440936    2.721285   19.362036    ( 0.0000,  0.0000,  0.0000)
  47 H     -0.653380    6.654400   17.569586    ( 0.0000,  0.0000,  0.0000)
  48 H     -0.659261    6.671963   19.329384    ( 0.0000,  0.0000,  0.0000)
  49 H      0.605900    7.530639   18.446553    ( 0.0000,  0.0000,  0.0000)
  50 H     -0.611173    1.638754   17.757113    ( 0.0000,  0.0000,  0.0000)
  51 N     -0.011992    1.571077   16.802610    ( 0.0000,  0.0000,  0.0000)
  52 N     -0.010801    2.702449   16.825017    ( 0.0000,  0.0000,  0.0000)

Unit cell:
           periodic     x           y           z      points  spacing
  1. axis:    yes    9.702222    0.000000    0.000000    60     0.1617
  2. axis:    yes    0.000000    9.702222    0.000000    60     0.1617
  3. axis:    no     0.000000    0.000000   26.351111   164     0.1607

  Lengths:   9.702222   9.702222  26.351111
  Angles:   90.000000  90.000000  90.000000

Effective grid spacing dv^(1/3) = 0.1614

     iter     time        total  log10-change:
                         energy  eigst   dens
iter:   1 10:36:36  -351.306067  -0.70
iter:   2 10:36:44  -351.282601  -0.98  -1.80
iter:   3 10:36:51  -351.252978  -1.65  -1.79
iter:   4 10:36:58  -351.242529  -1.74  -2.12
Writing to output.gpw (mode='')

iter:   5 10:37:06  -351.245333c -1.95  -2.29
iter:   6 10:37:14  -351.238662c -1.86  -2.17
iter:   7 10:37:21  -351.232961c -2.41  -2.30
iter:   8 10:37:28  -351.233068c -2.23  -2.59
iter:   9 10:37:36  -351.232834c -2.63  -2.60
Writing to output.gpw (mode='')

iter:  10 10:37:44  -351.233073c -2.90  -2.68
iter:  11 10:37:51  -351.232563c -3.28  -2.78
iter:  12 10:37:59  -351.232535c -3.13  -2.88
iter:  13 10:38:06  -351.232677c -3.57  -3.07
iter:  14 10:38:14  -351.232575c -3.96  -3.19
Writing to output.gpw (mode='')

iter:  15 10:38:21  -351.232622c -3.86  -3.35
iter:  16 10:38:29  -351.232597c -3.89  -3.32
iter:  17 10:38:36  -351.232602c -3.95  -3.33
iter:  18 10:38:44  -351.232623c -4.34  -3.73
iter:  19 10:38:51  -351.232621c -4.43  -3.75
Writing to output.gpw (mode='')

iter:  20 10:38:59  -351.232625c -4.46  -3.82
iter:  21 10:39:06  -351.232627c -4.70  -3.87
iter:  22 10:39:14  -351.232631c -4.91  -3.99
iter:  23 10:39:21  -351.232622c -5.06  -4.05c
iter:  24 10:39:29  -351.232625c -4.96  -4.12c
Writing to output.gpw (mode='')

iter:  25 10:39:36  -351.232627c -5.21  -4.18c
iter:  26 10:39:49  -351.232642c -5.14  -4.23c
iter:  27 10:39:57  -351.232639c -5.37  -4.30c
iter:  28 10:40:04  -351.232639c -5.72  -4.58c
iter:  29 10:40:12  -351.232640c -5.67  -4.62c
Writing to output.gpw (mode='')

iter:  30 10:40:19  -351.232641c -5.72  -4.72c
iter:  31 10:40:27  -351.232640c -5.88  -4.94c
iter:  32 10:40:34  -351.232640c -5.72  -5.00c
iter:  33 10:40:42  -351.232641c -5.94  -5.02c
iter:  34 10:40:49  -351.232643c -5.82  -5.11c
Writing to output.gpw (mode='')

iter:  35 10:40:57  -351.232642c -5.94  -5.11c
iter:  36 10:41:04  -351.232642c -6.18  -5.11c
iter:  37 10:41:12  -351.232642c -6.22  -5.08c
iter:  38 10:41:20  -351.232642c -6.35  -5.09c
iter:  39 10:41:27  -351.232643c -6.34  -5.08c
Writing to output.gpw (mode='')

iter:  40 10:41:35  -351.232643c -6.21  -5.05c
iter:  41 10:41:42  -351.232643c -6.29  -4.93c
iter:  42 10:41:50  -351.232643c -6.57  -4.93c
iter:  43 10:41:57  -351.232643c -6.77  -5.02c
iter:  44 10:42:05  -351.232644c -6.81  -4.94c
Writing to output.gpw (mode='')

iter:  45 10:42:12  -351.232644c -6.95  -4.91c
iter:  46 10:42:20  -351.232644c -6.72  -5.01c
iter:  47 10:42:27  -351.232644c -6.68  -4.99c
iter:  48 10:42:35  -351.232644c -6.99  -5.02c
iter:  49 10:42:42  -351.232644c -6.95  -4.99c
Writing to output.gpw (mode='')

iter:  50 10:42:50  -351.232644c -7.18  -5.01c
iter:  51 10:42:57  -351.232644c -7.21  -5.15c
iter:  52 10:43:05  -351.232644c -7.20  -5.21c
iter:  53 10:43:12  -351.232644c -7.25  -5.31c
iter:  54 10:43:20  -351.232644c -7.35  -5.31c
Writing to output.gpw (mode='')

iter:  55 10:43:27  -351.232644c -7.40c -5.31c

Converged after 55 iterations.

Dipole moment: (-19.943457, -2.379759, -0.004315) |e|*Ang

Energy contributions relative to reference atoms: (reference = -16540.070923)

Kinetic:       +230.582976
Potential:     -209.407612
External:        +0.000000
XC:            -373.180295
Entropy (-ST):   -0.163633
Local:           +0.854104
--------------------------
Free energy:   -351.314461
Extrapolated:  -351.232644

Dipole-layer corrected work functions: 3.415304, 3.423600 eV

Showing only first 2 kpts
 Kpt  Band  Eigenvalues  Occupancy
  0    37     -3.67665    1.98840
  0    38     -3.55811    1.88242
  0    39     -3.33813    0.32864
  0    40     -3.16928    0.01334

  1    37     -3.54221    1.84188
  1    38     -3.39633    0.77282
  1    39     -3.34823    0.38794
  1    40     -3.31314    0.21314


Fermi level: -3.41945

No gap

Forces in eV/Ang:
  0 Li    0.01459   -0.00456   -0.28330
  1 Li    0.00158    0.00233   -0.27169
  2 Li   -0.01491   -0.00101   -0.28559
  3 Li    0.00064    0.01454   -0.27850
  4 Li    0.00054   -0.00443   -0.26542
  5 Li   -0.00014    0.01817   -0.27837
  6 Li   -0.00687   -0.01329   -0.26629
  7 Li    0.00045    0.00208   -0.28224
  8 Li    0.00444   -0.01033   -0.27038
  9 Li   -0.00269    0.00219    0.29448
 10 Li    0.01809   -0.00168    0.25708
 11 Li   -0.01306   -0.00138    0.26916
 12 Li    0.00344   -0.00917    0.33573
 13 Li    0.00699    0.00107    0.27028
 14 Li   -0.01633    0.00014    0.25949
 15 Li    0.00076    0.00384    0.25115
 16 Li   -0.00015    0.01338    0.25119
 17 Li    0.00174   -0.00628    0.24318
 18 Li    0.05028   -0.02592   -0.11263
 19 Li   -0.00186    0.00444    0.07473
 20 Li   -0.05238   -0.00866   -0.13385
 21 Li    0.01640    0.01402   -0.01042
 22 Li    0.00466    0.00597    0.04954
 23 Li   -0.01872    0.00665   -0.01461
 24 Li   -0.01482    0.02099    0.05103
 25 Li   -0.00406   -0.01794    0.02246
 26 Li    0.01563    0.00684    0.05335
 27 Li    0.00299    0.01987    0.24090
 28 Li    0.04621   -0.04865   -0.01872
 29 Li   -0.09357   -0.06458   -0.04452
 30 Li   -0.05693    1.92158   -4.36458
 31 Li    0.09587    0.04006   -0.07314
 32 Li   -0.08782    0.05671   -0.05054
 33 Li    0.01273    0.05244   -0.11470
 34 Li    0.03413    0.00428   -0.06552
 35 Li   -0.02275    0.00403   -0.04560
 36 O     1.51914   -1.12339    7.57642
 37 C     0.01561    0.86723    1.11424
 38 C     0.07661    0.13881    0.29082
 39 C     0.35976    0.56063    2.41863
 40 C     0.13359    0.03364    0.10568
 41 H    -0.10142    0.13645    0.42726
 42 H    -0.05338    0.70313    1.07227
 43 H    -0.01675   -0.05649    0.01759
 44 H     0.13936    0.12116    0.07075
 45 H     0.51860    0.09210    1.41025
 46 H     0.32921    0.19769    0.99615
 47 H    -0.12455    0.02362    0.05325
 48 H    -0.04928    0.01866   -0.03408
 49 H     0.02584    0.06470   -0.00280
 50 H    -2.44703   -1.41871    4.40962
 51 N     0.19588   -5.12642   -8.64197
 52 N    -0.42266    2.71212   -6.66790

System changes: positions 

Initializing position-dependent things.

Density initialized from wave functions
       .-----------------------.  
      /|                       |  
     / |                       |  
    /  |                       |  
   /   |                       |  
  /    |                       |  
 *     |                       |  
 |     |                       |  
 |     |                       |  
 |     |                       |  
 |     |                   H   |  
 |     HH                    C |  
 |    C|                  H    |  
 |    H|H      Li      Li  HC  |  
 |O  C |                  H    |  
 |   LH|     Li      Li  H     |  
 |     |                   N   |  
 |     |  LLi     LLi     NLi  |  
 |     |                       |  
 Li    |Li      Li      Li     |  
 |   Li|     Li      Li        |  
 |    Li  Li  Li  Li  Li  Li   |  
 | Li  |   Li      Li          |  
 |     |Li      Li      Li     |  
 Li    | Li      Li            |  
 |    Li      Li      Li       |  
 |     |                       |  
 |     |                       |  
 |     |                       |  
 |     |                       |  
 |     |                       |  
 |     |                       |  
 |     .-----------------------.  
 |    /                       /   
 |   /                       /    
 |  /                       /     
 | /                       /      
 |/                       /       
 *-----------------------*        

Positions:
   0 Li     1.617037    1.617037   10.000000    ( 0.0000,  0.0000,  0.0000)
   1 Li     4.851111    1.617037   10.000000    ( 0.0000,  0.0000,  0.0000)
   2 Li     8.085185    1.617037   10.000000    ( 0.0000,  0.0000,  0.0000)
   3 Li     1.617037    4.851111   10.000000    ( 0.0000,  0.0000,  0.0000)
   4 Li     4.851111    4.851111   10.000000    ( 0.0000,  0.0000,  0.0000)
   5 Li     8.085185    4.851111   10.000000    ( 0.0000,  0.0000,  0.0000)
   6 Li     1.617037    8.085185   10.000000    ( 0.0000,  0.0000,  0.0000)
   7 Li     4.851111    8.085185   10.000000    ( 0.0000,  0.0000,  0.0000)
   8 Li     8.085185    8.085185   10.000000    ( 0.0000,  0.0000,  0.0000)
   9 Li     0.000000    0.000000   11.617037    ( 0.0000,  0.0000,  0.0000)
  10 Li     3.234074    0.000000   11.617037    ( 0.0000,  0.0000,  0.0000)
  11 Li     6.468148    0.000000   11.617037    ( 0.0000,  0.0000,  0.0000)
  12 Li     0.000000    3.234074   11.617037    ( 0.0000,  0.0000,  0.0000)
  13 Li     3.234074    3.234074   11.617037    ( 0.0000,  0.0000,  0.0000)
  14 Li     6.468148    3.234074   11.617037    ( 0.0000,  0.0000,  0.0000)
  15 Li     0.000000    6.468148   11.617037    ( 0.0000,  0.0000,  0.0000)
  16 Li     3.234074    6.468148   11.617037    ( 0.0000,  0.0000,  0.0000)
  17 Li     6.468148    6.468148   11.617037    ( 0.0000,  0.0000,  0.0000)
  18 Li     1.618351    1.616361   13.466601    ( 0.0000,  0.0000,  0.0000)
  19 Li     4.851064    1.617165   13.471779    ( 0.0000,  0.0000,  0.0000)
  20 Li     8.083836    1.616842   13.466071    ( 0.0000,  0.0000,  0.0000)
  21 Li     1.617443    4.851474   13.469416    ( 0.0000,  0.0000,  0.0000)
  22 Li     4.851243    4.851226   13.471094    ( 0.0000,  0.0000,  0.0000)
  23 Li     8.084703    4.851276   13.469282    ( 0.0000,  0.0000,  0.0000)
  24 Li     1.616647    8.085707   13.471021    ( 0.0000,  0.0000,  0.0000)
  25 Li     4.850980    8.084730   13.470356    ( 0.0000,  0.0000,  0.0000)
  26 Li     8.085613    8.085337   13.471120    ( 0.0000,  0.0000,  0.0000)
  27 Li     0.000191    0.001584   15.453491    ( 0.0000,  0.0000,  0.0000)
  28 Li     3.235288   -0.001313   15.445530    ( 0.0000,  0.0000,  0.0000)
  29 Li     6.465615   -0.001777   15.444805    ( 0.0000,  0.0000,  0.0000)
  30 Li    -0.001651    3.287471   15.320251    ( 0.0000,  0.0000,  0.0000)
  31 Li     3.236503    3.235165   15.444143    ( 0.0000,  0.0000,  0.0000)
  32 Li     6.465930    3.235602   15.444733    ( 0.0000,  0.0000,  0.0000)
  33 Li     0.000346    6.469493   15.443050    ( 0.0000,  0.0000,  0.0000)
  34 Li     3.235025    6.468268   15.444199    ( 0.0000,  0.0000,  0.0000)
  35 Li     6.467499    6.468279   15.444721    ( 0.0000,  0.0000,  0.0000)
  36 O      0.022119    1.610225   18.592810    ( 0.0000,  0.0000,  0.0000)
  37 C     -0.012708    4.104023   18.508598    ( 0.0000,  0.0000,  0.0000)
  38 C      0.845319    5.358705   18.475737    ( 0.0000,  0.0000,  0.0000)
  39 C      0.814456    2.804636   18.505614    ( 0.0000,  0.0000,  0.0000)
  40 C     -0.004766    6.627620   18.455289    ( 0.0000,  0.0000,  0.0000)
  41 H     -0.649150    4.073127   19.388294    ( 0.0000,  0.0000,  0.0000)
  42 H     -0.683232    4.116754   17.641082    ( 0.0000,  0.0000,  0.0000)
  43 H      1.501129    5.339031   17.592878    ( 0.0000,  0.0000,  0.0000)
  44 H      1.502849    5.361879   19.348474    ( 0.0000,  0.0000,  0.0000)
  45 H      1.487162    2.810711   17.611943    ( 0.0000,  0.0000,  0.0000)
  46 H      1.445156    2.724240   19.369986    ( 0.0000,  0.0000,  0.0000)
  47 H     -0.653976    6.654509   17.570285    ( 0.0000,  0.0000,  0.0000)
  48 H     -0.659562    6.672171   19.329173    ( 0.0000,  0.0000,  0.0000)
  49 H      0.606120    7.531309   18.446577    ( 0.0000,  0.0000,  0.0000)
  50 H     -0.598908    1.627886   17.786107    ( 0.0000,  0.0000,  0.0000)
  51 N     -0.024772    1.560555   16.766197    ( 0.0000,  0.0000,  0.0000)
  52 N     -0.012440    2.692080   16.795597    ( 0.0000,  0.0000,  0.0000)

Unit cell:
           periodic     x           y           z      points  spacing
  1. axis:    yes    9.702222    0.000000    0.000000    60     0.1617
  2. axis:    yes    0.000000    9.702222    0.000000    60     0.1617
  3. axis:    no     0.000000    0.000000   26.351111   164     0.1607

  Lengths:   9.702222   9.702222  26.351111
  Angles:   90.000000  90.000000  90.000000

Effective grid spacing dv^(1/3) = 0.1614

     iter     time        total  log10-change:
                         energy  eigst   dens
iter:   1 10:43:37  -352.280328  -0.78
iter:   2 10:43:44  -352.264344  -1.13  -1.86
iter:   3 10:43:52  -352.241410c -1.83  -1.84
iter:   4 10:44:00  -352.233975c -1.91  -2.20
Writing to output.gpw (mode='')

iter:   5 10:44:07  -352.234759c -2.11  -2.39
iter:   6 10:44:15  -352.232180c -1.96  -2.28
iter:   7 10:44:22  -352.229802c -2.63  -2.43
iter:   8 10:44:30  -352.229160c -2.39  -2.60
iter:   9 10:44:43  -352.229314c -2.88  -2.73
Writing to output.gpw (mode='')

iter:  10 10:44:52  -352.229690c -3.14  -2.78
iter:  11 10:44:59  -352.229217c -3.49  -2.90
iter:  12 10:45:07  -352.229240c -3.33  -2.98
iter:  13 10:45:14  -352.229337c -3.85  -3.16
iter:  14 10:45:22  -352.229274c -3.96  -3.26
Writing to output.gpw (mode='')

iter:  15 10:45:29  -352.229317c -3.97  -3.39
iter:  16 10:45:37  -352.229292c -4.05  -3.36
iter:  17 10:45:45  -352.229316c -4.12  -3.41
iter:  18 10:45:52  -352.229315c -4.66  -3.71
iter:  19 10:46:00  -352.229324c -4.34  -3.73
Writing to output.gpw (mode='')

iter:  20 10:46:07  -352.229350c -4.55  -3.89
iter:  21 10:46:15  -352.229334c -4.96  -3.90
iter:  22 10:46:22  -352.229345c -4.82  -3.96
iter:  23 10:46:30  -352.229338c -5.21  -4.01c
iter:  24 10:46:37  -352.229340c -5.14  -4.27c
Writing to output.gpw (mode='')

iter:  25 10:46:45  -352.229340c -5.15  -4.30c
iter:  26 10:46:52  -352.229342c -5.30  -4.31c
iter:  27 10:47:00  -352.229342c -5.53  -4.17c
iter:  28 10:47:08  -352.229342c -5.46  -4.52c
iter:  29 10:47:15  -352.229345c -5.52  -4.63c
Writing to output.gpw (mode='')

iter:  30 10:47:23  -352.229345c -5.91  -4.67c
iter:  31 10:47:30  -352.229344c -5.95  -4.69c
iter:  32 10:47:38  -352.229345c -5.97  -4.75c
iter:  33 10:47:45  -352.229347c -5.89  -4.85c
iter:  34 10:47:53  -352.229346c -6.19  -5.07c
Writing to output.gpw (mode='')

iter:  35 10:48:00  -352.229347c -6.42  -5.21c
iter:  36 10:48:08  -352.229347c -6.35  -5.29c
iter:  37 10:48:16  -352.229347c -6.39  -5.34c
iter:  38 10:48:23  -352.229347c -6.30  -5.35c
iter:  39 10:48:31  -352.229348c -6.69  -5.19c
Writing to output.gpw (mode='')

iter:  40 10:48:38  -352.229348c -6.97  -5.32c
iter:  41 10:48:46  -352.229347c -6.53  -5.31c
iter:  42 10:48:53  -352.229347c -6.81  -5.18c
iter:  43 10:49:01  -352.229347c -7.03  -5.12c
iter:  44 10:49:08  -352.229347c -6.91  -5.12c
Writing to output.gpw (mode='')

iter:  45 10:49:16  -352.229348c -7.17  -5.12c
iter:  46 10:49:27  -352.229348c -6.96  -5.20c
iter:  47 10:49:34  -352.229349c -7.14  -5.13c
iter:  48 10:49:46  -352.229348c -7.37  -5.13c
iter:  49 10:49:55  -352.229348c -7.46c -5.31c

Converged after 49 iterations.

Dipole moment: (-18.400687, -2.356310, -0.004444) |e|*Ang

Energy contributions relative to reference atoms: (reference = -16540.070923)

Kinetic:       +226.768312
Potential:     -207.185158
External:        +0.000000
XC:            -372.585376
Entropy (-ST):   -0.163373
Local:           +0.854560
--------------------------
Free energy:   -352.311035
Extrapolated:  -352.229348

Dipole-layer corrected work functions: 3.414928, 3.423470 eV

Showing only first 2 kpts
 Kpt  Band  Eigenvalues  Occupancy
  0    37     -3.67716    1.98857
  0    38     -3.55625    1.87881
  0    39     -3.33680    0.32278
  0    40     -3.16878    0.01327

  1    37     -3.54465    1.84953
  1    38     -3.39580    0.77015
  1    39     -3.34690    0.38125
  1    40     -3.30939    0.20020


Fermi level: -3.41920

No gap
Writing to output.gpw (mode='')


Forces in eV/Ang:
  0 Li    0.01503   -0.00425   -0.28438
  1 Li    0.00146    0.00239   -0.27169
  2 Li   -0.01525   -0.00095   -0.28670
  3 Li    0.00007    0.01501   -0.27986
  4 Li    0.00050   -0.00491   -0.26474
  5 Li    0.00032    0.01853   -0.27924
  6 Li   -0.00709   -0.01358   -0.26571
  7 Li    0.00036    0.00279   -0.28277
  8 Li    0.00488   -0.01095   -0.26993
  9 Li   -0.00251    0.00199    0.29500
 10 Li    0.01922   -0.00175    0.25685
 11 Li   -0.01420   -0.00246    0.26921
 12 Li    0.00316   -0.00892    0.34019
 13 Li    0.00658    0.00121    0.27086
 14 Li   -0.01579    0.00031    0.26108
 15 Li    0.00092    0.00386    0.25149
 16 Li    0.00013    0.01306    0.25109
 17 Li    0.00125   -0.00512    0.24238
 18 Li    0.05246   -0.03033   -0.11446
 19 Li   -0.00129    0.00435    0.07472
 20 Li   -0.05591   -0.01392   -0.14034
 21 Li    0.02392    0.02072   -0.02040
 22 Li    0.00566    0.00604    0.04886
 23 Li   -0.02653    0.01463   -0.02362
 24 Li   -0.01471    0.02193    0.05178
 25 Li   -0.00435   -0.01850    0.02142
 26 Li    0.01507    0.00752    0.05207
 27 Li   -0.00593   -0.04943    0.19325
 28 Li    0.04664   -0.05045   -0.01987
 29 Li   -0.09280   -0.06490   -0.04282
 30 Li   -0.04781    1.83983   -4.03821
 31 Li    0.09365    0.04054   -0.07024
 32 Li   -0.09091    0.05803   -0.05093
 33 Li    0.01146    0.05488   -0.11379
 34 Li    0.03279    0.00472   -0.06459
 35 Li   -0.02059    0.00194   -0.04513
 36 O     1.26187   -0.85709    6.50523
 37 C     0.03089    0.69953    0.99781
 38 C     0.06844    0.11087    0.26940
 39 C     0.26377    0.49601    2.10336
 40 C     0.11615    0.03584    0.09689
 41 H    -0.10329    0.15259    0.41947
 42 H    -0.04788    0.59765    0.96246
[...]
  0    38     -3.51158    1.39422
  0    39     -3.43923    0.70260
  0    40     -3.25660    0.02769

  1    37     -3.71123    1.98410
  1    38     -3.61516    1.89620
  1    39     -3.40909    0.45725
  1    40     -3.21579    0.01234


Fermi level: -3.46990

No gap

Forces in eV/Ang:
  0 Li   -0.01007    0.00838   -0.29870
  1 Li   -0.00041   -0.01063   -0.29120
  2 Li   -0.00130    0.00057   -0.25702
  3 Li    0.00562    0.00791   -0.29339
  4 Li   -0.01871    0.01418   -0.28495
  5 Li    0.00578   -0.00665   -0.29435
  6 Li    0.01327   -0.01334   -0.28468
  7 Li   -0.01229   -0.00669   -0.29191
  8 Li   -0.01452    0.00800   -0.29570
  9 Li   -0.02946    0.03921    0.26553
 10 Li    0.02564    0.02229    0.24790
 11 Li    0.04483    0.04635    0.29187
 12 Li   -0.02249   -0.04275    0.33253
 13 Li    0.04571   -0.02759    0.25911
 14 Li    0.05972   -0.05795    0.25370
 15 Li   -0.01869    0.02040    0.31182
 16 Li    0.04904    0.01650    0.26684
 17 Li    0.01294   -0.01123    0.27587
 18 Li   -0.00512   -0.01216    0.00915
 19 Li   -0.00188   -0.00855    0.00776
 20 Li   -0.00136    0.00678    0.03768
 21 Li   -0.01180   -0.00841    0.00238
 22 Li   -0.00321    0.01063    0.00568
 23 Li    0.00150   -0.00334   -0.00855
 24 Li   -0.02200   -0.00705    0.01477
 25 Li    0.00781   -0.00817    0.00607
 26 Li    0.02158   -0.01966    0.00333
 27 Li   -0.01603    0.00612   -0.00385
 28 Li    0.00192   -0.01013   -0.00932
 29 Li   -0.01829   -0.00901   -0.01093
 30 Li   -0.03736   -0.01358    0.00321
 31 Li   -0.02041    0.01354   -0.00064
 32 Li    0.02386   -0.00775   -0.02218
 33 Li    0.00501    0.01369   -0.00566
 34 Li    0.00408    0.00498    0.01587
 35 Li   -0.00557    0.00714    0.00728
 36 O    -0.00385    0.03900   -0.04480
 37 C     0.03079   -0.01728    0.00300
 38 C    -0.02736   -0.02517    0.01276
 39 C    -0.01097    0.00823    0.00558
 40 C    -0.00449   -0.00127    0.01015
 41 H     0.02442   -0.01636   -0.02959
 42 H     0.02084    0.02451    0.04511
 43 H    -0.01889   -0.00154    0.03297
 44 H    -0.02505   -0.03066   -0.01618
 45 H    -0.03264    0.02637    0.03118
 46 H    -0.00540   -0.01769   -0.01969
 47 H     0.00296   -0.00159   -0.00053
 48 H    -0.00413   -0.02045    0.01292
 49 H     0.00716    0.00585    0.01046
 50 H     0.01472   -0.00676    0.01484
 51 N     0.01200    0.04888    0.01211
 52 N    -0.01510   -0.01816   -0.03542

System changes: positions 

Initializing position-dependent things.

Density initialized from wave functions
       .-----------------------.  
      /|                       |  
     / |                       |  
    /  |                       |  
   /   |                       |  
  /    |                       |  
 *     |                       |  
 |     |                       |  
 |     |                       |  
 |     |                       |  
 |     |                    H  |  
 |     HH                 H  C |  
 |  C  H                   H   |  
 |   C |H      Li      Li H    |  
 | O   H                       |  
 |   Li|     Li      Li  H     |  
 |     |                       |  
 |  Li |  LiLi    LiLi    Li   |  
 |     |             N  N      |  
 |     |Li      Li      LLi    |  
 |   Li|     Li      Li        |  
 |    Li  Li  Li  Li  Li  Li   |  
 | Li  |   Li      Li          |  
 |     |Li      Li      Li     |  
 Li    | Li      Li            |  
 |    Li      Li      Li       |  
 |     |                       |  
 |     |                       |  
 |     |                       |  
 |     |                       |  
 |     |                       |  
 |     |                       |  
 |     .-----------------------.  
 |    /                       /   
 |   /                       /    
 |  /                       /     
 | /                       /      
 |/                       /       
 *-----------------------*        

Positions:
   0 Li     1.617037    1.617037   10.000000    ( 0.0000,  0.0000,  0.0000)
   1 Li     4.851111    1.617037   10.000000    ( 0.0000,  0.0000,  0.0000)
   2 Li     8.085185    1.617037   10.000000    ( 0.0000,  0.0000,  0.0000)
   3 Li     1.617037    4.851111   10.000000    ( 0.0000,  0.0000,  0.0000)
   4 Li     4.851111    4.851111   10.000000    ( 0.0000,  0.0000,  0.0000)
   5 Li     8.085185    4.851111   10.000000    ( 0.0000,  0.0000,  0.0000)
   6 Li     1.617037    8.085185   10.000000    ( 0.0000,  0.0000,  0.0000)
   7 Li     4.851111    8.085185   10.000000    ( 0.0000,  0.0000,  0.0000)
   8 Li     8.085185    8.085185   10.000000    ( 0.0000,  0.0000,  0.0000)
   9 Li     0.000000    0.000000   11.617037    ( 0.0000,  0.0000,  0.0000)
  10 Li     3.234074    0.000000   11.617037    ( 0.0000,  0.0000,  0.0000)
  11 Li     6.468148    0.000000   11.617037    ( 0.0000,  0.0000,  0.0000)
  12 Li     0.000000    3.234074   11.617037    ( 0.0000,  0.0000,  0.0000)
  13 Li     3.234074    3.234074   11.617037    ( 0.0000,  0.0000,  0.0000)
  14 Li     6.468148    3.234074   11.617037    ( 0.0000,  0.0000,  0.0000)
  15 Li     0.000000    6.468148   11.617037    ( 0.0000,  0.0000,  0.0000)
  16 Li     3.234074    6.468148   11.617037    ( 0.0000,  0.0000,  0.0000)
  17 Li     6.468148    6.468148   11.617037    ( 0.0000,  0.0000,  0.0000)
  18 Li     1.669105    1.656817   13.468819    ( 0.0000,  0.0000,  0.0000)
  19 Li     4.910935    1.562204   13.495958    ( 0.0000,  0.0000,  0.0000)
  20 Li     8.112665    1.601804   13.592597    ( 0.0000,  0.0000,  0.0000)
  21 Li     1.697550    4.894568   13.440707    ( 0.0000,  0.0000,  0.0000)
  22 Li     4.943081    4.764214   13.462919    ( 0.0000,  0.0000,  0.0000)
  23 Li     8.128052    4.828454   13.492272    ( 0.0000,  0.0000,  0.0000)
  24 Li     1.593328    8.171739   13.463670    ( 0.0000,  0.0000,  0.0000)
  25 Li     4.834489    8.074147   13.478258    ( 0.0000,  0.0000,  0.0000)
  26 Li     8.018372    8.117985   13.484365    ( 0.0000,  0.0000,  0.0000)
  27 Li    -0.147679    0.226270   15.520447    ( 0.0000,  0.0000,  0.0000)
  28 Li     3.145472   -0.037402   15.446080    ( 0.0000,  0.0000,  0.0000)
  29 Li     6.423068   -0.124350   15.538782    ( 0.0000,  0.0000,  0.0000)
  30 Li     0.216536    3.332302   15.364067    ( 0.0000,  0.0000,  0.0000)
  31 Li     3.491467    3.270203   15.404467    ( 0.0000,  0.0000,  0.0000)
  32 Li     6.794324    2.954803   15.622050    ( 0.0000,  0.0000,  0.0000)
  33 Li     0.045769    6.616000   15.338839    ( 0.0000,  0.0000,  0.0000)
  34 Li     3.244987    6.466363   15.352680    ( 0.0000,  0.0000,  0.0000)
  35 Li     6.398513    6.293942   15.397555    ( 0.0000,  0.0000,  0.0000)
  36 O      0.200140    1.676459   19.207709    ( 0.0000,  0.0000,  0.0000)
  37 C      0.064926    4.142170   18.988402    ( 0.0000,  0.0000,  0.0000)
  38 C      0.864674    5.437999   18.792637    ( 0.0000,  0.0000,  0.0000)
  39 C      0.947561    2.893366   19.056042    ( 0.0000,  0.0000,  0.0000)
  40 C     -0.026311    6.680953   18.715505    ( 0.0000,  0.0000,  0.0000)
  41 H     -0.537617    4.205623   19.902017    ( 0.0000,  0.0000,  0.0000)
  42 H     -0.643147    4.030324   18.153011    ( 0.0000,  0.0000,  0.0000)
  43 H      1.458357    5.355912   17.870869    ( 0.0000,  0.0000,  0.0000)
  44 H      1.586901    5.559881   19.608645    ( 0.0000,  0.0000,  0.0000)
  45 H      1.588414    2.833865   18.160301    ( 0.0000,  0.0000,  0.0000)
  46 H      1.606678    2.938136   19.927737    ( 0.0000,  0.0000,  0.0000)
  47 H     -0.760009    6.592784   17.904551    ( 0.0000,  0.0000,  0.0000)
  48 H     -0.591650    6.826315   19.639727    ( 0.0000,  0.0000,  0.0000)
  49 H      0.559325    7.587208   18.538780    ( 0.0000,  0.0000,  0.0000)
  50 H     -0.429306    1.628616   18.475478    ( 0.0000,  0.0000,  0.0000)
  51 N     -1.962492    1.149529   15.643759    ( 0.0000,  0.0000,  0.0000)
  52 N     -1.069999    2.042123   15.615618    ( 0.0000,  0.0000,  0.0000)

Unit cell:
           periodic     x           y           z      points  spacing
  1. axis:    yes    9.702222    0.000000    0.000000    60     0.1617
  2. axis:    yes    0.000000    9.702222    0.000000    60     0.1617
  3. axis:    no     0.000000    0.000000   26.351111   164     0.1607

  Lengths:   9.702222   9.702222  26.351111
  Angles:   90.000000  90.000000  90.000000

Effective grid spacing dv^(1/3) = 0.1614

     iter     time        total  log10-change:
                         energy  eigst   dens
iter:   1 18:57:33  -360.882610  -2.58
iter:   2 18:57:40  -360.880937  -3.06  -2.40
iter:   3 18:57:48  -360.879861c -4.03  -2.65
iter:   4 18:57:55  -360.879643c -4.24  -3.05
Writing to output.gpw (mode='')

iter:   5 18:58:03  -360.879531c -3.88  -3.26
iter:   6 18:58:10  -360.879515c -4.11  -3.45
iter:   7 18:58:18  -360.879489c -3.83  -3.63
iter:   8 18:58:25  -360.879524c -4.71  -3.55
iter:   9 18:58:33  -360.879547c -4.74  -3.87
Writing to output.gpw (mode='')

iter:  10 18:58:40  -360.879523c -5.27  -3.83
iter:  11 18:58:48  -360.879521c -5.37  -4.09c
iter:  12 18:58:55  -360.879529c -5.87  -4.11c
iter:  13 18:59:03  -360.879528c -6.00  -4.19c
iter:  14 18:59:10  -360.879518c -6.08  -4.24c
Writing to output.gpw (mode='')

iter:  15 18:59:18  -360.879521c -6.50  -4.40c
iter:  16 18:59:25  -360.879522c -6.53  -4.55c
iter:  17 18:59:33  -360.879522c -6.83  -4.74c
iter:  18 18:59:45  -360.879521c -7.03  -4.79c
iter:  19 18:59:54  -360.879522c -7.31  -4.83c
Writing to output.gpw (mode='')

iter:  20 19:00:02  -360.879522c -7.38  -4.93c
iter:  21 19:00:09  -360.879522c -7.69c -5.06c

Converged after 21 iterations.

Dipole moment: (-22.056496, -2.174681, -0.053495) |e|*Ang

Energy contributions relative to reference atoms: (reference = -16540.070923)

Kinetic:       +182.050566
Potential:     -176.582259
External:        +0.000000
XC:            -367.132726
Entropy (-ST):   -0.162482
Local:           +0.866138
--------------------------
Free energy:   -360.960763
Extrapolated:  -360.879522

Dipole-layer corrected work functions: 3.417619, 3.520455 eV

Showing only first 2 kpts
 Kpt  Band  Eigenvalues  Occupancy
  0    37     -3.71265    1.98480
  0    38     -3.51059    1.39318
  0    39     -3.43837    0.70258
  0    40     -3.25581    0.02773

  1    37     -3.71025    1.98406
  1    38     -3.61444    1.89649
  1    39     -3.40854    0.45944
  1    40     -3.21517    0.01239


Fermi level: -3.46904

No gap
Writing to output.gpw (mode='')


Forces in eV/Ang:
  0 Li   -0.01005    0.00837   -0.29881
  1 Li   -0.00032   -0.01057   -0.29105
  2 Li   -0.00121    0.00055   -0.25728
  3 Li    0.00561    0.00790   -0.29328
  4 Li   -0.01860    0.01422   -0.28515
  5 Li    0.00581   -0.00665   -0.29437
  6 Li    0.01327   -0.01336   -0.28470
  7 Li   -0.01224   -0.00671   -0.29190
  8 Li   -0.01442    0.00794   -0.29568
  9 Li   -0.02993    0.03963    0.26658
 10 Li    0.02456    0.02217    0.24841
 11 Li    0.04526    0.04623    0.29293
 12 Li   -0.02297   -0.04244    0.33304
 13 Li    0.04492   -0.02705    0.25945
 14 Li    0.06022   -0.05777    0.25456
 15 Li   -0.01879    0.02031    0.31092
 16 Li    0.04826    0.01585    0.26694
 17 Li    0.01318   -0.01156    0.27627
 18 Li   -0.00480   -0.01283    0.00857
 19 Li   -0.00087   -0.00794    0.00808
 20 Li   -0.00182    0.00627    0.02860
 21 Li   -0.01155   -0.00930    0.00180
 22 Li   -0.00310    0.01089    0.00602
 23 Li    0.00078   -0.00362   -0.00950
 24 Li   -0.02185   -0.00641    0.01477
 25 Li    0.00824   -0.00792    0.00619
 26 Li    0.02162   -0.01893    0.00308
 27 Li   -0.01962    0.00591   -0.00299
 28 Li    0.00294   -0.00999   -0.00913
 29 Li   -0.02545   -0.01371   -0.01221
 30 Li   -0.03566   -0.01256    0.00347
 31 Li   -0.02076    0.01342   -0.00078
 32 Li    0.02095   -0.00353   -0.02221
 33 Li    0.00453    0.01305   -0.00651
 34 Li    0.00360    0.00498    0.01609
 35 Li   -0.00466    0.00750    0.00738
 36 O     0.00687    0.00893   -0.01742
 37 C     0.02281    0.00233    0.00420
 38 C    -0.01890   -0.01601    0.00940
 39 C    -0.01621    0.01777    0.00536
 40 C    -0.00286   -0.00580    0.01561
 41 H     0.02009   -0.01725   -0.01863
 42 H     0.02058    0.01370    0.03848
 43 H    -0.01736   -0.00222    0.02536
 44 H    -0.01921   -0.02495   -0.00467
 45 H    -0.02606    0.01873    0.02604
 46 H    -0.01611   -0.01535   -0.03152
 47 H     0.00442    0.00072    0.00357
 48 H    -0.00244   -0.01600    0.00428
 49 H    -0.00047   -0.00377    0.01315
 50 H     0.00545    0.00520   -0.00695
 51 N     0.02787    0.01186    0.03040
 52 N    -0.00920   -0.00973   -0.03595

Timing:                                      incl.     excl.
-------------------------------------------------------------------
Density initialized from wave functions:     9.617     9.614   0.0% |
 Symmetrize density:                         0.003     0.003   0.0% |
Forces:                                     50.635    50.635   0.2% |
Hamiltonian:                               675.772     0.016   0.0% |
 Atomic:                                     0.027     0.026   0.0% |
  XC Correction:                             0.000     0.000   0.0% |
 Calculate atomic Hamiltonians:              0.047     0.047   0.0% |
 Communicate:                                8.237     8.237   0.0% |
 Hartree integrate/restrict:                 2.243     2.243   0.0% |
 Initialize Hamiltonian:                     0.000     0.000   0.0% |
 Poisson:                                   31.941    11.792   0.0% |
  Communicate from 1D:                       3.268     3.268   0.0% |
  Communicate from 2D:                       3.082     3.082   0.0% |
  Communicate to 1D:                         2.008     2.008   0.0% |
  Communicate to 2D:                         3.592     3.592   0.0% |
  FFT 1D:                                    4.097     4.097   0.0% |
  FFT 2D:                                    4.101     4.101   0.0% |
 XC 3D grid:                               632.763    96.238   0.3% |
  VdW-DF integral:                         536.525     4.385   0.0% |
   Convolution:                             48.111    48.111   0.1% |
   FFT:                                     20.632    20.632   0.1% |
   gather:                                 191.250   191.250   0.6% |
   hmm1:                                    16.891    16.891   0.1% |
   hmm2:                                    22.294    22.294   0.1% |
   iFFT:                                    21.443    21.443   0.1% |
   potential:                              207.873     5.816   0.0% |
    collect:                                31.845    31.845   0.1% |
    p1:                                     92.411    92.411   0.3% |
    p2:                                     34.508    34.508   0.1% |
    sum:                                    43.292    43.292   0.1% |
   splines:                                  3.646     3.646   0.0% |
 vbar:                                       0.497     0.497   0.0% |
LCAO initialization:                         1.252     0.185   0.0% |
 LCAO eigensolver:                           0.264     0.000   0.0% |
  Calculate projections:                     0.000     0.000   0.0% |
  DenseAtomicCorrection:                     0.000     0.000   0.0% |
  Distribute overlap matrix:                 0.235     0.235   0.0% |
  Orbital Layouts:                           0.027     0.027   0.0% |
  Potential matrix:                          0.001     0.001   0.0% |
  Sum over cells:                            0.001     0.001   0.0% |
 LCAO to grid:                               0.669     0.669   0.0% |
 Set positions (LCAO WFS):                   0.134     0.083   0.0% |
  Basic WFS set positions:                   0.001     0.001   0.0% |
  Basis functions set positions:             0.000     0.000   0.0% |
  P tci:                                     0.000     0.000   0.0% |
  ST tci:                                    0.014     0.014   0.0% |
  mktci:                                     0.035     0.035   0.0% |
Redistribute:                                0.069     0.069   0.0% |
SCF-cycle:                               31320.982   435.010   1.4% ||
 Davidson:                                8908.833  2643.500   8.2% |--|
  Apply hamiltonian:                       558.039   558.039   1.7% ||
  Subspace diag:                          1662.637     0.499   0.0% |
   calc_h_matrix:                          826.590   262.115   0.8% |
    Apply hamiltonian:                     564.475   564.475   1.8% ||
   diagonalize:                             96.426    96.426   0.3% |
   rotate_psi:                             739.122   739.122   2.3% ||
  calc. matrices:                         2860.170  1538.430   4.8% |-|
   Apply hamiltonian:                     1321.739  1321.739   4.1% |-|
  diagonalize:                              28.411    28.411   0.1% |
  rotate_psi:                             1156.075  1156.075   3.6% ||
 Density:                                  150.259     0.102   0.0% |
  Atomic density matrices:                  17.666    17.666   0.1% |
  Mix:                                      61.361    61.361   0.2% |
  Multipole moments:                         6.769     6.769   0.0% |
  Pseudo density:                           64.360    64.274   0.2% |
   Symmetrize density:                       0.086     0.086   0.0% |
 Hamiltonian:                            21802.495     0.528   0.0% |
  Atomic:                                    0.991     0.981   0.0% |
   XC Correction:                            0.010     0.010   0.0% |
  Calculate atomic Hamiltonians:             1.583     1.583   0.0% |
  Communicate:                             295.490   295.490   0.9% |
  Hartree integrate/restrict:               74.023    74.023   0.2% |
  Poisson:                                1046.635   386.477   1.2% |
   Communicate from 1D:                    104.032   104.032   0.3% |
   Communicate from 2D:                    105.857   105.857   0.3% |
   Communicate to 1D:                       56.956    56.956   0.2% |
   Communicate to 2D:                      121.507   121.507   0.4% |
   FFT 1D:                                 137.712   137.712   0.4% |
   FFT 2D:                                 134.095   134.095   0.4% |
  XC 3D grid:                            20366.205  3134.447   9.7% |---|
   VdW-DF integral:                      17231.758   144.049   0.4% |
    Convolution:                          1575.129  1575.129   4.9% |-|
    FFT:                                   678.655   678.655   2.1% ||
    gather:                               6074.811  6074.811  18.9% |-------|
    hmm1:                                  554.443   554.443   1.7% ||
    hmm2:                                  733.939   733.939   2.3% ||
    iFFT:                                  703.098   703.098   2.2% ||
    potential:                            6767.595   190.991   0.6% |
     collect:                             1067.361  1067.361   3.3% ||
     p1:                                  3028.935  3028.935   9.4% |---|
     p2:                                  1132.530  1132.530   3.5% ||
     sum:                                 1347.779  1347.779   4.2% |-|
    splines:                                 0.039     0.039   0.0% |
  vbar:                                     17.041    17.041   0.1% |
 Orthonormalize:                            24.386     0.017   0.0% |
  calc_s_matrix:                             3.590     3.590   0.0% |
  inverse-cholesky:                          7.393     7.393   0.0% |
  projections:                               0.003     0.003   0.0% |
  rotate_psi_s:                             13.383    13.383   0.0% |
Set symmetry:                                0.008     0.008   0.0% |
Other:                                     148.299   148.299   0.5% |
-------------------------------------------------------------------
Total:                                             32206.634 100.0%

Memory usage: 1.13 GiB
Date: Fri Mar 10 19:00:11 2023
