
  ___ ___ ___ _ _ _  
 |   |   |_  | | | | 
 | | | | | . | | | | 
 |__ |  _|___|_____|  22.8.0
 |___|_|             

User:   vazumah@r073.ib.bridges2.psc.edu
Date:   Wed Mar  8 21:29:27 2023
Arch:   x86_64
Pid:    81092
CWD:    /jet/home/vazumah/Calcs/N2_with_proton_donor/CH3CH2OH_y/bridge/8.085_1.617/N2_x
Python: 3.11.0
gpaw:   /jet/home/vazumah/.conda/envs/GPAW_mpich/lib/python3.11/site-packages/gpaw
_gpaw:  /jet/home/vazumah/.conda/envs/GPAW_mpich/lib/python3.11/site-packages/
        _gpaw.cpython-311-x86_64-linux-gnu.so
ase:    /jet/home/vazumah/.conda/envs/GPAW_mpich/lib/python3.11/site-packages/ase (version 3.22.1)
numpy:  /jet/home/vazumah/.conda/envs/GPAW_mpich/lib/python3.11/site-packages/numpy (version 1.24.2)
scipy:  /jet/home/vazumah/.conda/envs/GPAW_mpich/lib/python3.11/site-packages/scipy (version 1.10.1)
libxc:  5.2.3
units:  Angstrom and eV
cores: 128
OpenMP: True
OMP_NUM_THREADS: 1

Input parameters:
  h: 0.16
  kpts: {size: [4, 4, 1]}
  occupations: {name: fermi-dirac,
                width: 0.05}
  poissonsolver: {dipolelayer: xy}
  xc: BEEF-vdW

System changes: positions, numbers, cell, pbc, initial_charges, initial_magmoms 

Initialize ...

species:
  Li:
    name: Lithium
    id: 830b4218f175192f93f959cfc0aad614
    Z: 3.0
    valence: 1
    core: 2
    charge: 0.0
    file: /jet/home/vazumah/datasets/gpaw-setups-0.9.20000/Li.PBE.gz
    compensation charges: {type: gauss,
                           rc: 0.33,
                           lmax: 2}
    cutoffs: {filter: 1.91,
              core: 2.55}
    valence states:
      #              energy  rcut
      - 2s(1.00)    -2.874   1.058
      - 2p(0.00)    -1.090   1.058
      -  s          24.337   1.058
  
    # Using partial waves for Li as LCAO basis

  O:
    name: Oxygen
    id: 32ecd46bf208036f09c70b0ec9a88b78
    Z: 8.0
    valence: 6
    core: 2
    charge: 0.0
    file: /jet/home/vazumah/datasets/gpaw-setups-0.9.20000/O.PBE.gz
    compensation charges: {type: gauss,
                           rc: 0.21,
                           lmax: 2}
    cutoffs: {filter: 1.17,
              core: 0.83}
    valence states:
      #              energy  rcut
      - 2s(2.00)   -23.961   0.688
      - 2p(4.00)    -9.029   0.598
      -  s           3.251   0.688
      -  p          18.182   0.598
      -  d           0.000   0.619
  
    # Using partial waves for O as LCAO basis

  C:
    name: Carbon
    id: 4aa54d4b901d75f77cc0ea3eec22967b
    Z: 6.0
    valence: 4
    core: 2
    charge: 0.0
    file: /jet/home/vazumah/datasets/gpaw-setups-0.9.20000/C.PBE.gz
    compensation charges: {type: gauss,
                           rc: 0.20,
                           lmax: 2}
    cutoffs: {filter: 1.14,
              core: 1.14}
    valence states:
      #              energy  rcut
      - 2s(2.00)   -13.751   0.635
      - 2p(2.00)    -5.284   0.635
      -  s          13.461   0.635
      -  p          21.927   0.635
      -  d           0.000   0.635
  
    # Using partial waves for C as LCAO basis

  H:
    name: Hydrogen
    id: d65de229564ff8ea4db303e23b6d1ecf
    Z: 1.0
    valence: 1
    core: 0
    charge: 0.0
    file: /jet/home/vazumah/datasets/gpaw-setups-0.9.20000/H.PBE.gz
    compensation charges: {type: gauss,
                           rc: 0.15,
                           lmax: 2}
    cutoffs: {filter: 0.85,
              core: 0.53}
    valence states:
      #              energy  rcut
      - 1s(1.00)    -6.494   0.476
      -  s          20.717   0.476
      -  p           0.000   0.476
  
    # Using partial waves for H as LCAO basis

  N:
    name: Nitrogen
    id: f7500608b86eaa90eef8b1d9a670dc53
    Z: 7.0
    valence: 5
    core: 2
    charge: 0.0
    file: /jet/home/vazumah/datasets/gpaw-setups-0.9.20000/N.PBE.gz
    compensation charges: {type: gauss,
                           rc: 0.18,
                           lmax: 2}
    cutoffs: {filter: 1.11,
              core: 0.96}
    valence states:
      #              energy  rcut
      - 2s(2.00)   -18.583   0.603
      - 2p(3.00)    -7.089   0.529
      -  s           8.629   0.603
      -  p          20.123   0.529
      -  d           0.000   0.577
  
    # Using partial waves for N as LCAO basis

Reference energy: -14434.854043  # eV

Spin-paired calculation

Convergence criteria:
 Maximum [total energy] change in last 3 cyles: 0.0005 eV / electron
 Maximum integral of absolute [dens]ity change: 0.0001 electrons / valence electron
 Maximum integral of absolute [eigenst]ate change: 4e-08 eV^2 / valence electron
 Maximum number of scf [iter]ations: 333
 (Square brackets indicate name in SCF output, whereas a 'c' in
 the SCF output indicates the quantity has converged.)

Symmetries present (total): 1

  ( 1  0  0)
  ( 0  1  0)
  ( 0  0  1)

16 k-points: 4 x 4 x 1 Monkhorst-Pack grid
8 k-points in the irreducible part of the Brillouin zone
       k-points in crystal coordinates                weights
   0:     0.12500000   -0.37500000    0.00000000          2/16
   1:     0.12500000   -0.12500000    0.00000000          2/16
   2:     0.12500000    0.12500000    0.00000000          2/16
   3:     0.12500000    0.37500000    0.00000000          2/16
   4:     0.37500000   -0.37500000    0.00000000          2/16
   5:     0.37500000   -0.12500000    0.00000000          2/16
   6:     0.37500000    0.12500000    0.00000000          2/16
   7:     0.37500000    0.37500000    0.00000000          2/16

Wave functions: Uniform real-space grid
  Kinetic energy operator: 6*3+1=19 point O(h^6) finite-difference Laplacian
  ScaLapack parameters: grid=1x1, blocksize=None
  Wavefunction extrapolation:
    Improved wavefunction reuse through dual PAW basis 

Occupation numbers: Fermi-Dirac:
  width: 0.0500  # eV
 

Eigensolver
   Davidson(niter=2) 

Densities:
  Coarse grid: 60*60*164 grid
  Fine grid: 120*120*328 grid
  Total Charge: 0.000000 

Density mixing:
  Method: separate
  Backend: pulay
  Linear mixing parameter: 0.05
  old densities: 5
  Damping of long wavelength oscillations: 50 

Hamiltonian:
  XC and Coulomb potentials evaluated on a 120*120*328 grid
  Using the BEEF-vdW Exchange-Correlation functional
  Interpolation: tri-quintic (5. degree polynomial)
  Poisson solver: FastPoissonSolver using
    Stencil: 6*3+1=19 point O(h^6) finite-difference Laplacian
    FFT axes: [0, 1]
    FST axes: [2]

Dipole correction along z-axis 

XC parameters: BEEF-vdW with 2 nearest neighbor stencil

Memory estimate:
  Process memory now: 128.21 MiB
  Calculator: 80.22 MiB
    Density: 22.47 MiB
      Arrays: 7.22 MiB
      Localized functions: 12.50 MiB
      Mixer: 2.75 MiB
    Hamiltonian: 5.71 MiB
      Arrays: 4.72 MiB
      XC: 0.00 MiB
      Poisson: 0.00 MiB
      vbar: 0.99 MiB
    Wavefunctions: 52.04 MiB
      Arrays psit_nG: 24.17 MiB
      Eigensolver: 27.21 MiB
      Projections: 0.01 MiB
      Projectors: 0.65 MiB

Total number of cores used: 128
Parallelization over k-points: 8
Domain decomposition: 2 x 2 x 4

Number of atoms: 47
Number of atomic orbitals: 170
Number of bands in calculation: 44
Number of valence electrons: 66
Bands to converge: occupied

... initialized

Initializing position-dependent things.

Density initialized from atomic densities
Creating initial wave functions:
  44 bands from LCAO basis set

       .-----------------------.  
      /|                       |  
     / |                       |  
    /  |                       |  
   /   |                       |  
  /    |                       |  
 *     |                       |  
 |     |                       |  
 |     |                       |  
 |     |                       |  
 |     |                       |  
 |     |                       |  
 |     |              H        |  
 |     |                C H    |  
 |     |             HH  C     |  
 |   Li|     Li      LO   H    |  
 |     |           N  N        |  
 | Li  |  LLi     LLi     Li   |  
 |     |                       |  
 Li    |LLi     LLi     Li     |  
 |   Li|     Li      Li        |  
 |    Li  Li  Li  Li  Li  Li   |  
 | Li  |   Li      Li          |  
 |     |Li      Li      Li     |  
 Li    | Li      Li            |  
 |    Li      Li      Li       |  
 |     |                       |  
 |     |                       |  
 |     |                       |  
 |     |                       |  
 |     |                       |  
 |     |                       |  
 |     .-----------------------.  
 |    /                       /   
 |   /                       /    
 |  /                       /     
 | /                       /      
 |/                       /       
 *-----------------------*        

Positions:
   0 Li     1.617037    1.617037   10.000000    ( 0.0000,  0.0000,  0.0000)
   1 Li     4.851111    1.617037   10.000000    ( 0.0000,  0.0000,  0.0000)
   2 Li     8.085185    1.617037   10.000000    ( 0.0000,  0.0000,  0.0000)
   3 Li     1.617037    4.851111   10.000000    ( 0.0000,  0.0000,  0.0000)
   4 Li     4.851111    4.851111   10.000000    ( 0.0000,  0.0000,  0.0000)
   5 Li     8.085185    4.851111   10.000000    ( 0.0000,  0.0000,  0.0000)
   6 Li     1.617037    8.085185   10.000000    ( 0.0000,  0.0000,  0.0000)
   7 Li     4.851111    8.085185   10.000000    ( 0.0000,  0.0000,  0.0000)
   8 Li     8.085185    8.085185   10.000000    ( 0.0000,  0.0000,  0.0000)
   9 Li     0.000000    0.000000   11.617037    ( 0.0000,  0.0000,  0.0000)
  10 Li     3.234074    0.000000   11.617037    ( 0.0000,  0.0000,  0.0000)
  11 Li     6.468148    0.000000   11.617037    ( 0.0000,  0.0000,  0.0000)
  12 Li     0.000000    3.234074   11.617037    ( 0.0000,  0.0000,  0.0000)
  13 Li     3.234074    3.234074   11.617037    ( 0.0000,  0.0000,  0.0000)
  14 Li     6.468148    3.234074   11.617037    ( 0.0000,  0.0000,  0.0000)
  15 Li     0.000000    6.468148   11.617037    ( 0.0000,  0.0000,  0.0000)
  16 Li     3.234074    6.468148   11.617037    ( 0.0000,  0.0000,  0.0000)
  17 Li     6.468148    6.468148   11.617037    ( 0.0000,  0.0000,  0.0000)
  18 Li     1.617038    1.617038   13.469728    ( 0.0000,  0.0000,  0.0000)
  19 Li     4.851111    1.617038   13.469729    ( 0.0000,  0.0000,  0.0000)
  20 Li     8.085184    1.617038   13.469728    ( 0.0000,  0.0000,  0.0000)
  21 Li     1.617038    4.851111   13.469729    ( 0.0000,  0.0000,  0.0000)
  22 Li     4.851111    4.851111   13.469730    ( 0.0000,  0.0000,  0.0000)
  23 Li     8.085184    4.851111   13.469729    ( 0.0000,  0.0000,  0.0000)
  24 Li     1.617038    8.085184   13.469728    ( 0.0000,  0.0000,  0.0000)
  25 Li     4.851111    8.085184   13.469729    ( 0.0000,  0.0000,  0.0000)
  26 Li     8.085184    8.085184   13.469728    ( 0.0000,  0.0000,  0.0000)
  27 Li    -0.000000   -0.000000   15.445939    ( 0.0000,  0.0000,  0.0000)
  28 Li     3.234074    0.000000   15.445939    ( 0.0000,  0.0000,  0.0000)
  29 Li     6.468148    0.000000   15.445939    ( 0.0000,  0.0000,  0.0000)
  30 Li     0.000000    3.234074   15.445939    ( 0.0000,  0.0000,  0.0000)
  31 Li     3.234076    3.234076   15.445938    ( 0.0000,  0.0000,  0.0000)
  32 Li     6.468146    3.234076   15.445938    ( 0.0000,  0.0000,  0.0000)
  33 Li     0.000000    6.468148   15.445939    ( 0.0000,  0.0000,  0.0000)
  34 Li     3.234076    6.468146   15.445938    ( 0.0000,  0.0000,  0.0000)
  35 Li     6.468146    6.468146   15.445938    ( 0.0000,  0.0000,  0.0000)
  36 O      8.085185    1.617037   18.445939    ( 0.0000,  0.0000,  0.0000)
  37 C      8.901943    2.799444   18.450238    ( 0.0000,  0.0000,  0.0000)
  38 C      8.082324    4.083659   18.435704    ( 0.0000,  0.0000,  0.0000)
  39 H      9.585478    2.790821   19.310398    ( 0.0000,  0.0000,  0.0000)
  40 H      9.511668    2.724056   17.547442    ( 0.0000,  0.0000,  0.0000)
  41 H      8.736271    4.960586   18.420269    ( 0.0000,  0.0000,  0.0000)
  42 H      7.433301    4.118370   17.558886    ( 0.0000,  0.0000,  0.0000)
  43 H      7.453837    4.153847   19.328265    ( 0.0000,  0.0000,  0.0000)
  44 H      7.502208    1.656204   19.214164    ( 0.0000,  0.0000,  0.0000)
  45 N      8.085000    1.617000   16.945939    ( 0.0000,  0.0000,  0.0000)
  46 N      6.988378    1.617000   16.945939    ( 0.0000,  0.0000,  0.0000)

Unit cell:
           periodic     x           y           z      points  spacing
  1. axis:    yes    9.702222    0.000000    0.000000    60     0.1617
  2. axis:    yes    0.000000    9.702222    0.000000    60     0.1617
  3. axis:    no     0.000000    0.000000   26.351111   164     0.1607

  Lengths:   9.702222   9.702222  26.351111
  Angles:   90.000000  90.000000  90.000000

Effective grid spacing dv^(1/3) = 0.1614

     iter     time        total  log10-change:
                         energy  eigst   dens
iter:   1 21:29:41  -517.765642
iter:   2 21:29:48  -123.835782  +2.55  -0.02
iter:   3 21:29:55  -136.578484  +3.16  -0.22
iter:   4 21:30:02  -234.645518  +3.00  -0.33
Writing to output.gpw (mode='')

iter:   5 21:30:09  -270.388196  +2.73  -0.40
iter:   6 21:30:16  -305.869822  +2.42  -0.64
iter:   7 21:30:23  -311.793747  +1.95  -0.65
iter:   8 21:30:31  -312.478173  +1.51  -0.66
iter:   9 21:30:38  -313.309598  +1.22  -0.70
Writing to output.gpw (mode='')

iter:  10 21:30:45  -312.482955  +1.01  -0.71
iter:  11 21:30:52  -374.284672  +2.30  -0.72
iter:  12 21:30:59  -322.739452  +1.33  -0.46
iter:  13 21:31:06  -304.073351  +1.06  -0.71
iter:  14 21:31:13  -305.870182  +0.98  -0.86
Writing to output.gpw (mode='')

iter:  15 21:31:21  -304.899984  +0.57  -0.81
iter:  16 21:31:28  -304.915372  +0.70  -0.88
iter:  17 21:31:35  -304.403011  +0.35  -0.87
iter:  18 21:31:42  -302.562031  +0.33  -0.89
iter:  19 21:31:49  -302.322822  +0.53  -1.09
Writing to output.gpw (mode='')

iter:  20 21:31:56  -302.590370  -0.09  -1.16
iter:  21 21:32:03  -302.130917  -0.21  -1.17
iter:  22 21:32:11  -302.108654  -0.39  -1.36
iter:  23 21:32:18  -301.979592  -0.02  -1.43
iter:  24 21:32:26  -301.892286  -0.42  -1.43
Writing to output.gpw (mode='')

iter:  25 21:32:41  -301.871784  -0.79  -1.57
iter:  26 21:32:54  -301.858852  -0.96  -1.60
iter:  27 21:33:03  -301.828658  -1.17  -1.65
iter:  28 21:33:15  -301.811678  -1.03  -1.79
iter:  29 21:33:23  -301.815242c -1.54  -2.15
Writing to output.gpw (mode='')

iter:  30 21:33:31  -301.817673c -1.72  -2.21
iter:  31 21:33:38  -301.819840c -1.69  -2.25
iter:  32 21:33:45  -301.821911c -1.82  -2.27
iter:  33 21:33:52  -301.822333c -2.13  -2.48
iter:  34 21:33:59  -301.822875c -2.11  -2.55
Writing to output.gpw (mode='')

iter:  35 21:34:06  -301.823709c -2.01  -2.59
iter:  36 21:34:13  -301.824868c -2.12  -2.67
iter:  37 21:34:21  -301.826012c -2.38  -2.66
iter:  38 21:34:28  -301.826643c -2.31  -2.80
iter:  39 21:34:35  -301.827060c -2.52  -3.07
Writing to output.gpw (mode='')

iter:  40 21:34:42  -301.827420c -2.59  -3.07
iter:  41 21:34:49  -301.827842c -2.61  -3.15
iter:  42 21:34:56  -301.827972c -2.64  -3.15
iter:  43 21:35:03  -301.828368c -2.80  -2.94
iter:  44 21:35:11  -301.828610c -2.91  -3.03
Writing to output.gpw (mode='')

iter:  45 21:35:18  -301.828716c -2.69  -3.04
iter:  46 21:35:25  -301.828925c -2.88  -2.92
iter:  47 21:35:32  -301.829202c -2.93  -3.00
iter:  48 21:35:39  -301.829313c -3.07  -3.08
iter:  49 21:35:46  -301.829676c -3.00  -3.06
Writing to output.gpw (mode='')

iter:  50 21:35:53  -301.829673c -2.96  -3.04
iter:  51 21:36:01  -301.829608c -3.25  -2.92
iter:  52 21:36:08  -301.829659c -3.29  -2.93
iter:  53 21:36:15  -301.829853c -3.35  -2.91
iter:  54 21:36:22  -301.830182c -3.06  -3.00
Writing to output.gpw (mode='')

iter:  55 21:36:29  -301.829977c -3.26  -3.03
iter:  56 21:36:36  -301.830072c -3.21  -2.87
iter:  57 21:36:43  -301.830599c -3.30  -2.97
iter:  58 21:36:51  -301.830659c -3.70  -3.07
iter:  59 21:36:58  -301.830742c -3.69  -3.06
Writing to output.gpw (mode='')

iter:  60 21:37:05  -301.830823c -3.63  -3.09
iter:  61 21:37:15  -301.830790c -3.98  -3.47
iter:  62 21:37:22  -301.830759c -4.01  -3.59
iter:  63 21:37:29  -301.830837c -4.04  -3.64
iter:  64 21:37:36  -301.830803c -3.97  -3.72
Writing to output.gpw (mode='')

iter:  65 21:37:43  -301.830818c -4.18  -3.89
iter:  66 21:37:50  -301.830826c -4.14  -3.94
iter:  67 21:37:58  -301.830842c -4.11  -3.99
iter:  68 21:38:05  -301.830850c -4.13  -4.02c
iter:  69 21:38:19  -301.830861c -4.20  -4.10c
Writing to output.gpw (mode='')

iter:  70 21:38:26  -301.830865c -4.29  -4.17c
iter:  71 21:38:33  -301.830884c -4.25  -4.30c
iter:  72 21:38:40  -301.830887c -4.38  -4.37c
iter:  73 21:38:47  -301.830892c -4.43  -4.41c
iter:  74 21:38:55  -301.830903c -4.33  -4.52c
Writing to output.gpw (mode='')

iter:  75 21:39:02  -301.830903c -4.37  -4.60c
iter:  76 21:39:09  -301.830906c -4.42  -4.66c
iter:  77 21:39:16  -301.830912c -4.32  -4.65c
iter:  78 21:39:23  -301.830914c -4.51  -4.67c
iter:  79 21:39:31  -301.830915c -4.44  -4.64c
Writing to output.gpw (mode='')

iter:  80 21:39:38  -301.830916c -4.80  -4.56c
iter:  81 21:39:45  -301.830916c -4.88  -4.54c
iter:  82 21:39:52  -301.830918c -4.91  -4.49c
iter:  83 21:39:59  -301.830921c -4.84  -4.51c
iter:  84 21:40:06  -301.830922c -4.85  -4.50c
Writing to output.gpw (mode='')

iter:  85 21:40:13  -301.830921c -5.00  -4.47c
iter:  86 21:40:21  -301.830928c -4.96  -4.44c
iter:  87 21:40:28  -301.830936c -4.93  -4.53c
iter:  88 21:40:35  -301.830936c -5.19  -4.66c
iter:  89 21:40:42  -301.830939c -5.22  -4.62c
Writing to output.gpw (mode='')

iter:  90 21:40:49  -301.830943c -5.12  -4.68c
iter:  91 21:40:56  -301.830957c -5.23  -4.70c
iter:  92 21:41:03  -301.830953c -5.35  -4.86c
iter:  93 21:41:11  -301.830956c -5.39  -4.93c
iter:  94 21:41:18  -301.830958c -5.25  -4.98c
Writing to output.gpw (mode='')

iter:  95 21:41:25  -301.830956c -5.51  -5.09c
iter:  96 21:41:32  -301.830956c -5.53  -5.18c
iter:  97 21:41:39  -301.830956c -5.62  -5.20c
iter:  98 21:41:46  -301.830953c -5.56  -5.20c
iter:  99 21:41:53  -301.830952c -5.63  -5.00c
Writing to output.gpw (mode='')

iter: 100 21:42:01  -301.830953c -5.66  -5.05c
iter: 101 21:42:08  -301.830953c -5.86  -5.10c
iter: 102 21:42:15  -301.830954c -5.72  -5.06c
iter: 103 21:42:22  -301.830954c -6.04  -5.11c
iter: 104 21:42:29  -301.830954c -6.04  -5.08c
Writing to output.gpw (mode='')

iter: 105 21:42:36  -301.830954c -5.96  -5.04c
iter: 106 21:42:44  -301.830954c -6.16  -5.04c
iter: 107 21:42:51  -301.830951c -6.21  -5.06c
iter: 108 21:42:58  -301.830954c -6.21  -4.90c
iter: 109 21:43:05  -301.830959c -6.18  -5.04c
Writing to output.gpw (mode='')

iter: 110 21:43:17  -301.830959c -6.44  -5.45c
iter: 111 21:43:25  -301.830959c -6.40  -5.42c
iter: 112 21:43:32  -301.830958c -6.47  -5.46c
iter: 113 21:43:39  -301.830958c -6.55  -5.33c
iter: 114 21:43:46  -301.830958c -6.52  -5.40c
Writing to output.gpw (mode='')

iter: 115 21:43:53  -301.830958c -6.55  -5.40c
iter: 116 21:44:01  -301.830958c -6.63  -5.35c
iter: 117 21:44:08  -301.830958c -6.57  -5.43c
iter: 118 21:44:15  -301.830958c -6.64  -5.35c
iter: 119 21:44:22  -301.830958c -6.44  -5.34c
Writing to output.gpw (mode='')

iter: 120 21:44:29  -301.830958c -6.56  -5.37c
iter: 121 21:44:36  -301.830959c -6.61  -5.47c
iter: 122 21:44:43  -301.830960c -6.58  -5.62c
iter: 123 21:44:51  -301.830959c -6.74  -5.71c
iter: 124 21:44:58  -301.830959c -6.85  -5.75c
Writing to output.gpw (mode='')

iter: 125 21:45:05  -301.830959c -6.95  -5.78c
iter: 126 21:45:12  -301.830959c -6.88  -5.91c
iter: 127 21:45:19  -301.830959c -7.02  -6.02c
iter: 128 21:45:26  -301.830959c -6.99  -6.02c
iter: 129 21:45:33  -301.830959c -7.06  -6.01c
Writing to output.gpw (mode='')

iter: 130 21:45:41  -301.830960c -7.14  -6.06c
iter: 131 21:45:48  -301.830959c -7.14  -6.16c
iter: 132 21:45:55  -301.830959c -7.24  -6.22c
iter: 133 21:46:02  -301.830959c -7.29  -6.45c
iter: 134 21:46:09  -301.830959c -7.34  -6.63c
Writing to output.gpw (mode='')

iter: 135 21:46:16  -301.830959c -7.36  -6.64c
iter: 136 21:46:23  -301.830959c -7.45c -6.60c

Converged after 136 iterations.

Dipole moment: (4.732865, -3.577605, 0.494670) |e|*Ang

Energy contributions relative to reference atoms: (reference = -14434.854043)

Kinetic:       +184.913886
Potential:     -167.139482
External:        +0.000000
XC:            -320.254242
Entropy (-ST):   -0.161003
Local:           +0.729381
--------------------------
Free energy:   -301.911461
Extrapolated:  -301.830959

Dipole-layer corrected work functions: 3.382654, 2.431729 eV

Showing only first 2 kpts
 Kpt  Band  Eigenvalues  Occupancy
  0    31     -3.15530    1.98610
  0    32     -3.01044    1.77491
  0    33     -2.78018    0.14616
  0    34     -2.68930    0.02529

  1    31     -2.95848    1.47216
  1    32     -2.89483    0.87700
  1    33     -2.87824    0.71833
  1    34     -2.80728    0.23877


Fermi level: -2.90719

No gap
Writing to output.gpw (mode='')


Forces in eV/Ang:
  0 Li    0.01287    0.00374   -0.26410
  1 Li   -0.01835    0.00235   -0.27823
  2 Li    0.00879   -0.00324   -0.28029
  3 Li    0.00182   -0.00358   -0.27260
  4 Li    0.00022    0.00917   -0.27874
  5 Li   -0.00465    0.02346   -0.27213
  6 Li   -0.00281    0.00024   -0.27639
  7 Li    0.00706   -0.01011   -0.27591
  8 Li   -0.00662   -0.01992   -0.27668
  9 Li    0.00654    0.00141    0.28759
 10 Li   -0.01566    0.00460    0.25278
 11 Li    0.00343    0.00806    0.31498
 12 Li    0.00790   -0.00282    0.28768
 13 Li   -0.01404   -0.00367    0.24397
 14 Li    0.00176   -0.01230    0.31973
 15 Li   -0.01457    0.00226    0.24400
 16 Li    0.00980   -0.00213    0.27554
 17 Li    0.00629    0.00337    0.22667
 18 Li   -0.00749    0.00267    0.07228
 19 Li   -0.05102   -0.00321   -0.08180
 20 Li    0.02582    0.00961   -0.19399
 21 Li   -0.02018   -0.00314    0.05527
 22 Li    0.03204   -0.03158    0.06587
 23 Li   -0.00839   -0.01861    0.05006
 24 Li   -0.00979   -0.00190    0.03475
 25 Li    0.02531    0.03298    0.06380
 26 Li   -0.01030    0.00720    0.04772
 27 Li    0.11264   -0.06011   -0.02939
 28 Li   -0.04806   -0.01711   -0.02898
 29 Li   -0.05989    0.07795    0.03259
 30 Li    0.18834    0.07427   -0.33731
 31 Li   -0.05875    0.03024   -0.03026
 32 Li   -0.12202   -0.15501   -0.09049
 33 Li   -0.00340    0.02372   -0.06666
 34 Li    0.01274   -0.01149   -0.00054
 35 Li   -0.01141    0.02704   -0.06920
 36 O     7.44002    0.58662   12.63270
 37 C     1.55560    1.86552    2.14311
 38 C    -0.13832   -0.13674    0.28396
 39 H    -0.07163   -0.04470   -0.09063
 40 H     0.39483    0.14522    0.57611
 41 H     0.00741   -0.15747   -0.09630
 42 H    -0.00526    0.23922    0.04698
 43 H    -0.02208    0.01506    0.00257
 44 H    -1.15425   -0.29930    0.80071
 45 N     2.69042   -2.19525   -7.63193
 46 N   -10.61470   -0.01781   -8.11967

System changes: positions 

Initializing position-dependent things.

Density initialized from wave functions
       .-----------------------.  
      /|                       |  
     / |                       |  
    /  |                       |  
   /   |                       |  
  /    |                       |  
 *     |                       |  
 |     |                       |  
 |     |                       |  
 |     |                       |  
 |     |                       |  
 |     |                       |  
 |     |              H        |  
 |     Li      Li       C H    |  
 |     |             HH  C     |  
 |     |     Li      LO   H  Li|  
 |     |           N  N        |  
 | Li  |  LLi     LLi     Li   |  
 |     |                       |  
 |     |Li      LLi     Li     |  
 |   Li|     Li      Li        |  
 |    Li  Li  Li  Li  Li  Li   |  
 | Li  |   Li      Li          |  
 |     |Li      Li      Li     |  
 Li    | Li      Li            |  
 |    Li      Li      Li       |  
 |     |                       |  
 |     |                       |  
 |     |                       |  
 |     |                       |  
 |     |                       |  
 |     |                       |  
 |     .-----------------------.  
 |    /                       /   
 |   /                       /    
 |  /                       /     
 | /                       /      
 |/                       /       
 *-----------------------*        

Positions:
   0 Li     1.617037    1.617037   10.000000    ( 0.0000,  0.0000,  0.0000)
   1 Li     4.851111    1.617037   10.000000    ( 0.0000,  0.0000,  0.0000)
   2 Li     8.085185    1.617037   10.000000    ( 0.0000,  0.0000,  0.0000)
   3 Li     1.617037    4.851111   10.000000    ( 0.0000,  0.0000,  0.0000)
   4 Li     4.851111    4.851111   10.000000    ( 0.0000,  0.0000,  0.0000)
   5 Li     8.085185    4.851111   10.000000    ( 0.0000,  0.0000,  0.0000)
   6 Li     1.617037    8.085185   10.000000    ( 0.0000,  0.0000,  0.0000)
   7 Li     4.851111    8.085185   10.000000    ( 0.0000,  0.0000,  0.0000)
   8 Li     8.085185    8.085185   10.000000    ( 0.0000,  0.0000,  0.0000)
   9 Li     0.000000    0.000000   11.617037    ( 0.0000,  0.0000,  0.0000)
  10 Li     3.234074    0.000000   11.617037    ( 0.0000,  0.0000,  0.0000)
  11 Li     6.468148    0.000000   11.617037    ( 0.0000,  0.0000,  0.0000)
  12 Li     0.000000    3.234074   11.617037    ( 0.0000,  0.0000,  0.0000)
  13 Li     3.234074    3.234074   11.617037    ( 0.0000,  0.0000,  0.0000)
  14 Li     6.468148    3.234074   11.617037    ( 0.0000,  0.0000,  0.0000)
  15 Li     0.000000    6.468148   11.617037    ( 0.0000,  0.0000,  0.0000)
  16 Li     3.234074    6.468148   11.617037    ( 0.0000,  0.0000,  0.0000)
  17 Li     6.468148    6.468148   11.617037    ( 0.0000,  0.0000,  0.0000)
  18 Li     1.617018    1.617045   13.469925    ( 0.0000,  0.0000,  0.0000)
  19 Li     4.850972    1.617030   13.469506    ( 0.0000,  0.0000,  0.0000)
  20 Li     8.085254    1.617064   13.469199    ( 0.0000,  0.0000,  0.0000)
  21 Li     1.616983    4.851102   13.469880    ( 0.0000,  0.0000,  0.0000)
  22 Li     4.851198    4.851025   13.469910    ( 0.0000,  0.0000,  0.0000)
  23 Li     8.085161    4.851060   13.469866    ( 0.0000,  0.0000,  0.0000)
  24 Li     1.617011    8.085179   13.469823    ( 0.0000,  0.0000,  0.0000)
  25 Li     4.851180    8.085273   13.469903    ( 0.0000,  0.0000,  0.0000)
  26 Li     8.085156    8.085204   13.469858    ( 0.0000,  0.0000,  0.0000)
  27 Li     0.000307   -0.000164   15.445859    ( 0.0000,  0.0000,  0.0000)
  28 Li     3.233943   -0.000047   15.445860    ( 0.0000,  0.0000,  0.0000)
  29 Li     6.467985    0.000213   15.446028    ( 0.0000,  0.0000,  0.0000)
  30 Li     0.000513    3.234276   15.445019    ( 0.0000,  0.0000,  0.0000)
  31 Li     3.233916    3.234159   15.445856    ( 0.0000,  0.0000,  0.0000)
  32 Li     6.467813    3.233654   15.445691    ( 0.0000,  0.0000,  0.0000)
  33 Li    -0.000009    6.468213   15.445757    ( 0.0000,  0.0000,  0.0000)
  34 Li     3.234111    6.468114   15.445937    ( 0.0000,  0.0000,  0.0000)
  35 Li     6.468114    6.468219   15.445749    ( 0.0000,  0.0000,  0.0000)
  36 O      8.105468    1.618636   18.480378    ( 0.0000,  0.0000,  0.0000)
  37 C      8.906183    2.804530   18.456080    ( 0.0000,  0.0000,  0.0000)
  38 C      8.081947    4.083286   18.436478    ( 0.0000,  0.0000,  0.0000)
  39 H      9.585283    2.790699   19.310151    ( 0.0000,  0.0000,  0.0000)
  40 H      9.512745    2.724452   17.549013    ( 0.0000,  0.0000,  0.0000)
  41 H      8.736291    4.960156   18.420007    ( 0.0000,  0.0000,  0.0000)
  42 H      7.433287    4.119022   17.559014    ( 0.0000,  0.0000,  0.0000)
  43 H      7.453776    4.153888   19.328272    ( 0.0000,  0.0000,  0.0000)
  44 H      7.499062    1.655388   19.216347    ( 0.0000,  0.0000,  0.0000)
  45 N      8.092335    1.611015   16.925133    ( 0.0000,  0.0000,  0.0000)
  46 N      6.959440    1.616951   16.923804    ( 0.0000,  0.0000,  0.0000)

Unit cell:
           periodic     x           y           z      points  spacing
  1. axis:    yes    9.702222    0.000000    0.000000    60     0.1617
  2. axis:    yes    0.000000    9.702222    0.000000    60     0.1617
  3. axis:    no     0.000000    0.000000   26.351111   164     0.1607

  Lengths:   9.702222   9.702222  26.351111
  Angles:   90.000000  90.000000  90.000000

Effective grid spacing dv^(1/3) = 0.1614

     iter     time        total  log10-change:
                         energy  eigst   dens
iter:   1 21:46:32  -303.662208  -0.40
iter:   2 21:46:40  -303.363473  -0.58  -1.31
iter:   3 21:46:47  -303.029344  -0.65  -1.30
iter:   4 21:46:54  -302.968600  -1.19  -1.58
Writing to output.gpw (mode='')

iter:   5 21:47:01  -302.975662  -1.07  -1.92
iter:   6 21:47:09  -302.955138c -1.07  -1.84
iter:   7 21:47:16  -302.967936c -1.39  -2.02
iter:   8 21:47:23  -302.963974c -2.02  -2.17
iter:   9 21:47:30  -302.954944c -2.18  -2.19
Writing to output.gpw (mode='')

iter:  10 21:47:38  -302.949225c -2.37  -2.40
iter:  11 21:47:45  -302.950522c -2.55  -2.55
iter:  12 21:47:52  -302.949062c -2.73  -2.61
iter:  13 21:47:59  -302.949483c -2.92  -2.74
iter:  14 21:48:06  -302.949131c -2.86  -2.95
Writing to output.gpw (mode='')

iter:  15 21:48:19  -302.949696c -3.53  -3.03
iter:  16 21:48:26  -302.949649c -3.34  -3.04
iter:  17 21:48:34  -302.949517c -3.39  -3.13
iter:  18 21:48:41  -302.949423c -4.15  -3.36
iter:  19 21:48:48  -302.949548c -3.76  -3.52
Writing to output.gpw (mode='')

iter:  20 21:48:55  -302.949445c -4.14  -3.44
iter:  21 21:49:02  -302.949475c -4.01  -3.71
iter:  22 21:49:10  -302.949513c -4.63  -3.77
iter:  23 21:49:17  -302.949471c -4.48  -3.77
iter:  24 21:49:24  -302.949487c -4.73  -3.97
Writing to output.gpw (mode='')

iter:  25 21:49:31  -302.949502c -4.61  -4.04c
iter:  26 21:49:38  -302.949519c -5.06  -4.16c
iter:  27 21:49:46  -302.949504c -5.18  -4.23c
iter:  28 21:49:53  -302.949510c -5.21  -4.41c
iter:  29 21:50:00  -302.949513c -5.31  -4.43c
Writing to output.gpw (mode='')

iter:  30 21:50:07  -302.949510c -5.35  -4.51c
iter:  31 21:50:14  -302.949518c -5.36  -4.56c
iter:  32 21:50:22  -302.949517c -5.56  -4.54c
iter:  33 21:50:29  -302.949516c -5.85  -4.59c
iter:  34 21:50:36  -302.949513c -5.99  -4.79c
Writing to output.gpw (mode='')

iter:  35 21:50:43  -302.949517c -5.94  -4.95c
iter:  36 21:50:51  -302.949518c -6.05  -5.02c
iter:  37 21:50:58  -302.949518c -6.09  -5.01c
iter:  38 21:51:05  -302.949515c -6.11  -5.04c
iter:  39 21:51:12  -302.949516c -6.23  -4.98c
Writing to output.gpw (mode='')

iter:  40 21:51:19  -302.949517c -6.33  -5.08c
iter:  41 21:51:27  -302.949518c -6.42  -5.21c
iter:  42 21:51:34  -302.949519c -6.55  -5.53c
iter:  43 21:51:41  -302.949518c -6.71  -5.57c
iter:  44 21:51:48  -302.949519c -6.61  -5.61c
Writing to output.gpw (mode='')

iter:  45 21:51:55  -302.949519c -6.80  -5.59c
iter:  46 21:52:03  -302.949518c -6.62  -5.53c
iter:  47 21:52:10  -302.949518c -6.82  -5.37c
iter:  48 21:52:17  -302.949518c -6.96  -5.27c
iter:  49 21:52:24  -302.949518c -6.90  -5.27c
Writing to output.gpw (mode='')

iter:  50 21:52:31  -302.949518c -7.09  -5.23c
iter:  51 21:52:39  -302.949518c -7.13  -5.25c
iter:  52 21:52:46  -302.949519c -7.06  -5.23c
iter:  53 21:52:53  -302.949518c -7.26  -5.20c
iter:  54 21:53:00  -302.949518c -7.24  -5.18c
Writing to output.gpw (mode='')

iter:  55 21:53:08  -302.949518c -7.49c -5.19c

Converged after 55 iterations.

Dipole moment: (4.657272, -3.441794, 0.471545) |e|*Ang

Energy contributions relative to reference atoms: (reference = -14434.854043)

Kinetic:       +176.919925
Potential:     -161.325108
External:        +0.000000
XC:            -319.197402
Entropy (-ST):   -0.167661
Local:           +0.736898
--------------------------
Free energy:   -303.033349
Extrapolated:  -302.949518

Dipole-layer corrected work functions: 3.385550, 2.479079 eV

Showing only first 2 kpts
 Kpt  Band  Eigenvalues  Occupancy
  0    31     -3.17994    1.98597
  0    32     -3.02697    1.73821
  0    33     -2.82821    0.22170
  0    34     -2.71468    0.02542

  1    31     -2.98350    1.47138
  1    32     -2.91825    0.86026
  1    33     -2.89486    0.64207
  1    34     -2.83332    0.24266


Fermi level: -2.93231

No gap

Forces in eV/Ang:
  0 Li    0.01253    0.00347   -0.26476
  1 Li   -0.01735    0.00207   -0.27889
  2 Li    0.00824   -0.00333   -0.28167
  3 Li    0.00215   -0.00244   -0.27250
  4 Li   -0.00002    0.01042   -0.27965
  5 Li   -0.00495    0.02359   -0.27270
  6 Li   -0.00235   -0.00058   -0.27670
  7 Li    0.00662   -0.01109   -0.27637
  8 Li   -0.00689   -0.01988   -0.27759
  9 Li    0.00595    0.00247    0.29063
 10 Li   -0.01518    0.00445    0.25276
 11 Li    0.00326    0.00777    0.31725
 12 Li    0.00691   -0.00360    0.29080
 13 Li   -0.01307   -0.00313    0.24395
 14 Li    0.00138   -0.01198    0.32229
 15 Li   -0.01372    0.00181    0.24258
 16 Li    0.00905   -0.00249    0.27416
 17 Li    0.00640    0.00327    0.22654
 18 Li   -0.00330    0.00266    0.06673
 19 Li   -0.05348   -0.00365   -0.08959
 20 Li    0.02357    0.00910   -0.19102
 21 Li   -0.02071   -0.00406    0.05602
 22 Li    0.03223   -0.03134    0.06361
 23 Li   -0.00758   -0.01479    0.04322
 24 Li   -0.01066   -0.00109    0.03561
 25 Li    0.02610    0.03301    0.06260
 26 Li   -0.00961    0.00360    0.04083
 27 Li    0.08536   -0.03821    0.00795
 28 Li   -0.04595   -0.02212   -0.03042
 29 Li   -0.02773    0.09993    0.08793
 30 Li    0.16135    0.05484   -0.29376
 31 Li   -0.05749    0.03456   -0.03235
 32 Li   -0.09029   -0.17784   -0.03195
 33 Li    0.00020    0.02284   -0.06911
 34 Li    0.01231   -0.01087   -0.00208
 35 Li   -0.01506    0.02508   -0.07192
 36 O     6.35691    0.30299    9.90416
 37 C     1.32207    1.64531    1.88531
 38 C    -0.07875   -0.05506    0.24975
 39 H     0.12439    0.09489    0.08660
 40 H     0.33881    0.14091    0.63224
 41 H    -0.00898   -0.13552   -0.07951
 42 H     0.00890    0.19455    0.06334
 43 H    -0.03635    0.02104    0.02265
 44 H    -1.29670   -0.13924    0.94579
 45 N    -1.20027   -2.01901   -6.82560
 46 N    -5.54977   -0.02610   -6.55624

System changes: positions 

Initializing position-dependent things.

Density initialized from wave functions
       .-----------------------.  
      /|                       |  
     / |                       |  
    /  |                       |  
   /   |                       |  
  /    |                       |  
 *     |                       |  
 |     |                       |  
 |     |                       |  
 |     |                       |  
 |     |                       |  
 |     |                       |  
 |     |              H        |  
 |     Li      Li       C H    |  
 |     |             HH  C     |  
 |   Li|     Li      LO   H    |  
 |     |           N  N        |  
 | Li  |  LLi     LLi     Li   |  
 |     |                       |  
 |     |Li      LLi     Li     |  
 |   Li|     Li      Li        |  
 |    Li  Li  Li  Li  Li  Li   |  
 | Li  |   Li      Li          |  
 |     |Li      Li      Li     |  
 Li    | Li      Li            |  
 |    Li      Li      Li       |  
 |     |                       |  
 |     |                       |  
 |     |                       |  
 |     |                       |  
 |     |                       |  
 |     |                       |  
 |     .-----------------------.  
 |    /                       /   
 |   /                       /    
 |  /                       /     
 | /                       /      
 |/                       /       
 *-----------------------*        

Positions:
   0 Li     1.617037    1.617037   10.000000    ( 0.0000,  0.0000,  0.0000)
   1 Li     4.851111    1.617037   10.000000    ( 0.0000,  0.0000,  0.0000)
   2 Li     8.085185    1.617037   10.000000    ( 0.0000,  0.0000,  0.0000)
   3 Li     1.617037    4.851111   10.000000    ( 0.0000,  0.0000,  0.0000)
   4 Li     4.851111    4.851111   10.000000    ( 0.0000,  0.0000,  0.0000)
   5 Li     8.085185    4.851111   10.000000    ( 0.0000,  0.0000,  0.0000)
   6 Li     1.617037    8.085185   10.000000    ( 0.0000,  0.0000,  0.0000)
   7 Li     4.851111    8.085185   10.000000    ( 0.0000,  0.0000,  0.0000)
   8 Li     8.085185    8.085185   10.000000    ( 0.0000,  0.0000,  0.0000)
   9 Li     0.000000    0.000000   11.617037    ( 0.0000,  0.0000,  0.0000)
  10 Li     3.234074    0.000000   11.617037    ( 0.0000,  0.0000,  0.0000)
  11 Li     6.468148    0.000000   11.617037    ( 0.0000,  0.0000,  0.0000)
  12 Li     0.000000    3.234074   11.617037    ( 0.0000,  0.0000,  0.0000)
  13 Li     3.234074    3.234074   11.617037    ( 0.0000,  0.0000,  0.0000)
  14 Li     6.468148    3.234074   11.617037    ( 0.0000,  0.0000,  0.0000)
  15 Li     0.000000    6.468148   11.617037    ( 0.0000,  0.0000,  0.0000)
  16 Li     3.234074    6.468148   11.617037    ( 0.0000,  0.0000,  0.0000)
  17 Li     6.468148    6.468148   11.617037    ( 0.0000,  0.0000,  0.0000)
  18 Li     1.617018    1.617057   13.470188    ( 0.0000,  0.0000,  0.0000)
  19 Li     4.850738    1.617013   13.469102    ( 0.0000,  0.0000,  0.0000)
  20 Li     8.085346    1.617101   13.468403    ( 0.0000,  0.0000,  0.0000)
  21 Li     1.616894    4.851082   13.470119    ( 0.0000,  0.0000,  0.0000)
  22 Li     4.851335    4.850893   13.470171    ( 0.0000,  0.0000,  0.0000)
  23 Li     8.085131    4.851011   13.470025    ( 0.0000,  0.0000,  0.0000)
  24 Li     1.616963    8.085177   13.469976    ( 0.0000,  0.0000,  0.0000)
  25 Li     4.851293    8.085413   13.470164    ( 0.0000,  0.0000,  0.0000)
  26 Li     8.085118    8.085207   13.470007    ( 0.0000,  0.0000,  0.0000)
  27 Li     0.000575   -0.000251   15.446019    ( 0.0000,  0.0000,  0.0000)
  28 Li     3.233756   -0.000157   15.445727    ( 0.0000,  0.0000,  0.0000)
  29 Li     6.467976    0.000708   15.446585    ( 0.0000,  0.0000,  0.0000)
  30 Li     0.001103    3.234442   15.443926    ( 0.0000,  0.0000,  0.0000)
  31 Li     3.233678    3.234319   15.445712    ( 0.0000,  0.0000,  0.0000)
  32 Li     6.467539    3.232826   15.445754    ( 0.0000,  0.0000,  0.0000)
  33 Li     0.000004    6.468306   15.445457    ( 0.0000,  0.0000,  0.0000)
  34 Li     3.234162    6.468070   15.445923    ( 0.0000,  0.0000,  0.0000)
  35 Li     6.468039    6.468319   15.445437    ( 0.0000,  0.0000,  0.0000)
  36 O      8.128644    1.618959   18.512978    ( 0.0000,  0.0000,  0.0000)
  37 C      8.910976    2.810731   18.463167    ( 0.0000,  0.0000,  0.0000)
  38 C      8.081815    4.083329   18.437417    ( 0.0000,  0.0000,  0.0000)
  39 H      9.586468    2.791570   19.311113    ( 0.0000,  0.0000,  0.0000)
  40 H      9.513985    2.725032   17.551870    ( 0.0000,  0.0000,  0.0000)
  41 H      8.736198    4.959659   18.419728    ( 0.0000,  0.0000,  0.0000)
  42 H      7.433372    4.119693   17.559337    ( 0.0000,  0.0000,  0.0000)
  43 H      7.453575    4.153997   19.328436    ( 0.0000,  0.0000,  0.0000)
  44 H      7.493109    1.655340   19.220827    ( 0.0000,  0.0000,  0.0000)
  45 N      8.074155    1.603089   16.899046    ( 0.0000,  0.0000,  0.0000)
  46 N      6.953092    1.616813   16.901405    ( 0.0000,  0.0000,  0.0000)

Unit cell:
           periodic     x           y           z      points  spacing
  1. axis:    yes    9.702222    0.000000    0.000000    60     0.1617
  2. axis:    yes    0.000000    9.702222    0.000000    60     0.1617
  3. axis:    no     0.000000    0.000000   26.351111   164     0.1607

  Lengths:   9.702222   9.702222  26.351111
  Angles:   90.000000  90.000000  90.000000

Effective grid spacing dv^(1/3) = 0.1614

     iter     time        total  log10-change:
                         energy  eigst   dens
iter:   1 21:53:25  -304.073836  -0.78
iter:   2 21:53:32  -303.872577  -0.64  -1.45
iter:   3 21:53:39  -303.818678  -1.47  -1.61
iter:   4 21:53:46  -303.895991  -0.70  -2.01
Writing to output.gpw (mode='')

iter:   5 21:53:53  -303.793004  -1.58  -1.57
iter:   6 21:54:01  -303.904979  -1.00  -2.22
iter:   7 21:54:08  -303.845148  -1.85  -1.81
iter:   8 21:54:15  -303.793166  -1.64  -1.94
iter:   9 21:54:22  -303.789809  -1.95  -2.34
Writing to output.gpw (mode='')

iter:  10 21:54:29  -303.797014c -2.53  -2.56
iter:  11 21:54:36  -303.788519c -1.89  -2.38
iter:  12 21:54:43  -303.788996c -2.66  -2.59
iter:  13 21:54:51  -303.789137c -2.75  -2.71
iter:  14 21:54:58  -303.789811c -3.31  -2.98
Writing to output.gpw (mode='')

iter:  15 21:55:05  -303.789695c -3.34  -2.91
iter:  16 21:55:12  -303.789184c -3.16  -2.98
iter:  17 21:55:19  -303.789495c -3.67  -3.23
iter:  18 21:55:26  -303.789195c -3.56  -3.21
iter:  19 21:55:33  -303.789394c -3.86  -3.38
Writing to output.gpw (mode='')

iter:  20 21:55:41  -303.789475c -4.05  -3.59
iter:  21 21:55:48  -303.789411c -4.04  -3.59
iter:  22 21:55:55  -303.789427c -4.35  -3.73
iter:  23 21:56:02  -303.789442c -4.27  -3.81
iter:  24 21:56:09  -303.789439c -4.41  -4.02c
Writing to output.gpw (mode='')

iter:  25 21:56:16  -303.789463c -4.59  -3.94
iter:  26 21:56:24  -303.789467c -4.75  -4.17c
iter:  27 21:56:31  -303.789474c -4.78  -4.22c
iter:  28 21:56:38  -303.789467c -4.92  -4.23c
iter:  29 21:56:45  -303.789469c -4.82  -4.18c
Writing to output.gpw (mode='')

iter:  30 21:56:52  -303.789482c -4.86  -4.19c
iter:  31 21:56:59  -303.789484c -5.44  -4.25c
iter:  32 21:57:06  -303.789480c -5.09  -4.24c
iter:  33 21:57:13  -303.789479c -5.41  -4.13c
iter:  34 21:57:21  -303.789488c -5.45  -4.11c
Writing to output.gpw (mode='')

iter:  35 21:57:28  -303.789486c -5.66  -4.10c
iter:  36 21:57:35  -303.789508c -5.52  -4.10c
iter:  37 21:57:42  -303.789513c -5.69  -4.20c
iter:  38 21:57:49  -303.789524c -5.89  -4.10c
iter:  39 21:57:56  -303.789531c -5.84  -4.18c
Writing to output.gpw (mode='')

iter:  40 21:58:04  -303.789531c -6.21  -4.27c
iter:  41 21:58:15  -303.789528c -5.96  -4.32c
iter:  42 21:58:24  -303.789532c -6.04  -4.42c
iter:  43 21:58:31  -303.789529c -6.30  -4.45c
iter:  44 21:58:39  -303.789533c -6.38  -4.51c
Writing to output.gpw (mode='')

iter:  45 21:58:46  -303.789533c -6.74  -4.78c
iter:  46 21:58:53  -303.789531c -6.34  -4.84c
iter:  47 21:59:00  -303.789532c -6.73  -4.87c
iter:  48 21:59:07  -303.789532c -6.90  -5.02c
iter:  49 21:59:15  -303.789532c -6.80  -5.04c
Writing to output.gpw (mode='')

iter:  50 21:59:22  -303.789533c -6.89  -5.05c
iter:  51 21:59:29  -303.789534c -6.97  -5.11c
iter:  52 21:59:36  -303.789534c -7.15  -5.15c
iter:  53 21:59:43  -303.789534c -6.83  -5.18c
iter:  54 21:59:50  -303.789534c -7.36  -5.30c
Writing to output.gpw (mode='')

iter:  55 21:59:58  -303.789536c -7.30  -5.33c
iter:  56 22:00:05  -303.789536c -7.42c -5.33c

Converged after 56 iterations.

Dipole moment: (4.614917, -3.456296, 0.467895) |e|*Ang

Energy contributions relative to reference atoms: (reference = -14434.854043)

Kinetic:       +176.089642
Potential:     -161.277413
External:        +0.000000
XC:            -319.259354
Entropy (-ST):   -0.166125
Local:           +0.740652
--------------------------
Free energy:   -303.872598
Extrapolated:  -303.789536

Dipole-layer corrected work functions: 3.385615, 2.486159 eV

Showing only first 2 kpts
 Kpt  Band  Eigenvalues  Occupancy
  0    31     -3.18436    1.98620
  0    32     -3.03106    1.74056
  0    33     -2.82720    0.20427
  0    34     -2.71595    0.02429

  1    31     -2.98588    1.46209
  1    32     -2.92340    0.87574
  1    33     -2.89801    0.63833
  1    34     -2.83709    0.24352


Fermi level: -2.93589

No gap
Writing to output.gpw (mode='')


Forces in eV/Ang:
  0 Li    0.01344    0.00318   -0.26501
  1 Li   -0.01856    0.00189   -0.27871
  2 Li    0.00863   -0.00327   -0.28158
  3 Li    0.00182   -0.00267   -0.27272
  4 Li   -0.00006    0.01011   -0.27924
  5 Li   -0.00514    0.02408   -0.27238
  6 Li   -0.00247   -0.00020   -0.27677
  7 Li    0.00626   -0.01088   -0.27599
  8 Li   -0.00689   -0.02034   -0.27700
  9 Li    0.00610    0.00262    0.29023
 10 Li   -0.01589    0.00404    0.25084
 11 Li    0.00326    0.00844    0.31868
 12 Li    0.00729   -0.00349    0.29030
 13 Li   -0.01369   -0.00266    0.24270
 14 Li    0.00114   -0.01234    0.32338
 15 Li   -0.01408    0.00125    0.24268
 16 Li    0.00969   -0.00217    0.27373
 17 Li    0.00726    0.00293    0.22672
 18 Li   -0.00292    0.00244    0.06412
 19 Li   -0.05226   -0.00395   -0.08513
 20 Li    0.02593    0.00840   -0.19951
 21 Li   -0.02020   -0.00345    0.05568
 22 Li    0.03277   -0.03190    0.06477
 23 Li   -0.00761   -0.01727    0.04463
 24 Li   -0.01017   -0.00098    0.03555
 25 Li    0.02678    0.03401    0.06382
 26 Li   -0.00985    0.00670    0.04412
 27 Li    0.08860   -0.04109    0.00494
 28 Li   -0.04261   -0.02081   -0.03254
 29 Li   -0.03790    0.04316    0.04713
 30 Li    0.16349    0.05800   -0.28749
 31 Li   -0.05400    0.03262   -0.03438
 32 Li   -0.10423   -0.12335   -0.06901
 33 Li   -0.00092    0.02386   -0.06800
 34 Li    0.01258   -0.01060   -0.00191
 35 Li   -0.01494    0.02480   -0.07083
 36 O     5.23302    0.02536    8.33476
 37 C     1.03748    1.31533    1.58298
 38 C    -0.04731   -0.00458    0.24645
 39 H     0.32177    0.23896    0.21902
 40 H     0.27821    0.11856    0.61843
 41 H    -0.02342   -0.09843   -0.07352
 42 H     0.02314    0.17389    0.06864
 43 H    -0.04771    0.02688    0.04296
 44 H    -1.13133    0.01135    0.89428
 45 N    -0.06902   -1.82394   -6.24656
 46 N    -5.55212    0.00489   -5.18254

System changes: positions 

Initializing position-dependent things.

Density initialized from wave functions
       .-----------------------.  
      /|                       |  
     / |                       |  
    /  |                       |  
   /   |                       |  
  /    |                       |  
 *     |                       |  
 |     |                       |  
 |     |                       |  
 |     |                       |  
 |     |                       |  
 |     |                       |  
 |     |              H        |  
 |     Li      Li       C H    |  
 |     |             HO  C     |  
 |   Li|     Li      Li   H    |  
 |     |           N           |  
 | Li  |  LLi     LLi N   Li   |  
 |     |                       |  
 |     |Li      LLi     Li     |  
 |   Li|     Li      Li        |  
 |    Li  Li  Li  Li  Li  Li   |  
 | Li  |   Li      Li          |  
 |     |Li      Li      Li     |  
 Li    | Li      Li            |  
 |    Li      Li      Li       |  
 |     |                       |  
 |     |                       |  
 |     |                       |  
 |     |                       |  
 |     |                       |  
 |     |                       |  
 |     .-----------------------.  
 |    /                       /   
 |   /                       /    
 |  /                       /     
 | /                       /      
 |/                       /       
 *-----------------------*        

Positions:
   0 Li     1.617037    1.617037   10.000000    ( 0.0000,  0.0000,  0.0000)
   1 Li     4.851111    1.617037   10.000000    ( 0.0000,  0.0000,  0.0000)
   2 Li     8.085185    1.617037   10.000000    ( 0.0000,  0.0000,  0.0000)
   3 Li     1.617037    4.851111   10.000000    ( 0.0000,  0.0000,  0.0000)
   4 Li     4.851111    4.851111   10.000000    ( 0.0000,  0.0000,  0.0000)
   5 Li     8.085185    4.851111   10.000000    ( 0.0000,  0.0000,  0.0000)
   6 Li     1.617037    8.085185   10.000000    ( 0.0000,  0.0000,  0.0000)
   7 Li     4.851111    8.085185   10.000000    ( 0.0000,  0.0000,  0.0000)
   8 Li     8.085185    8.085185   10.000000    ( 0.0000,  0.0000,  0.0000)
   9 Li     0.000000    0.000000   11.617037    ( 0.0000,  0.0000,  0.0000)
  10 Li     3.234074    0.000000   11.617037    ( 0.0000,  0.0000,  0.0000)
  11 Li     6.468148    0.000000   11.617037    ( 0.0000,  0.0000,  0.0000)
  12 Li     0.000000    3.234074   11.617037    ( 0.0000,  0.0000,  0.0000)
  13 Li     3.234074    3.234074   11.617037    ( 0.0000,  0.0000,  0.0000)
  14 Li     6.468148    3.234074   11.617037    ( 0.0000,  0.0000,  0.0000)
  15 Li     0.000000    6.468148   11.617037    ( 0.0000,  0.0000,  0.0000)
  16 Li     3.234074    6.468148   11.617037    ( 0.0000,  0.0000,  0.0000)
  17 Li     6.468148    6.468148   11.617037    ( 0.0000,  0.0000,  0.0000)
  18 Li     1.617022    1.617072   13.470604    ( 0.0000,  0.0000,  0.0000)
  19 Li     4.850353    1.616979   13.468476    ( 0.0000,  0.0000,  0.0000)
  20 Li     8.085544    1.617154   13.466886    ( 0.0000,  0.0000,  0.0000)
  21 Li     1.616748    4.851057   13.470527    ( 0.0000,  0.0000,  0.0000)
  22 Li     4.851580    4.850657   13.470642    ( 0.0000,  0.0000,  0.0000)
  23 Li     8.085080    4.850884   13.470327    ( 0.0000,  0.0000,  0.0000)
  24 Li     1.616889    8.085175   13.470240    ( 0.0000,  0.0000,  0.0000)
  25 Li     4.851499    8.085670   13.470634    ( 0.0000,  0.0000,  0.0000)
  26 Li     8.085047    8.085263   13.470321    ( 0.0000,  0.0000,  0.0000)
  27 Li     0.001104   -0.000458   15.446231    ( 0.0000,  0.0000,  0.0000)
  28 Li     3.233484   -0.000325   15.445462    ( 0.0000,  0.0000,  0.0000)
  29 Li     6.467786    0.000655   15.446878    ( 0.0000,  0.0000,  0.0000)
  30 Li     0.002172    3.234788   15.442113    ( 0.0000,  0.0000,  0.0000)
  31 Li     3.233320    3.234565   15.445432    ( 0.0000,  0.0000,  0.0000)
  32 Li     6.466828    3.232269   15.445247    ( 0.0000,  0.0000,  0.0000)
  33 Li     0.000007    6.468485   15.444956    ( 0.0000,  0.0000,  0.0000)
  34 Li     3.234254    6.467999   15.445902    ( 0.0000,  0.0000,  0.0000)
  35 Li     6.467911    6.468487   15.444913    ( 0.0000,  0.0000,  0.0000)
  36 O      8.151389    1.615219   18.545670    ( 0.0000,  0.0000,  0.0000)
  37 C      8.914851    2.816321   18.470750    ( 0.0000,  0.0000,  0.0000)
  38 C      8.082062    4.084172   18.439006    ( 0.0000,  0.0000,  0.0000)
  39 H      9.591582    2.795314   19.314815    ( 0.0000,  0.0000,  0.0000)
  40 H      9.515196    2.725683   17.556579    ( 0.0000,  0.0000,  0.0000)
  41 H      8.735813    4.959377   18.419332    ( 0.0000,  0.0000,  0.0000)
  42 H      7.433741    4.120545   17.559973    ( 0.0000,  0.0000,  0.0000)
  43 H      7.453051    4.154276   19.329034    ( 0.0000,  0.0000,  0.0000)
  44 H      7.485485    1.657586   19.227712    ( 0.0000,  0.0000,  0.0000)
  45 N      8.062320    1.592379   16.862699    ( 0.0000,  0.0000,  0.0000)
  46 N      6.939880    1.617071   16.883781    ( 0.0000,  0.0000,  0.0000)

Unit cell:
           periodic     x           y           z      points  spacing
  1. axis:    yes    9.702222    0.000000    0.000000    60     0.1617
  2. axis:    yes    0.000000    9.702222    0.000000    60     0.1617
  3. axis:    no     0.000000    0.000000   26.351111   164     0.1607

  Lengths:   9.702222   9.702222  26.351111
  Angles:   90.000000  90.000000  90.000000

Effective grid spacing dv^(1/3) = 0.1614

     iter     time        total  log10-change:
                         energy  eigst   dens
iter:   1 22:00:14  -304.619428  -0.82
iter:   2 22:00:21  -304.593894  -1.14  -1.73
iter:   3 22:00:28  -304.578138  -1.80  -1.83
iter:   4 22:00:35  -304.578933c -2.04  -2.29
Writing to output.gpw (mode='')

iter:   5 22:00:42  -304.580353c -2.25  -2.32
iter:   6 22:00:50  -304.570917c -1.94  -2.31
iter:   7 22:00:57  -304.571958c -2.62  -2.37
iter:   8 22:01:04  -304.572255c -2.67  -2.61
iter:   9 22:01:11  -304.571147c -2.70  -2.65
Writing to output.gpw (mode='')

iter:  10 22:01:18  -304.571645c -2.73  -2.86
iter:  11 22:01:26  -304.571239c -3.24  -2.88
iter:  12 22:01:33  -304.571452c -3.18  -2.96
iter:  13 22:01:40  -304.571156c -3.35  -3.00
iter:  14 22:01:47  -304.571260c -4.05  -3.20
Writing to output.gpw (mode='')

iter:  15 22:01:54  -304.571309c -3.63  -3.23
iter:  16 22:02:01  -304.571276c -3.73  -3.45
iter:  17 22:02:09  -304.571289c -4.37  -3.42
iter:  18 22:02:18  -304.571314c -4.31  -3.68
iter:  19 22:02:29  -304.571281c -4.62  -3.71
Writing to output.gpw (mode='')

iter:  20 22:02:43  -304.571349c -4.76  -3.70
iter:  21 22:02:57  -304.571335c -4.86  -3.79
iter:  22 22:03:04  -304.571339c -4.83  -3.95
iter:  23 22:03:17  -304.571327c -4.95  -4.03c
iter:  24 22:03:25  -304.571325c -5.25  -4.19c
Writing to output.gpw (mode='')

iter:  25 22:03:32  -304.571330c -5.36  -4.22c
iter:  26 22:03:39  -304.571327c -5.46  -4.35c
iter:  27 22:03:46  -304.571335c -5.36  -4.53c
iter:  28 22:03:54  -304.571333c -5.61  -4.45c
iter:  29 22:04:01  -304.571335c -5.57  -4.53c
Writing to output.gpw (mode='')

iter:  30 22:04:08  -304.571335c -6.12  -4.62c
iter:  31 22:04:15  -304.571337c -5.95  -4.70c
iter:  32 22:04:22  -304.571333c -6.20  -4.82c
iter:  33 22:04:29  -304.571335c -6.21  -4.89c
iter:  34 22:04:37  -304.571337c -6.33  -4.95c
Writing to output.gpw (mode='')

iter:  35 22:04:44  -304.571336c -6.30  -5.08c
iter:  36 22:04:51  -304.571339c -6.31  -5.15c
iter:  37 22:04:58  -304.571339c -6.56  -5.15c
iter:  38 22:05:05  -304.571339c -6.48  -5.17c
iter:  39 22:05:12  -304.571340c -6.82  -5.31c
Writing to output.gpw (mode='')

iter:  40 22:05:20  -304.571339c -6.81  -5.31c
iter:  41 22:05:27  -304.571339c -6.70  -5.38c
iter:  42 22:05:34  -304.571340c -6.97  -5.55c
iter:  43 22:05:41  -304.571340c -6.97  -5.53c
iter:  44 22:05:48  -304.571340c -7.08  -5.65c
Writing to output.gpw (mode='')

iter:  45 22:05:56  -304.571340c -7.26  -5.57c
iter:  46 22:06:03  -304.571340c -7.27  -5.76c
iter:  47 22:06:10  -304.571340c -7.26  -5.98c
iter:  48 22:06:17  -304.571340c -7.45c -5.97c

Converged after 48 iterations.

Dipole moment: (4.438948, -3.389478, 0.439823) |e|*Ang

Energy contributions relative to reference atoms: (reference = -14434.854043)

Kinetic:       +173.006188
Potential:     -159.355472
External:        +0.000000
XC:            -318.883107
Entropy (-ST):   -0.166916
Local:           +0.744509
--------------------------
Free energy:   -304.654798
Extrapolated:  -304.571340

Dipole-layer corrected work functions: 3.387709, 2.542219 eV

Showing only first 2 kpts
 Kpt  Band  Eigenvalues  Occupancy
  0    31     -3.21371    1.98628
  0    32     -3.05632    1.72286
  0    33     -2.85877    0.21360
  0    34     -2.74142    0.02262

  1    31     -3.01432    1.45707
  1    32     -2.95296    0.88050
  1    33     -2.92612    0.62997
  1    34     -2.86383    0.23367


Fermi level: -2.96496

No gap
Writing to output.gpw (mode='')


Forces in eV/Ang:
  0 Li    0.01449    0.00277   -0.26528
  1 Li   -0.01905    0.00151   -0.27881
  2 Li    0.00852   -0.00323   -0.28165
  3 Li    0.00143   -0.00219   -0.27325
  4 Li   -0.00046    0.01013   -0.27929
  5 Li   -0.00537    0.02463   -0.27260
  6 Li   -0.00258   -0.00047   -0.27722
  7 Li    0.00539   -0.01094   -0.27607
  8 Li   -0.00696   -0.02081   -0.27689
  9 Li    0.00591    0.00295    0.29043
 10 Li   -0.01657    0.00362    0.24916
 11 Li    0.00305    0.00883    0.32011
 12 Li    0.00712   -0.00360    0.29061
 13 Li   -0.01424   -0.00204    0.24176
 14 Li    0.00057   -0.01243    0.32460
 15 Li   -0.01393    0.00054    0.24261
 16 Li    0.01056   -0.00186    0.27231
 17 Li    0.00821    0.00257    0.22691
 18 Li   -0.00116    0.00208    0.05870
 19 Li   -0.05136   -0.00430   -0.08120
 20 Li    0.02568    0.00721   -0.19693
 21 Li   -0.01921   -0.00315    0.05524
 22 Li    0.03304   -0.03120    0.06410
 23 Li   -0.00724   -0.01747    0.04240
 24 Li   -0.00961   -0.00022    0.03576
 25 Li    0.02739    0.03386    0.06332
 26 Li   -0.00947    0.00776    0.04411
 27 Li    0.07609   -0.03101    0.01684
 28 Li   -0.03755   -0.02064   -0.03436
 29 Li   -0.03059    0.01226    0.03777
 30 Li    0.15271    0.05163   -0.26407
 31 Li   -0.04939    0.03149   -0.03642
 32 Li   -0.10121   -0.09358   -0.07391
 33 Li   -0.00052    0.02458   -0.06740
 34 Li    0.01189   -0.01015   -0.00275
 35 Li   -0.01590    0.02392   -0.07099
 36 O     4.15946   -0.14653    6.96300
 37 C     0.83556    0.95864    1.39698
 38 C    -0.06296   -0.00958    0.22717
 39 H     0.41230    0.36596    0.24769
 40 H     0.22265    0.09645    0.58961
 41 H    -0.01426   -0.04527   -0.06095
 42 H     0.03854    0.14824    0.08312
 43 H    -0.05298    0.03918    0.05572
 44 H    -0.84728    0.12444    0.69926
 45 N    -0.12534   -1.57973   -5.57931
 46 N    -4.57942    0.03544   -4.12771

System changes: positions 

Initializing position-dependent things.

Density initialized from wave functions
       .-----------------------.  
      /|                       |  
     / |                       |  
    /  |                       |  
   /   |                       |  
  /    |                       |  
 *     |                       |  
 |     |                       |  
 |     |                       |  
 |     |                       |  
 |     |                       |  
 |     |                       |  
 |     |              H        |  
 |     Li      Li       C H    |  
 |     |             HO  C     |  
 |   Li|     Li      Li   H    |  
 |     |                       |  
 | Li  |  LLi     LNi N   Li   |  
 |     |                       |  
 |     |Li      LLi     Li     |  
 |   Li|     Li      Li        |  
 |    Li  Li  Li  Li  Li  Li   |  
 | Li  |   Li      Li          |  
 |     |Li      Li      Li     |  
 Li    | Li      Li            |  
 |    Li      Li      Li       |  
 |     |                       |  
 |     |                       |  
 |     |                       |  
 |     |                       |  
 |     |                       |  
 |     |                       |  
 |     .-----------------------.  
 |    /                       /   
 |   /                       /    
 |  /                       /     
 | /                       /      
 |/                       /       
 *-----------------------*        

Positions:
   0 Li     1.617037    1.617037   10.000000    ( 0.0000,  0.0000,  0.0000)
   1 Li     4.851111    1.617037   10.000000    ( 0.0000,  0.0000,  0.0000)
   2 Li     8.085185    1.617037   10.000000    ( 0.0000,  0.0000,  0.0000)
   3 Li     1.617037    4.851111   10.000000    ( 0.0000,  0.0000,  0.0000)
   4 Li     4.851111    4.851111   10.000000    ( 0.0000,  0.0000,  0.0000)
   5 Li     8.085185    4.851111   10.000000    ( 0.0000,  0.0000,  0.0000)
   6 Li     1.617037    8.085185   10.000000    ( 0.0000,  0.0000,  0.0000)
   7 Li     4.851111    8.085185   10.000000    ( 0.0000,  0.0000,  0.0000)
   8 Li     8.085185    8.085185   10.000000    ( 0.0000,  0.0000,  0.0000)
   9 Li     0.000000    0.000000   11.617037    ( 0.0000,  0.0000,  0.0000)
  10 Li     3.234074    0.000000   11.617037    ( 0.0000,  0.0000,  0.0000)
  11 Li     6.468148    0.000000   11.617037    ( 0.0000,  0.0000,  0.0000)
  12 Li     0.000000    3.234074   11.617037    ( 0.0000,  0.0000,  0.0000)
  13 Li     3.234074    3.234074   11.617037    ( 0.0000,  0.0000,  0.0000)
  14 Li     6.468148    3.234074   11.617037    ( 0.0000,  0.0000,  0.0000)
  15 Li     0.000000    6.468148   11.617037    ( 0.0000,  0.0000,  0.0000)
  16 Li     3.234074    6.468148   11.617037    ( 0.0000,  0.0000,  0.0000)
  17 Li     6.468148    6.468148   11.617037    ( 0.0000,  0.0000,  0.0000)
  18 Li     1.617044    1.617087   13.471042    ( 0.0000,  0.0000,  0.0000)
  19 Li     4.849907    1.616935   13.467786    ( 0.0000,  0.0000,  0.0000)
  20 Li     8.085773    1.617203   13.465135    ( 0.0000,  0.0000,  0.0000)
  21 Li     1.616587    4.851032   13.471008    ( 0.0000,  0.0000,  0.0000)
  22 Li     4.851875    4.850385   13.471196    ( 0.0000,  0.0000,  0.0000)
  23 Li     8.085022    4.850730   13.470663    ( 0.0000,  0.0000,  0.0000)
  24 Li     1.616808    8.085182   13.470557    ( 0.0000,  0.0000,  0.0000)
  25 Li     4.851750    8.085973   13.471188    ( 0.0000,  0.0000,  0.0000)
  26 Li     8.084968    8.085343   13.470698    ( 0.0000,  0.0000,  0.0000)
  27 Li     0.001596   -0.000592   15.446594    ( 0.0000,  0.0000,  0.0000)
  28 Li     3.233219   -0.000518   15.445130    ( 0.0000,  0.0000,  0.0000)
  29 Li     6.467633    0.000278   15.447114    ( 0.0000,  0.0000,  0.0000)
  30 Li     0.003336    3.235137   15.440184    ( 0.0000,  0.0000,  0.0000)
  31 Li     3.232946    3.234839   15.445078    ( 0.0000,  0.0000,  0.0000)
  32 Li     6.466006    3.231909   15.444574    ( 0.0000,  0.0000,  0.0000)
  33 Li     0.000013    6.468707   15.444368    ( 0.0000,  0.0000,  0.0000)
  34 Li     3.234354    6.467917   15.445867    ( 0.0000,  0.0000,  0.0000)
  35 Li     6.467751    6.468680   15.444288    ( 0.0000,  0.0000,  0.0000)
  36 O      8.168606    1.609683   18.575003    ( 0.0000,  0.0000,  0.0000)
  37 C      8.917895    2.819290   18.478548    ( 0.0000,  0.0000,  0.0000)
  38 C      8.081919    4.084792   18.440700    ( 0.0000,  0.0000,  0.0000)
  39 H      9.598002    2.800900   19.318894    ( 0.0000,  0.0000,  0.0000)
  40 H      9.516134    2.726219   17.561718    ( 0.0000,  0.0000,  0.0000)
  41 H      8.735563    4.959650   18.418991    ( 0.0000,  0.0000,  0.0000)
  42 H      7.434332    4.121342   17.560893    ( 0.0000,  0.0000,  0.0000)
  43 H      7.452412    4.154757   19.329829    ( 0.0000,  0.0000,  0.0000)
  44 H      7.480249    1.661123   19.232991    ( 0.0000,  0.0000,  0.0000)
  45 N      8.051357    1.582179   16.825608    ( 0.0000,  0.0000,  0.0000)
  46 N      6.928417    1.617739   16.870702    ( 0.0000,  0.0000,  0.0000)

Unit cell:
           periodic     x           y           z      points  spacing
  1. axis:    yes    9.702222    0.000000    0.000000    60     0.1617
  2. axis:    yes    0.000000    9.702222    0.000000    60     0.1617
  3. axis:    no     0.000000    0.000000   26.351111   164     0.1607

  Lengths:   9.702222   9.702222  26.351111
  Angles:   90.000000  90.000000  90.000000

Effective grid spacing dv^(1/3) = 0.1614

     iter     time        total  log10-change:
                         energy  eigst   dens
iter:   1 22:06:26  -305.199926  -0.90
iter:   2 22:06:33  -305.183862  -1.29  -1.81
iter:   3 22:06:40  -305.172557c -1.91  -1.90
iter:   4 22:06:47  -305.172895c -2.15  -2.37
Writing to output.gpw (mode='')

iter:   5 22:06:54  -305.168274c -2.05  -2.41
iter:   6 22:07:02  -305.167747c -2.16  -2.49
iter:   7 22:07:09  -305.169456c -2.68  -2.70
iter:   8 22:07:16  -305.169109c -2.88  -2.66
iter:   9 22:07:23  -305.167480c -3.09  -2.79
Writing to output.gpw (mode='')

iter:  10 22:07:30  -305.167861c -3.58  -3.04
iter:  11 22:07:37  -305.167835c -3.41  -3.09
iter:  12 22:07:45  -305.167858c -3.52  -3.12
iter:  13 22:07:52  -305.168103c -3.78  -3.12
iter:  14 22:07:59  -305.168023c -3.99  -3.19
Writing to output.gpw (mode='')

iter:  15 22:08:06  -305.168001c -3.82  -3.29
iter:  16 22:08:19  -305.167817c -4.20  -3.32
iter:  17 22:08:26  -305.167954c -4.11  -3.35
iter:  18 22:08:34  -305.167968c -4.65  -3.45
iter:  19 22:08:41  -305.168259c -4.25  -3.51
Writing to output.gpw (mode='')

iter:  20 22:08:48  -305.168040c -3.88  -3.26
iter:  21 22:08:55  -305.168011c -4.94  -3.73
iter:  22 22:09:02  -305.168007c -5.04  -3.87
iter:  23 22:09:09  -305.168013c -5.05  -4.03c
iter:  24 22:09:16  -305.168012c -5.05  -4.16c
Writing to output.gpw (mode='')

iter:  25 22:09:24  -305.168018c -5.30  -4.15c
iter:  26 22:09:34  -305.168004c -5.24  -4.30c
iter:  27 22:09:41  -305.168021c -5.71  -4.30c
iter:  28 22:09:48  -305.168018c -5.72  -4.35c
iter:  29 22:09:55  -305.168023c -5.65  -4.43c
Writing to output.gpw (mode='')

iter:  30 22:10:02  -305.168023c -6.16  -4.71c
iter:  31 22:10:09  -305.168023c -6.08  -4.74c
iter:  32 22:10:16  -305.168023c -6.06  -4.73c
iter:  33 22:10:23  -305.168019c -6.07  -4.71c
iter:  34 22:10:31  -305.168020c -6.34  -4.65c
Writing to output.gpw (mode='')

iter:  35 22:10:38  -305.168021c -6.15  -4.74c
iter:  36 22:10:45  -305.168021c -6.47  -4.75c
iter:  37 22:10:52  -305.168022c -6.41  -4.72c
iter:  38 22:10:59  -305.168025c -6.46  -4.76c
iter:  39 22:11:06  -305.168027c -6.54  -4.87c
Writing to output.gpw (mode='')

iter:  40 22:11:13  -305.168029c -6.82  -4.94c
iter:  41 22:11:21  -305.168027c -6.92  -4.97c
iter:  42 22:11:28  -305.168027c -7.15  -4.98c
iter:  43 22:11:35  -305.168027c -6.94  -4.98c
iter:  44 22:11:42  -305.168026c -7.13  -4.93c
Writing to output.gpw (mode='')

iter:  45 22:11:49  -305.168026c -7.25  -4.88c
iter:  46 22:11:56  -305.168026c -7.43c -4.90c

Converged after 46 iterations.

Dipole moment: (4.227958, -3.314740, 0.407916) |e|*Ang

Energy contributions relative to reference atoms: (reference = -14434.854043)

Kinetic:       +170.447728
Potential:     -157.708036
External:        +0.000000
XC:            -318.571379
Entropy (-ST):   -0.167326
Local:           +0.747324
--------------------------
Free energy:   -305.251689
Extrapolated:  -305.168026

Dipole-layer corrected work functions: 3.389934, 2.605780 eV

Showing only first 2 kpts
 Kpt  Band  Eigenvalues  Occupancy
  0    31     -3.24672    1.98631
  0    32     -3.08522    1.70320
  0    33     -2.89273    0.21771
  0    34     -2.77059    0.02101

  1    31     -3.04764    1.46043
  1    32     -2.98600    0.88201
  1    33     -2.95917    0.63137
  1    34     -2.89253    0.21694


Fermi level: -2.99786

No gap
Writing to output.gpw (mode='')


Forces in eV/Ang:
  0 Li    0.01555    0.00238   -0.26540
  1 Li   -0.01933    0.00110   -0.27893
  2 Li    0.00824   -0.00317   -0.28151
  3 Li    0.00099   -0.00165   -0.27396
  4 Li   -0.00095    0.01004   -0.27941
  5 Li   -0.00553    0.02507   -0.27296
  6 Li   -0.00278   -0.00089   -0.27770
  7 Li    0.00444   -0.01099   -0.27632
  8 Li   -0.00705   -0.02119   -0.27681
  9 Li    0.00567    0.00316    0.29051
 10 Li   -0.01727    0.00322    0.24770
 11 Li    0.00285    0.00911    0.32121
 12 Li    0.00695   -0.00368    0.29081
 13 Li   -0.01501   -0.00148    0.24108
 14 Li   -0.00003   -0.01248    0.32539
 15 Li   -0.01372   -0.00016    0.24286
 16 Li    0.01156   -0.00142    0.27091
 17 Li    0.00921    0.00225    0.22722
 18 Li    0.00058    0.00163    0.05299
 19 Li   -0.05049   -0.00459   -0.07660
 20 Li    0.02496    0.00591   -0.19039
 21 Li   -0.01792   -0.00284    0.05439
 22 Li    0.03312   -0.03007    0.06308
 23 Li   -0.00685   -0.01733    0.03986
 24 Li   -0.00903    0.00081    0.03600
 25 Li    0.02784    0.03332    0.06217
 26 Li   -0.00892    0.00854    0.04381
 27 Li    0.06097   -0.01886    0.02850
 28 Li   -0.03250   -0.02004   -0.03584
 29 Li   -0.02190   -0.00948    0.03259
 30 Li    0.14133    0.04476   -0.24194
 31 Li   -0.04467    0.02984   -0.03806
 32 Li   -0.09593   -0.07155   -0.07513
 33 Li   -0.00017    0.02519   -0.06649
 34 Li    0.01096   -0.00971   -0.00369
 35 Li   -0.01664    0.02319   -0.07116
 36 O     3.41445   -0.19551    5.75862
 37 C     0.68024    0.68512    1.24858
 38 C    -0.04859   -0.02796    0.22271
 39 H     0.45773    0.45056    0.24981
 40 H     0.16890    0.06330    0.56390
 41 H    -0.01514   -0.02344   -0.04813
 42 H     0.04293    0.12318    0.08654
 43 H    -0.06065    0.05206    0.06753
 44 H    -0.71463    0.20009    0.64869
 45 N    -0.01669   -1.36649   -5.06672
 46 N    -3.91146    0.06223   -3.34951

System changes: positions 

Initializing position-dependent things.

Density initialized from wave functions
       .-----------------------.  
      /|                       |  
     / |                       |  
    /  |                       |  
   /   |                       |  
  /    |                       |  
 *     |                       |  
 |     |                       |  
 |     |                       |  
 |     |                       |  
 |     |                       |  
 |     |                       |  
 |     |              H        |  
 |     Li      Li      LC H    |  
 |     |             HO  C     |  
 |   Li|     Li      Li   H    |  
 |     |                       |  
 | Li  |  LLi     LNi N   Li   |  
 |     |                       |  
 |     |Li      Li      Li     |  
 |   Li|     Li      Li        |  
 |    Li  Li  Li  Li  Li  Li   |  
 | Li  |   Li      Li          |  
 |     |Li      Li      Li     |  
 Li    | Li      Li            |  
 |    Li      Li      Li       |  
 |     |                       |  
 |     |                       |  
 |     |                       |  
 |     |                       |  
 |     |                       |  
 |     |                       |  
 |     .-----------------------.  
 |    /                       /   
 |   /                       /    
 |  /                       /     
 | /                       /      
 |/                       /       
 *-----------------------*        

Positions:
   0 Li     1.617037    1.617037   10.000000    ( 0.0000,  0.0000,  0.0000)
   1 Li     4.851111    1.617037   10.000000    ( 0.0000,  0.0000,  0.0000)
   2 Li     8.085185    1.617037   10.000000    ( 0.0000,  0.0000,  0.0000)
   3 Li     1.617037    4.851111   10.000000    ( 0.0000,  0.0000,  0.0000)
   4 Li     4.851111    4.851111   10.000000    ( 0.0000,  0.0000,  0.0000)
   5 Li     8.085185    4.851111   10.000000    ( 0.0000,  0.0000,  0.0000)
   6 Li     1.617037    8.085185   10.000000    ( 0.0000,  0.0000,  0.0000)
   7 Li     4.851111    8.085185   10.000000    ( 0.0000,  0.0000,  0.0000)
   8 Li     8.085185    8.085185   10.000000    ( 0.0000,  0.0000,  0.0000)
   9 Li     0.000000    0.000000   11.617037    ( 0.0000,  0.0000,  0.0000)
  10 Li     3.234074    0.000000   11.617037    ( 0.0000,  0.0000,  0.0000)
  11 Li     6.468148    0.000000   11.617037    ( 0.0000,  0.0000,  0.0000)
  12 Li     0.000000    3.234074   11.617037    ( 0.0000,  0.0000,  0.0000)
  13 Li     3.234074    3.234074   11.617037    ( 0.0000,  0.0000,  0.0000)
  14 Li     6.468148    3.234074   11.617037    ( 0.0000,  0.0000,  0.0000)
  15 Li     0.000000    6.468148   11.617037    ( 0.0000,  0.0000,  0.0000)
  16 Li     3.234074    6.468148   11.617037    ( 0.0000,  0.0000,  0.0000)
  17 Li     6.468148    6.468148   11.617037    ( 0.0000,  0.0000,  0.0000)
  18 Li     1.617085    1.617098   13.471475    ( 0.0000,  0.0000,  0.0000)
  19 Li     4.849414    1.616883   13.467065    ( 0.0000,  0.0000,  0.0000)
  20 Li     8.086020    1.617243   13.463260    ( 0.0000,  0.0000,  0.0000)
  21 Li     1.616422    4.851007   13.471540    ( 0.0000,  0.0000,  0.0000)
  22 Li     4.852208    4.850095   13.471808    ( 0.0000,  0.0000,  0.0000)
  23 Li     8.084961    4.850559   13.471015    ( 0.0000,  0.0000,  0.0000)
  24 Li     1.616723    8.085202   13.470917    ( 0.0000,  0.0000,  0.0000)
  25 Li     4.852037    8.086304   13.471796    ( 0.0000,  0.0000,  0.0000)
  26 Li     8.084886    8.085439   13.471121    ( 0.0000,  0.0000,  0.0000)
  27 Li     0.001978   -0.000603   15.447118    ( 0.0000,  0.0000,  0.0000)
  28 Li     3.232974   -0.000724   15.444743    ( 0.0000,  0.0000,  0.0000)
  29 Li     6.467562   -0.000308   15.447349    ( 0.0000,  0.0000,  0.0000)
  30 Li     0.004531    3.235458   15.438221    ( 0.0000,  0.0000,  0.0000)
  31 Li     3.232574    3.235126   15.444665    ( 0.0000,  0.0000,  0.0000)
  32 Li     6.465143    3.231675   15.443821    ( 0.0000,  0.0000,  0.0000)
  33 Li     0.000023    6.468964   15.443715    ( 0.0000,  0.0000,  0.0000)
  34 Li     3.234454    6.467830   15.445817    ( 0.0000,  0.0000,  0.0000)
  35 Li     6.467564    6.468892   15.443580    ( 0.0000,  0.0000,  0.0000)
  36 O      8.182790    1.603933   18.599564    ( 0.0000,  0.0000,  0.0000)
  37 C      8.920319    2.820265   18.486489    ( 0.0000,  0.0000,  0.0000)
  38 C      8.081854    4.085033   18.442629    ( 0.0000,  0.0000,  0.0000)
  39 H      9.605109    2.807751   19.322996    ( 0.0000,  0.0000,  0.0000)
  40 H      9.516707    2.726438   17.567172    ( 0.0000,  0.0000,  0.0000)
  41 H      8.735303    4.960080   18.418738    ( 0.0000,  0.0000,  0.0000)
  42 H      7.434990    4.122020   17.561930    ( 0.0000,  0.0000,  0.0000)
  43 H      7.451629    4.155448   19.330811    ( 0.0000,  0.0000,  0.0000)
  44 H      7.475566    1.665515   19.238506    ( 0.0000,  0.0000,  0.0000)
  45 N      8.042427    1.572694   16.787789    ( 0.0000,  0.0000,  0.0000)
  46 N      6.917877    1.618772   16.860617    ( 0.0000,  0.0000,  0.0000)

Unit cell:
           periodic     x           y           z      points  spacing
  1. axis:    yes    9.702222    0.000000    0.000000    60     0.1617
  2. axis:    yes    0.000000    9.702222    0.000000    60     0.1617
  3. axis:    no     0.000000    0.000000   26.351111   164     0.1607

  Lengths:   9.702222   9.702222  26.351111
  Angles:   90.000000  90.000000  90.000000

Effective grid spacing dv^(1/3) = 0.1614

     iter     time        total  log10-change:
                         energy  eigst   dens
iter:   1 22:12:05  -305.647372  -1.00
iter:   2 22:12:12  -305.644240  -1.58  -2.03
iter:   3 22:12:19  -305.642784c -2.03  -2.16
iter:   4 22:12:27  -305.642754c -2.25  -2.39
Writing to output.gpw (mode='')

iter:   5 22:12:34  -305.641411c -1.95  -2.48
iter:   6 22:12:41  -305.640436c -2.72  -2.62
iter:   7 22:12:48  -305.639556c -2.89  -2.70
iter:   8 22:12:55  -305.641132c -2.88  -2.78
iter:   9 22:13:03  -305.640408c -3.12  -2.87
Writing to output.gpw (mode='')

iter:  10 22:13:16  -305.640393c -3.31  -3.00
iter:  11 22:13:25  -305.639738c -3.35  -3.05
iter:  12 22:13:32  -305.640143c -3.68  -3.18
iter:  13 22:13:39  -305.640019c -3.95  -3.23
iter:  14 22:13:46  -305.639997c -3.80  -3.38
Writing to output.gpw (mode='')

iter:  15 22:13:53  -305.640004c -3.89  -3.49
iter:  16 22:14:01  -305.640003c -4.01  -3.25
iter:  17 22:14:08  -305.640005c -4.51  -3.53
iter:  18 22:14:15  -305.640073c -4.72  -3.56
iter:  19 22:14:22  -305.640080c -4.74  -3.46
Writing to output.gpw (mode='')

iter:  20 22:14:29  -305.640083c -4.72  -3.45
iter:  21 22:14:36  -305.640065c -4.88  -3.44
iter:  22 22:14:44  -305.640061c -4.66  -3.54
iter:  23 22:14:51  -305.640082c -4.83  -3.67
iter:  24 22:14:58  -305.640087c -5.10  -3.84
Writing to output.gpw (mode='')

iter:  25 22:15:05  -305.640065c -5.38  -4.07c
iter:  26 22:15:12  -305.640087c -5.57  -4.14c
iter:  27 22:15:20  -305.640061c -5.45  -4.12c
iter:  28 22:15:27  -305.640080c -5.54  -4.27c
iter:  29 22:15:34  -305.640074c -5.90  -4.41c
Writing to output.gpw (mode='')

iter:  30 22:15:41  -305.640069c -5.87  -4.44c
iter:  31 22:15:48  -305.640076c -5.97  -4.49c
iter:  32 22:15:56  -305.640077c -6.04  -4.63c
iter:  33 22:16:03  -305.640070c -6.10  -4.79c
iter:  34 22:16:10  -305.640074c -6.42  -4.85c
Writing to output.gpw (mode='')

iter:  35 22:16:17  -305.640075c -6.47  -5.04c
iter:  36 22:16:24  -305.640076c -6.44  -5.10c
iter:  37 22:16:32  -305.640076c -6.80  -5.13c
iter:  38 22:16:39  -305.640077c -6.67  -5.18c
iter:  39 22:16:46  -305.640076c -6.94  -5.33c
Writing to output.gpw (mode='')

iter:  40 22:16:53  -305.640076c -6.95  -5.38c
iter:  41 22:17:01  -305.640076c -7.14  -5.47c
iter:  42 22:17:08  -305.640075c -6.94  -5.46c
iter:  43 22:17:15  -305.640075c -7.26  -5.42c
iter:  44 22:17:22  -305.640075c -7.21  -5.41c
Writing to output.gpw (mode='')

iter:  45 22:17:29  -305.640075c -7.24  -5.42c
iter:  46 22:17:37  -305.640075c -7.34  -5.35c
iter:  47 22:17:44  -305.640076c -7.39  -5.38c
iter:  48 22:17:51  -305.640077c -7.56c -5.33c

Converged after 48 iterations.

Dipole moment: (3.998085, -3.234053, 0.375150) |e|*Ang

Energy contributions relative to reference atoms: (reference = -14434.854043)

Kinetic:       +167.901886
Potential:     -155.972762
External:        +0.000000
XC:            -318.235527
Entropy (-ST):   -0.167769
Local:           +0.750211
--------------------------
Free energy:   -305.723961
Extrapolated:  -305.640077

Dipole-layer corrected work functions: 3.392141, 2.670974 eV

Showing only first 2 kpts
 Kpt  Band  Eigenvalues  Occupancy
  0    31     -3.28041    1.98631
  0    32     -3.11447    1.68002
  0    33     -2.92744    0.22164
  0    34     -2.80074    0.01959

  1    31     -3.08268    1.47087
  1    32     -3.01953    0.88033
  1    33     -2.99324    0.63457
  1    34     -2.92088    0.19709


Fermi level: -3.03156

No gap
Writing to output.gpw (mode='')


Forces in eV/Ang:
  0 Li    0.01653    0.00199   -0.26538
  1 Li   -0.01935    0.00067   -0.27909
  2 Li    0.00773   -0.00311   -0.28135
  3 Li    0.00054   -0.00098   -0.27478
  4 Li   -0.00142    0.00993   -0.27959
  5 Li   -0.00564    0.02544   -0.27349
  6 Li   -0.00294   -0.00151   -0.27823
  7 Li    0.00348   -0.01105   -0.27672
  8 Li   -0.00714   -0.02151   -0.27688
  9 Li    0.00537    0.00338    0.29079
 10 Li   -0.01777    0.00279    0.24642
 11 Li    0.00266    0.00924    0.32208
 12 Li    0.00669   -0.00378    0.29121
 13 Li   -0.01569   -0.00091    0.24061
 14 Li   -0.00065   -0.01241    0.32594
 15 Li   -0.01346   -0.00087    0.24312
 16 Li    0.01252   -0.00093    0.26968
 17 Li    0.01014    0.00190    0.22752
 18 Li    0.00256    0.00112    0.04720
 19 Li   -0.05000   -0.00477   -0.07250
 20 Li    0.02384    0.00450   -0.18085
 21 Li   -0.01653   -0.00267    0.05336
 22 Li    0.03307   -0.02863    0.06165
 23 Li   -0.00650   -0.01672    0.03677
 24 Li   -0.00863    0.00216    0.03646
 25 Li    0.02816    0.03242    0.06051
 26 Li   -0.00822    0.00888    0.04294
 27 Li    0.04208   -0.00399    0.04140
 28 Li   -0.02788   -0.01933   -0.03657
 29 Li   -0.01071   -0.01952    0.03482
 30 Li    0.12797    0.03617   -0.21928
 31 Li   -0.04027    0.02807   -0.03904
 32 Li   -0.08691   -0.05974   -0.06946
 33 Li    0.00042    0.02571   -0.06532
 34 Li    0.00987   -0.00930   -0.00455
 35 Li   -0.01737    0.02254   -0.07125
 36 O     2.82694   -0.21508    4.96778
 37 C     0.56967    0.49751    1.10615
 38 C    -0.03585   -0.04988    0.21806
 39 H     0.47750    0.50271    0.24890
 40 H     0.12586    0.03155    0.53846
 41 H    -0.01653   -0.01780   -0.03431
 42 H     0.04832    0.09699    0.09298
 43 H    -0.06663    0.06345    0.07635
 44 H    -0.55015    0.23201    0.54213
 45 N    -0.15413   -1.26151   -4.58446
 46 N    -3.22248    0.06854   -2.73899

System changes: positions 

Initializing position-dependent things.

Density initialized from wave functions
       .-----------------------.  
      /|                       |  
     / |                       |  
    /  |                       |  
   /   |                       |  
  /    |                       |  
 *     |                       |  
 |     |                       |  
 |     |                       |  
 |     |                       |  
 |     |                       |  
 |     |                       |  
 |     |              H        |  
 |     Li      Li      LC HH   |  
 |     |             HO  C     |  
 |   Li|     Li      Li   H    |  
 |     |                       |  
 | Li  |  LLi     LNi N   Li   |  
 |     |                       |  
 |     |Li      Li      Li     |  
 |   Li|     Li      Li        |  
 |    Li  Li  Li  Li  Li  Li   |  
 | Li  |   Li      Li          |  
 |     |Li      Li      Li     |  
 Li    | Li      Li            |  
 |    Li      Li      Li       |  
 |     |                       |  
 |     |                       |  
 |     |                       |  
 |     |                       |  
 |     |                       |  
 |     |                       |  
 |     .-----------------------.  
 |    /                       /   
 |   /                       /    
 |  /                       /     
 | /                       /      
 |/                       /       
 *-----------------------*        

Positions:
   0 Li     1.617037    1.617037   10.000000    ( 0.0000,  0.0000,  0.0000)
   1 Li     4.851111    1.617037   10.000000    ( 0.0000,  0.0000,  0.0000)
   2 Li     8.085185    1.617037   10.000000    ( 0.0000,  0.0000,  0.0000)
   3 Li     1.617037    4.851111   10.000000    ( 0.0000,  0.0000,  0.0000)
   4 Li     4.851111    4.851111   10.000000    ( 0.0000,  0.0000,  0.0000)
   5 Li     8.085185    4.851111   10.000000    ( 0.0000,  0.0000,  0.0000)
   6 Li     1.617037    8.085185   10.000000    ( 0.0000,  0.0000,  0.0000)
   7 Li     4.851111    8.085185   10.000000    ( 0.0000,  0.0000,  0.0000)
   8 Li     8.085185    8.085185   10.000000    ( 0.0000,  0.0000,  0.0000)
[...]
iter:  23 11:07:34  -310.009382c -7.17  -4.89c
iter:  24 11:07:41  -310.009382c -7.39  -4.96c
Writing to output.gpw (mode='')

iter:  25 11:07:49  -310.009382c -7.47c -5.07c

Converged after 25 iterations.

Dipole moment: (1.816464, -2.310811, -0.105717) |e|*Ang

Energy contributions relative to reference atoms: (reference = -14434.854043)

Kinetic:       +147.195589
Potential:     -139.609850
External:        +0.000000
XC:            -318.296442
Entropy (-ST):   -0.161595
Local:           +0.782119
--------------------------
Free energy:   -310.090179
Extrapolated:  -310.009382

Dipole-layer corrected work functions: 3.406640, 3.609864 eV

Showing only first 2 kpts
 Kpt  Band  Eigenvalues  Occupancy
  0    31     -3.74224    1.98161
  0    32     -3.54632    1.36328
  0    33     -3.47175    0.65037
  0    34     -3.29833    0.02959

  1    31     -3.74521    1.98266
  1    32     -3.67270    1.92810
  1    33     -3.44914    0.46932
  1    34     -3.25692    0.01304


Fermi level: -3.50825

No gap

Forces in eV/Ang:
  0 Li   -0.00212    0.01065   -0.29110
  1 Li    0.01073   -0.01147   -0.29562
  2 Li    0.00256   -0.00175   -0.25440
  3 Li    0.01255    0.00985   -0.29144
  4 Li   -0.01256    0.01471   -0.28571
  5 Li    0.01222   -0.00573   -0.29567
  6 Li    0.01719   -0.01588   -0.28375
  7 Li   -0.00366   -0.00802   -0.29253
  8 Li   -0.00795    0.00801   -0.29249
  9 Li   -0.05518    0.02621    0.25759
 10 Li   -0.03825   -0.00268    0.27075
 11 Li    0.01308    0.02252    0.32129
 12 Li   -0.04905   -0.04007    0.34629
 13 Li   -0.00661   -0.02148    0.30071
 14 Li    0.01927   -0.04491    0.29020
 15 Li   -0.03154    0.02288    0.28535
 16 Li   -0.01103    0.01440    0.28066
 17 Li    0.00431    0.00812    0.29169
 18 Li   -0.00074    0.00475   -0.00124
 19 Li    0.01240    0.00764    0.01420
 20 Li   -0.00249   -0.00432   -0.01174
 21 Li    0.00723    0.01124   -0.00204
 22 Li   -0.00491    0.00652   -0.00761
 23 Li   -0.00288    0.00161   -0.01471
 24 Li    0.01992    0.00422    0.00240
 25 Li   -0.00802   -0.00417   -0.01146
 26 Li    0.00070   -0.00694   -0.00076
 27 Li   -0.00069    0.00676   -0.01525
 28 Li    0.01939    0.00009   -0.01251
 29 Li    0.01560    0.00863    0.00333
 30 Li    0.02326   -0.00301    0.01282
 31 Li    0.00033   -0.01631    0.00665
 32 Li    0.01761   -0.01995   -0.00214
 33 Li   -0.00260    0.00111   -0.00039
 34 Li   -0.00094    0.00255   -0.00987
 35 Li    0.00040    0.00056   -0.00525
 36 O     0.02654    0.05447    0.01482
 37 C    -0.02710   -0.02859    0.00401
 38 C     0.03131    0.02239   -0.02611
 39 H    -0.00274    0.00585    0.01995
 40 H     0.00830   -0.01993    0.00961
 41 H    -0.01992   -0.01430    0.00851
 42 H     0.01268   -0.00200    0.02455
 43 H    -0.01274   -0.00363    0.01397
 44 H    -0.01446   -0.02259   -0.01393
 45 N    -0.04133    0.01996    0.01774
 46 N     0.00410    0.00084   -0.01612

System changes: positions 

Initializing position-dependent things.

Density initialized from wave functions
       .-----------------------.  
      /|                       |  
     / |                       |  
    /  |                       |  
   /   |                       |  
  /    |                       |  
 *     |                       |  
 |     |                       |  
 |     |                       |  
 |     |                       |  
 |     |                       |  
 |     |              H   H    |  
 | H   |                C      |  
 |     |      Li      LH  C    |  
 | H   |               O       |  
 |   Li|     Li      LH        |  
 |     |                       |  
 | Li  |  LLi     LLi     Li   |  
 |     |            N  N       |  
 |     |Li      Li      Li     |  
 |   Li|     Li      Li        |  
 |    Li  Li  Li  Li  Li  Li   |  
 | Li  |   Li      Li          |  
 |     |Li      Li      Li     |  
 Li    | Li      Li            |  
 |    Li      Li      Li       |  
 |     |                       |  
 |     |                       |  
 |     |                       |  
 |     |                       |  
 |     |                       |  
 |     |                       |  
 |     .-----------------------.  
 |    /                       /   
 |   /                       /    
 |  /                       /     
 | /                       /      
 |/                       /       
 *-----------------------*        

Positions:
   0 Li     1.617037    1.617037   10.000000    ( 0.0000,  0.0000,  0.0000)
   1 Li     4.851111    1.617037   10.000000    ( 0.0000,  0.0000,  0.0000)
   2 Li     8.085185    1.617037   10.000000    ( 0.0000,  0.0000,  0.0000)
   3 Li     1.617037    4.851111   10.000000    ( 0.0000,  0.0000,  0.0000)
   4 Li     4.851111    4.851111   10.000000    ( 0.0000,  0.0000,  0.0000)
   5 Li     8.085185    4.851111   10.000000    ( 0.0000,  0.0000,  0.0000)
   6 Li     1.617037    8.085185   10.000000    ( 0.0000,  0.0000,  0.0000)
   7 Li     4.851111    8.085185   10.000000    ( 0.0000,  0.0000,  0.0000)
   8 Li     8.085185    8.085185   10.000000    ( 0.0000,  0.0000,  0.0000)
   9 Li     0.000000    0.000000   11.617037    ( 0.0000,  0.0000,  0.0000)
  10 Li     3.234074    0.000000   11.617037    ( 0.0000,  0.0000,  0.0000)
  11 Li     6.468148    0.000000   11.617037    ( 0.0000,  0.0000,  0.0000)
  12 Li     0.000000    3.234074   11.617037    ( 0.0000,  0.0000,  0.0000)
  13 Li     3.234074    3.234074   11.617037    ( 0.0000,  0.0000,  0.0000)
  14 Li     6.468148    3.234074   11.617037    ( 0.0000,  0.0000,  0.0000)
  15 Li     0.000000    6.468148   11.617037    ( 0.0000,  0.0000,  0.0000)
  16 Li     3.234074    6.468148   11.617037    ( 0.0000,  0.0000,  0.0000)
  17 Li     6.468148    6.468148   11.617037    ( 0.0000,  0.0000,  0.0000)
  18 Li     1.567411    1.635080   13.509676    ( 0.0000,  0.0000,  0.0000)
  19 Li     4.811283    1.555205   13.501142    ( 0.0000,  0.0000,  0.0000)
  20 Li     8.049642    1.574949   13.594347    ( 0.0000,  0.0000,  0.0000)
  21 Li     1.643686    4.895285   13.481436    ( 0.0000,  0.0000,  0.0000)
  22 Li     4.903970    4.797520   13.492183    ( 0.0000,  0.0000,  0.0000)
  23 Li     8.115448    4.855417   13.499640    ( 0.0000,  0.0000,  0.0000)
  24 Li     1.520322    8.152642   13.504190    ( 0.0000,  0.0000,  0.0000)
  25 Li     4.785208    8.054155   13.505427    ( 0.0000,  0.0000,  0.0000)
  26 Li     8.026370    8.112883   13.532437    ( 0.0000,  0.0000,  0.0000)
  27 Li    -0.342004    0.260421   15.706537    ( 0.0000,  0.0000,  0.0000)
  28 Li     2.991141   -0.061568   15.490527    ( 0.0000,  0.0000,  0.0000)
  29 Li     6.248300   -0.107521   15.531608    ( 0.0000,  0.0000,  0.0000)
  30 Li     0.049230    3.353146   15.406251    ( 0.0000,  0.0000,  0.0000)
  31 Li     3.323664    3.299169   15.416903    ( 0.0000,  0.0000,  0.0000)
  32 Li     6.631716    3.009433   15.483272    ( 0.0000,  0.0000,  0.0000)
  33 Li     0.057043    6.625500   15.453516    ( 0.0000,  0.0000,  0.0000)
  34 Li     3.239976    6.467175   15.462361    ( 0.0000,  0.0000,  0.0000)
  35 Li     6.411592    6.340735   15.445785    ( 0.0000,  0.0000,  0.0000)
  36 O      8.472335    1.656657   18.902701    ( 0.0000,  0.0000,  0.0000)
  37 C      9.213657    2.874192   19.063410    ( 0.0000,  0.0000,  0.0000)
  38 C      8.321338    4.106158   19.163610    ( 0.0000,  0.0000,  0.0000)
  39 H      9.793186    2.740964   19.979882    ( 0.0000,  0.0000,  0.0000)
  40 H      9.934283    2.995310   18.239716    ( 0.0000,  0.0000,  0.0000)
  41 H      8.928067    5.006392   19.299113    ( 0.0000,  0.0000,  0.0000)
  42 H      7.736963    4.240567   18.247240    ( 0.0000,  0.0000,  0.0000)
  43 H      7.630294    4.022644   20.004644    ( 0.0000,  0.0000,  0.0000)
  44 H      8.024248    1.694885   18.048132    ( 0.0000,  0.0000,  0.0000)
  45 N      8.443962    2.079956   15.581930    ( 0.0000,  0.0000,  0.0000)
  46 N      7.540906    1.192040   15.620671    ( 0.0000,  0.0000,  0.0000)

Unit cell:
           periodic     x           y           z      points  spacing
  1. axis:    yes    9.702222    0.000000    0.000000    60     0.1617
  2. axis:    yes    0.000000    9.702222    0.000000    60     0.1617
  3. axis:    no     0.000000    0.000000   26.351111   164     0.1607

  Lengths:   9.702222   9.702222  26.351111
  Angles:   90.000000  90.000000  90.000000

Effective grid spacing dv^(1/3) = 0.1614

     iter     time        total  log10-change:
                         energy  eigst   dens
iter:   1 11:07:57  -310.010521  -1.92
iter:   2 11:08:05  -310.010604  -2.69  -2.57
iter:   3 11:08:19  -310.010431c -3.22  -2.67
iter:   4 11:08:26  -310.010255c -3.54  -2.75
Writing to output.gpw (mode='')

iter:   5 11:08:33  -310.010072c -3.21  -2.88
iter:   6 11:08:40  -310.010120c -3.26  -3.12
iter:   7 11:08:47  -310.010040c -4.27  -3.13
iter:   8 11:08:55  -310.010053c -3.87  -3.35
iter:   9 11:09:02  -310.010014c -4.61  -3.34
Writing to output.gpw (mode='')

iter:  10 11:09:09  -310.010004c -4.50  -3.60
iter:  11 11:09:17  -310.010004c -5.01  -3.72
iter:  12 11:09:24  -310.010007c -5.45  -3.78
iter:  13 11:09:31  -310.010020c -5.08  -3.84
iter:  14 11:09:38  -310.010017c -5.81  -3.97
Writing to output.gpw (mode='')

iter:  15 11:09:46  -310.010015c -6.09  -4.06c
iter:  16 11:09:53  -310.010012c -6.03  -4.19c
iter:  17 11:10:00  -310.010014c -6.20  -4.36c
iter:  18 11:10:07  -310.010013c -6.56  -4.38c
iter:  19 11:10:15  -310.010013c -6.47  -4.43c
Writing to output.gpw (mode='')

iter:  20 11:10:22  -310.010013c -6.63  -4.54c
iter:  21 11:10:29  -310.010013c -6.92  -4.80c
iter:  22 11:10:36  -310.010013c -6.93  -4.85c
iter:  23 11:10:44  -310.010013c -7.11  -4.90c
iter:  24 11:10:51  -310.010013c -7.24  -5.00c
Writing to output.gpw (mode='')

iter:  25 11:10:58  -310.010013c -7.46c -5.06c

Converged after 25 iterations.

Dipole moment: (1.764791, -2.335254, -0.106875) |e|*Ang

Energy contributions relative to reference atoms: (reference = -14434.854043)

Kinetic:       +147.136331
Potential:     -139.558497
External:        +0.000000
XC:            -318.289090
Entropy (-ST):   -0.161655
Local:           +0.782070
--------------------------
Free energy:   -310.090841
Extrapolated:  -310.010013

Dipole-layer corrected work functions: 3.406676, 3.612126 eV

Showing only first 2 kpts
 Kpt  Band  Eigenvalues  Occupancy
  0    31     -3.74335    1.98159
  0    32     -3.54707    1.35979
  0    33     -3.47311    0.65226
  0    34     -3.29939    0.02954

  1    31     -3.74585    1.98249
  1    32     -3.67461    1.92914
  1    33     -3.45012    0.46808
  1    34     -3.25751    0.01289


Fermi level: -3.50940

No gap

Forces in eV/Ang:
  0 Li   -0.00236    0.01077   -0.29112
  1 Li    0.01092   -0.01141   -0.29566
  2 Li    0.00241   -0.00173   -0.25420
  3 Li    0.01218    0.00927   -0.29127
  4 Li   -0.01263    0.01445   -0.28574
  5 Li    0.01238   -0.00584   -0.29572
  6 Li    0.01710   -0.01584   -0.28350
  7 Li   -0.00395   -0.00832   -0.29256
  8 Li   -0.00796    0.00834   -0.29255
  9 Li   -0.05312    0.02715    0.25598
 10 Li   -0.03684    0.00155    0.27334
 11 Li    0.01202    0.02169    0.32244
 12 Li   -0.04980   -0.04068    0.34412
 13 Li   -0.00663   -0.02162    0.29951
 14 Li    0.02147   -0.04353    0.28953
 15 Li   -0.03073    0.02196    0.28679
 16 Li   -0.01286    0.01348    0.28048
 17 Li    0.00742    0.00744    0.29508
 18 Li    0.00182    0.00025   -0.00049
 19 Li    0.00527    0.00098    0.00801
 20 Li    0.00429    0.00220   -0.01756
 21 Li    0.00791    0.01623   -0.00096
 22 Li   -0.00468    0.00602   -0.00472
 23 Li   -0.00559    0.00449   -0.01851
 24 Li    0.01874    0.00149    0.00334
 25 Li   -0.00386   -0.00172   -0.01135
 26 Li   -0.00399   -0.00922   -0.00225
 27 Li   -0.01182    0.01899   -0.01695
 28 Li    0.01660    0.00210   -0.01412
 29 Li    0.01462    0.00068    0.00476
 30 Li    0.01867   -0.00691    0.01117
 31 Li    0.00233   -0.01455    0.00687
 32 Li    0.00654   -0.00330    0.00129
 33 Li    0.00099   -0.00145   -0.00213
 34 Li   -0.00200    0.00169   -0.01016
 35 Li   -0.00041   -0.00118   -0.00469
 36 O     0.01849    0.03094    0.01351
 37 C    -0.00056   -0.00043    0.00063
 38 C     0.01846    0.00702    0.00810
 39 H    -0.03620    0.00961    0.00490
 40 H    -0.01219   -0.01504    0.01282
 41 H     0.00083    0.00314    0.00624
 42 H     0.00852   -0.00747    0.01467
 43 H     0.00764   -0.01065   -0.01047
 44 H    -0.00879   -0.00701   -0.00007
 45 N    -0.01105    0.01371    0.02051
 46 N     0.00879    0.00441   -0.01853

Timing:                                      incl.     excl.
-------------------------------------------------------------------
Density initialized from wave functions:    11.854    11.849   0.0% |
 Symmetrize density:                         0.005     0.005   0.0% |
Forces:                                     81.754    81.754   0.2% |
Hamiltonian:                              1097.847     0.025   0.0% |
 Atomic:                                     0.044     0.043   0.0% |
  XC Correction:                             0.000     0.000   0.0% |
 Calculate atomic Hamiltonians:              0.077     0.077   0.0% |
 Communicate:                               14.174    14.174   0.0% |
 Hartree integrate/restrict:                 4.207     4.207   0.0% |
 Initialize Hamiltonian:                     0.000     0.000   0.0% |
 Poisson:                                   51.255    18.380   0.0% |
  Communicate from 1D:                       5.093     5.093   0.0% |
  Communicate from 2D:                       5.369     5.369   0.0% |
  Communicate to 1D:                         2.828     2.828   0.0% |
  Communicate to 2D:                         6.123     6.123   0.0% |
  FFT 1D:                                    7.120     7.120   0.0% |
  FFT 2D:                                    6.343     6.343   0.0% |
 XC 3D grid:                              1027.195   154.950   0.3% |
  VdW-DF integral:                         872.245     7.275   0.0% |
   Convolution:                             78.142    78.142   0.2% |
   FFT:                                     34.352    34.352   0.1% |
   gather:                                 313.629   313.629   0.6% |
   hmm1:                                    27.924    27.924   0.1% |
   hmm2:                                    36.633    36.633   0.1% |
   iFFT:                                    35.071    35.071   0.1% |
   potential:                              335.543     9.218   0.0% |
    collect:                                51.347    51.347   0.1% |
    p1:                                    150.031   150.031   0.3% |
    p2:                                     55.734    55.734   0.1% |
    sum:                                    69.213    69.213   0.1% |
   splines:                                  3.677     3.677   0.0% |
 vbar:                                       0.870     0.870   0.0% |
LCAO initialization:                         1.077     0.183   0.0% |
 LCAO eigensolver:                           0.236     0.000   0.0% |
  Calculate projections:                     0.000     0.000   0.0% |
  DenseAtomicCorrection:                     0.000     0.000   0.0% |
  Distribute overlap matrix:                 0.223     0.223   0.0% |
  Orbital Layouts:                           0.012     0.012   0.0% |
  Potential matrix:                          0.001     0.001   0.0% |
  Sum over cells:                            0.001     0.001   0.0% |
 LCAO to grid:                               0.536     0.536   0.0% |
 Set positions (LCAO WFS):                   0.122     0.078   0.0% |
  Basic WFS set positions:                   0.001     0.001   0.0% |
  Basis functions set positions:             0.000     0.000   0.0% |
  P tci:                                     0.000     0.000   0.0% |
  ST tci:                                    0.012     0.012   0.0% |
  mktci:                                     0.031     0.031   0.0% |
Redistribute:                                0.123     0.123   0.0% |
SCF-cycle:                               47882.518   834.331   1.7% ||
 Davidson:                               11986.378  3612.188   7.3% |--|
  Apply hamiltonian:                       740.686   740.686   1.5% ||
  Subspace diag:                          2221.663     0.825   0.0% |
   calc_h_matrix:                         1089.299   332.820   0.7% |
    Apply hamiltonian:                     756.478   756.478   1.5% ||
   diagonalize:                            131.517   131.517   0.3% |
   rotate_psi:                            1000.023  1000.023   2.0% ||
  calc. matrices:                         3762.574  1895.106   3.8% |-|
   Apply hamiltonian:                     1867.468  1867.468   3.8% |-|
  diagonalize:                              33.789    33.789   0.1% |
  rotate_psi:                             1615.478  1615.478   3.3% ||
 Density:                                  242.685     0.158   0.0% |
  Atomic density matrices:                  29.927    29.927   0.1% |
  Mix:                                     104.404   104.404   0.2% |
  Multipole moments:                        17.267    17.267   0.0% |
  Pseudo density:                           90.930    90.792   0.2% |
   Symmetrize density:                       0.138     0.138   0.0% |
 Hamiltonian:                            34783.834     0.792   0.0% |
  Atomic:                                    1.587     1.569   0.0% |
   XC Correction:                            0.017     0.017   0.0% |
  Calculate atomic Hamiltonians:             2.520     2.520   0.0% |
  Communicate:                             523.950   523.950   1.1% |
  Hartree integrate/restrict:              137.129   137.129   0.3% |
  Poisson:                                1621.085   590.970   1.2% |
   Communicate from 1D:                    158.344   158.344   0.3% |
   Communicate from 2D:                    170.201   170.201   0.3% |
   Communicate to 1D:                       90.604    90.604   0.2% |
   Communicate to 2D:                      199.650   199.650   0.4% |
   FFT 1D:                                 209.662   209.662   0.4% |
   FFT 2D:                                 201.654   201.654   0.4% |
  XC 3D grid:                            32469.696  4930.353  10.0% |---|
   VdW-DF integral:                      27539.343   232.990   0.5% |
    Convolution:                          2498.711  2498.711   5.1% |-|
    FFT:                                  1087.817  1087.817   2.2% ||
    gather:                               9789.735  9789.735  19.9% |-------|
    hmm1:                                  892.310   892.310   1.8% ||
    hmm2:                                 1172.132  1172.132   2.4% ||
    iFFT:                                 1120.120  1120.120   2.3% ||
    potential:                           10745.459   296.950   0.6% |
     collect:                             1667.446  1667.446   3.4% ||
     p1:                                  4783.116  4783.116   9.7% |---|
     p2:                                  1781.822  1781.822   3.6% ||
     sum:                                 2216.125  2216.125   4.5% |-|
    splines:                                 0.067     0.067   0.0% |
  vbar:                                     27.076    27.076   0.1% |
 Orthonormalize:                            35.290     0.028   0.0% |
  calc_s_matrix:                             4.770     4.770   0.0% |
  inverse-cholesky:                         11.843    11.843   0.0% |
  projections:                               0.004     0.004   0.0% |
  rotate_psi_s:                             18.646    18.646   0.0% |
Set symmetry:                                0.003     0.003   0.0% |
Other:                                     217.330   217.330   0.4% |
-------------------------------------------------------------------
Total:                                             49292.505 100.0%

Memory usage: 1.11 GiB
Date: Thu Mar  9 11:10:59 2023
