
  ___ ___ ___ _ _ _  
 |   |   |_  | | | | 
 | | | | | . | | | | 
 |__ |  _|___|_____|  22.8.0
 |___|_|             

User:   vazumah@d014
Date:   Sat Mar  4 10:23:30 2023
Arch:   x86_64
Pid:    10514
CWD:    /home/vazumah/Research_Projects/LiMEAS/LiNRR_proton_donors/N2_with_proton_donor/Li_BCC_100/adsorbates/CH3CH2OH_z/bridge/8.085_1.617/N2_y/barrier/7.86_3.16_15.62
Python: 3.10.6
gpaw:   /home/vazumah/anaconda3/envs/NAME/lib/python3.10/site-packages/gpaw
_gpaw:  /home/vazumah/anaconda3/envs/NAME/lib/python3.10/site-packages/
        _gpaw.cpython-310-x86_64-linux-gnu.so
ase:    /home/vazumah/anaconda3/envs/NAME/lib/python3.10/site-packages/ase (version 3.22.1)
numpy:  /home/vazumah/anaconda3/envs/NAME/lib/python3.10/site-packages/numpy (version 1.23.3)
scipy:  /home/vazumah/anaconda3/envs/NAME/lib/python3.10/site-packages/scipy (version 1.9.1)
libxc:  5.2.3
units:  Angstrom and eV
cores: 32
OpenMP: True
OMP_NUM_THREADS: 1

Input parameters:
  h: 0.16
  kpts: {size: [4, 4, 1]}
  occupations: {name: fermi-dirac,
                width: 0.05}
  poissonsolver: {dipolelayer: xy}
  xc: BEEF-vdW

System changes: positions, numbers, cell, pbc, initial_charges, initial_magmoms 

Initialize ...

species:
  Li:
    name: Lithium
    id: 830b4218f175192f93f959cfc0aad614
    Z: 3.0
    valence: 1
    core: 2
    charge: 0.0
    file: /home/vazumah/anaconda3/envs/NAME/share/gpaw/Li.PBE.gz
    compensation charges: {type: gauss,
                           rc: 0.33,
                           lmax: 2}
    cutoffs: {filter: 1.91,
              core: 2.55}
    valence states:
      #              energy  rcut
      - 2s(1.00)    -2.874   1.058
      - 2p(0.00)    -1.090   1.058
      -  s          24.337   1.058
  
    # Using partial waves for Li as LCAO basis

  O:
    name: Oxygen
    id: 32ecd46bf208036f09c70b0ec9a88b78
    Z: 8.0
    valence: 6
    core: 2
    charge: 0.0
    file: /home/vazumah/anaconda3/envs/NAME/share/gpaw/O.PBE.gz
    compensation charges: {type: gauss,
                           rc: 0.21,
                           lmax: 2}
    cutoffs: {filter: 1.17,
              core: 0.83}
    valence states:
      #              energy  rcut
      - 2s(2.00)   -23.961   0.688
      - 2p(4.00)    -9.029   0.598
      -  s           3.251   0.688
      -  p          18.182   0.598
      -  d           0.000   0.619
  
    # Using partial waves for O as LCAO basis

  C:
    name: Carbon
    id: 4aa54d4b901d75f77cc0ea3eec22967b
    Z: 6.0
    valence: 4
    core: 2
    charge: 0.0
    file: /home/vazumah/anaconda3/envs/NAME/share/gpaw/C.PBE.gz
    compensation charges: {type: gauss,
                           rc: 0.20,
                           lmax: 2}
    cutoffs: {filter: 1.14,
              core: 1.14}
    valence states:
      #              energy  rcut
      - 2s(2.00)   -13.751   0.635
      - 2p(2.00)    -5.284   0.635
      -  s          13.461   0.635
      -  p          21.927   0.635
      -  d           0.000   0.635
  
    # Using partial waves for C as LCAO basis

  H:
    name: Hydrogen
    id: d65de229564ff8ea4db303e23b6d1ecf
    Z: 1.0
    valence: 1
    core: 0
    charge: 0.0
    file: /home/vazumah/anaconda3/envs/NAME/share/gpaw/H.PBE.gz
    compensation charges: {type: gauss,
                           rc: 0.15,
                           lmax: 2}
    cutoffs: {filter: 0.85,
              core: 0.53}
    valence states:
      #              energy  rcut
      - 1s(1.00)    -6.494   0.476
      -  s          20.717   0.476
      -  p           0.000   0.476
  
    # Using partial waves for H as LCAO basis

  N:
    name: Nitrogen
    id: f7500608b86eaa90eef8b1d9a670dc53
    Z: 7.0
    valence: 5
    core: 2
    charge: 0.0
    file: /home/vazumah/anaconda3/envs/NAME/share/gpaw/N.PBE.gz
    compensation charges: {type: gauss,
                           rc: 0.18,
                           lmax: 2}
    cutoffs: {filter: 1.11,
              core: 0.96}
    valence states:
      #              energy  rcut
      - 2s(2.00)   -18.583   0.603
      - 2p(3.00)    -7.089   0.529
      -  s           8.629   0.603
      -  p          20.123   0.529
      -  d           0.000   0.577
  
    # Using partial waves for N as LCAO basis

Reference energy: -14434.854043  # eV

Spin-paired calculation

Convergence criteria:
 Maximum [total energy] change in last 3 cyles: 0.0005 eV / electron
 Maximum integral of absolute [dens]ity change: 0.0001 electrons / valence electron
 Maximum integral of absolute [eigenst]ate change: 4e-08 eV^2 / valence electron
 Maximum number of scf [iter]ations: 333
 (Square brackets indicate name in SCF output, whereas a 'c' in
 the SCF output indicates the quantity has converged.)

Symmetries present (total): 1

  ( 1  0  0)
  ( 0  1  0)
  ( 0  0  1)

16 k-points: 4 x 4 x 1 Monkhorst-Pack grid
8 k-points in the irreducible part of the Brillouin zone
       k-points in crystal coordinates                weights
   0:     0.12500000   -0.37500000    0.00000000          2/16
   1:     0.12500000   -0.12500000    0.00000000          2/16
   2:     0.12500000    0.12500000    0.00000000          2/16
   3:     0.12500000    0.37500000    0.00000000          2/16
   4:     0.37500000   -0.37500000    0.00000000          2/16
   5:     0.37500000   -0.12500000    0.00000000          2/16
   6:     0.37500000    0.12500000    0.00000000          2/16
   7:     0.37500000    0.37500000    0.00000000          2/16

Wave functions: Uniform real-space grid
  Kinetic energy operator: 6*3+1=19 point O(h^6) finite-difference Laplacian
  ScaLapack parameters: grid=1x1, blocksize=None
  Wavefunction extrapolation:
    Improved wavefunction reuse through dual PAW basis 

Occupation numbers: Fermi-Dirac:
  width: 0.0500  # eV
 

Eigensolver
   Davidson(niter=2) 

Densities:
  Coarse grid: 60*60*156 grid
  Fine grid: 120*120*312 grid
  Total Charge: 0.000000 

Density mixing:
  Method: separate
  Backend: pulay
  Linear mixing parameter: 0.05
  old densities: 5
  Damping of long wavelength oscillations: 50 

Hamiltonian:
  XC and Coulomb potentials evaluated on a 120*120*312 grid
  Using the BEEF-vdW Exchange-Correlation functional
  Interpolation: tri-quintic (5. degree polynomial)
  Poisson solver: FastPoissonSolver using
    Stencil: 6*3+1=19 point O(h^6) finite-difference Laplacian
    FFT axes: [0, 1]
    FST axes: [2]

Dipole correction along z-axis 

XC parameters: BEEF-vdW with 2 nearest neighbor stencil

Memory estimate:
  Process memory now: 213.27 MiB
  Calculator: 307.36 MiB
    Density: 88.33 MiB
      Arrays: 27.47 MiB
      Localized functions: 50.43 MiB
      Mixer: 10.44 MiB
    Hamiltonian: 21.95 MiB
      Arrays: 17.96 MiB
      XC: 0.00 MiB
      Poisson: 0.00 MiB
      vbar: 3.99 MiB
    Wavefunctions: 197.08 MiB
      Arrays psit_nG: 91.85 MiB
      Eigensolver: 102.58 MiB
      Projections: 0.05 MiB
      Projectors: 2.60 MiB

Total number of cores used: 32
Parallelization over k-points: 8
Domain decomposition: 1 x 1 x 4

Number of atoms: 47
Number of atomic orbitals: 170
Number of bands in calculation: 44
Number of valence electrons: 66
Bands to converge: occupied

... initialized

Initializing position-dependent things.

Density initialized from atomic densities
Creating initial wave functions:
  44 bands from LCAO basis set

       .-----------------------.  
      /|                       |  
     / |                       |  
    /  |                       |  
   /   |                       |  
  /    |                       |  
 *     |                       |  
 |     |                       |  
 |     |                       |  
 |     |            H    H     |  
 |     |              H        |  
 |     |            H O        |  
 |     Li      Li  H  C H      |  
 |     |                       |  
 |   Li|     Li      Li        |  
 |     |  Li      Li      Li   |  
 |     |   Li      Li N   Li   |  
 |     |Li      LiLi    Li     |  
 |     |             N         |  
 |   LLi     LLi     LLi       |  
 |     |  Li      Li      Li   |  
 | Li  |   Li      Li          |  
 |     |Li      Li      Li     |  
 Li    | Li      Li            |  
 |    Li      Li      Li       |  
 |     |                       |  
 |     |                       |  
 |     |                       |  
 |     |                       |  
 |     |                       |  
 |     |                       |  
 |     .-----------------------.  
 |    /                       /   
 |   /                       /    
 |  /                       /     
 | /                       /      
 |/                       /       
 *-----------------------*        

Positions:
   0 Li     1.617037    1.617037   10.000000    ( 0.0000,  0.0000,  0.0000)
   1 Li     4.851111    1.617037   10.000000    ( 0.0000,  0.0000,  0.0000)
   2 Li     8.085185    1.617037   10.000000    ( 0.0000,  0.0000,  0.0000)
   3 Li     1.617037    4.851111   10.000000    ( 0.0000,  0.0000,  0.0000)
   4 Li     4.851111    4.851111   10.000000    ( 0.0000,  0.0000,  0.0000)
   5 Li     8.085185    4.851111   10.000000    ( 0.0000,  0.0000,  0.0000)
   6 Li     1.617037    8.085185   10.000000    ( 0.0000,  0.0000,  0.0000)
   7 Li     4.851111    8.085185   10.000000    ( 0.0000,  0.0000,  0.0000)
   8 Li     8.085185    8.085185   10.000000    ( 0.0000,  0.0000,  0.0000)
   9 Li     0.000000    0.000000   11.617037    ( 0.0000,  0.0000,  0.0000)
  10 Li     3.234074    0.000000   11.617037    ( 0.0000,  0.0000,  0.0000)
  11 Li     6.468148    0.000000   11.617037    ( 0.0000,  0.0000,  0.0000)
  12 Li     0.000000    3.234074   11.617037    ( 0.0000,  0.0000,  0.0000)
  13 Li     3.234074    3.234074   11.617037    ( 0.0000,  0.0000,  0.0000)
  14 Li     6.468148    3.234074   11.617037    ( 0.0000,  0.0000,  0.0000)
  15 Li     0.000000    6.468148   11.617037    ( 0.0000,  0.0000,  0.0000)
  16 Li     3.234074    6.468148   11.617037    ( 0.0000,  0.0000,  0.0000)
  17 Li     6.468148    6.468148   11.617037    ( 0.0000,  0.0000,  0.0000)
  18 Li     1.595509    1.594341   13.521113    ( 0.0000,  0.0000,  0.0000)
  19 Li     4.875757    1.669805   13.523007    ( 0.0000,  0.0000,  0.0000)
  20 Li     8.084601    1.619304   13.573205    ( 0.0000,  0.0000,  0.0000)
  21 Li     1.537970    4.787371   13.515473    ( 0.0000,  0.0000,  0.0000)
  22 Li     4.813147    4.877897   13.504320    ( 0.0000,  0.0000,  0.0000)
  23 Li     8.033336    4.828877   13.530236    ( 0.0000,  0.0000,  0.0000)
  24 Li     1.653345    8.047130   13.481953    ( 0.0000,  0.0000,  0.0000)
  25 Li     4.911990    8.143315   13.494306    ( 0.0000,  0.0000,  0.0000)
  26 Li     8.125773    8.099628   13.516332    ( 0.0000,  0.0000,  0.0000)
  27 Li     0.122820   -0.114585   15.486523    ( 0.0000,  0.0000,  0.0000)
  28 Li     3.369991   -0.045509   15.433870    ( 0.0000,  0.0000,  0.0000)
  29 Li     6.701148    0.204638   15.590293    ( 0.0000,  0.0000,  0.0000)
  30 Li    -0.305390    2.980364   15.691723    ( 0.0000,  0.0000,  0.0000)
  31 Li     3.083623    3.281383   15.463522    ( 0.0000,  0.0000,  0.0000)
  32 Li     6.319692    3.337664   15.554884    ( 0.0000,  0.0000,  0.0000)
  33 Li     0.047264    6.350009   15.456463    ( 0.0000,  0.0000,  0.0000)
  34 Li     3.243262    6.476191   15.445465    ( 0.0000,  0.0000,  0.0000)
  35 Li     6.419510    6.599247   15.450516    ( 0.0000,  0.0000,  0.0000)
  36 O      7.889996    2.545694   19.227444    ( 0.0000,  0.0000,  0.0000)
  37 C      8.020026    1.225021   19.777759    ( 0.0000,  0.0000,  0.0000)
  38 C      8.194501    1.224440   21.291760    ( 0.0000,  0.0000,  0.0000)
  39 H      7.159011    0.607327   19.488645    ( 0.0000,  0.0000,  0.0000)
  40 H      8.900117    0.803689   19.287345    ( 0.0000,  0.0000,  0.0000)
  41 H      8.352089    0.206024   21.656245    ( 0.0000,  0.0000,  0.0000)
  42 H      9.054614    1.831527   21.579376    ( 0.0000,  0.0000,  0.0000)
  43 H      7.307568    1.625626   21.791403    ( 0.0000,  0.0000,  0.0000)
  44 H      7.058133    2.920631   19.540742    ( 0.0000,  0.0000,  0.0000)
  45 N      7.858262    3.159014   15.623304    ( 0.0000,  0.0000,  0.0000)
  46 N      8.263095    0.045027   15.538408    ( 0.0000,  0.0000,  0.0000)

Unit cell:
           periodic     x           y           z      points  spacing
  1. axis:    yes    9.702222    0.000000    0.000000    60     0.1617
  2. axis:    yes    0.000000    9.702222    0.000000    60     0.1617
  3. axis:    no     0.000000    0.000000   24.851111   156     0.1593

  Lengths:   9.702222   9.702222  24.851111
  Angles:   90.000000  90.000000  90.000000

Effective grid spacing dv^(1/3) = 0.1609

     iter     time        total  log10-change:
                         energy  eigst   dens
iter:   1 10:25:02  -488.106340
iter:   2 10:27:09  -161.527411  +2.37  -0.04
iter:   3 10:28:25  -114.805250  +2.81  -0.24
iter:   4 10:30:30  -125.823549  +2.82  -0.31
Writing to output.gpw (mode='')

iter:   5 10:32:05  -175.465071  +2.82  -0.41
iter:   6 10:35:20  -242.678916  +2.69  -0.55
iter:   7 10:39:37  -302.277853  +2.65  -0.60
iter:   8 10:43:57  -338.167265  +2.23  -0.61
iter:   9 10:46:36  -365.944417  +2.11  -0.57
Writing to output.gpw (mode='')

iter:  10 10:49:02  -374.150135  +1.89  -0.54
iter:  11 10:52:29  -358.272271  +1.45  -0.52
iter:  12 10:57:00  -335.281019  +1.24  -0.53
iter:  13 11:02:08  -320.445293  +0.99  -0.58
iter:  14 11:09:18  -319.771406  +0.74  -0.71
Writing to output.gpw (mode='')

iter:  15 11:15:27  -308.383536  +0.83  -0.67
iter:  16 11:22:51  -306.623754  +0.59  -0.88
iter:  17 11:29:12  -304.711131  +0.97  -0.93
iter:  18 11:36:48  -305.005625  +0.36  -0.92
iter:  19 11:43:52  -308.448992  +0.79  -0.90
Writing to output.gpw (mode='')

iter:  20 11:50:07  -305.264736  -0.05  -0.72
iter:  21 11:55:09  -304.861091  -0.08  -0.88
iter:  22 12:01:31  -304.743743  -0.31  -0.92
iter:  23 12:07:46  -304.211064  -0.08  -0.96
iter:  24 12:13:54  -304.046249  -0.36  -1.07
Writing to output.gpw (mode='')

iter:  25 12:21:07  -304.512516  +0.06  -1.17
iter:  26 12:25:42  -304.383886  -0.09  -1.24
iter:  27 12:30:07  -304.226238  -0.71  -1.28
iter:  28 12:37:00  -303.838163  -0.62  -1.34
iter:  29 12:42:04  -303.783460  -0.96  -1.48
Writing to output.gpw (mode='')

iter:  30 12:47:55  -303.637542  -0.55  -1.60
iter:  31 12:52:41  -303.630438  -0.61  -1.61
iter:  32 12:57:35  -303.596939  -1.40  -1.61
iter:  33 13:01:01  -303.583089  -1.29  -1.74
iter:  34 13:04:42  -303.582848c -1.61  -1.88
Writing to output.gpw (mode='')

iter:  35 13:09:06  -303.588369c -1.49  -1.95
iter:  36 13:14:36  -303.591062c -1.95  -1.99
iter:  37 13:17:18  -303.576086c -2.12  -1.98
iter:  38 13:21:27  -303.573054c -2.29  -2.19
iter:  39 13:25:06  -303.572258c -2.34  -2.37
Writing to output.gpw (mode='')

iter:  40 13:29:19  -303.571602c -2.38  -2.49
iter:  41 13:33:44  -303.571816c -2.56  -2.76
iter:  42 13:37:49  -303.571914c -2.98  -2.92
iter:  43 13:42:47  -303.571940c -3.06  -3.05
iter:  44 13:48:20  -303.571999c -3.19  -3.19
Writing to output.gpw (mode='')

iter:  45 13:53:56  -303.572030c -3.49  -3.24
iter:  46 13:58:25  -303.572075c -3.36  -3.35
iter:  47 14:02:47  -303.572121c -3.69  -3.44
iter:  48 14:08:24  -303.572150c -3.84  -3.47
iter:  49 14:13:58  -303.572176c -3.94  -3.54
Writing to output.gpw (mode='')

iter:  50 14:19:38  -303.572193c -4.22  -3.72
iter:  51 14:23:50  -303.572206c -4.24  -3.88
iter:  52 14:27:57  -303.572217c -4.20  -3.96
iter:  53 14:32:06  -303.572226c -4.42  -4.00c
iter:  54 14:36:58  -303.572240c -4.51  -4.06c
Writing to output.gpw (mode='')

iter:  55 14:43:03  -303.572244c -4.59  -4.25c
iter:  56 14:49:32  -303.572248c -4.66  -4.36c
iter:  57 14:53:17  -303.572252c -4.65  -4.41c
iter:  58 14:58:59  -303.572254c -4.83  -4.48c
iter:  59 15:02:37  -303.572256c -4.87  -4.56c
Writing to output.gpw (mode='')

iter:  60 15:06:46  -303.572258c -5.10  -4.62c
iter:  61 15:13:18  -303.572259c -5.22  -4.61c
iter:  62 15:17:50  -303.572260c -5.19  -4.60c
iter:  63 15:22:38  -303.572261c -5.46  -4.48c
iter:  64 15:27:57  -303.572262c -5.57  -4.78c
Writing to output.gpw (mode='')

iter:  65 15:32:50  -303.572263c -5.65  -4.95c
iter:  66 15:38:28  -303.572264c -5.68  -4.95c
iter:  67 15:42:33  -303.572264c -5.69  -5.10c
iter:  68 15:48:24  -303.572265c -5.71  -5.12c
iter:  69 15:53:50  -303.572265c -5.84  -5.14c
Writing to output.gpw (mode='')

iter:  70 16:00:47  -303.572265c -5.81  -5.11c
iter:  71 16:06:54  -303.572266c -6.06  -4.99c
iter:  72 16:12:00  -303.572266c -6.16  -5.47c
iter:  73 16:17:18  -303.572266c -6.21  -5.53c
iter:  74 16:22:29  -303.572266c -6.02  -5.62c
Writing to output.gpw (mode='')

iter:  75 16:27:34  -303.572266c -6.33  -5.68c
iter:  76 16:34:01  -303.572266c -6.42  -5.75c
iter:  77 16:39:12  -303.572266c -6.36  -5.86c
iter:  78 16:44:03  -303.572266c -6.39  -5.92c
iter:  79 16:49:21  -303.572266c -6.55  -5.92c
Writing to output.gpw (mode='')

iter:  80 16:55:46  -303.572266c -6.62  -5.91c
iter:  81 17:01:50  -303.572266c -6.70  -5.84c
iter:  82 17:07:31  -303.572266c -6.73  -5.79c
iter:  83 17:12:26  -303.572266c -6.74  -5.68c
iter:  84 17:18:20  -303.572267c -6.85  -5.61c
Writing to output.gpw (mode='')

iter:  85 17:24:42  -303.572267c -7.02  -5.55c
iter:  86 17:30:16  -303.572267c -7.07  -5.64c
iter:  87 17:34:16  -303.572267c -7.09  -5.49c
iter:  88 17:38:08  -303.572267c -7.01  -5.51c
iter:  89 17:42:01  -303.572267c -7.01  -5.51c
Writing to output.gpw (mode='')

iter:  90 17:47:15  -303.572267c -7.23  -5.47c
iter:  91 17:51:29  -303.572266c -7.16  -5.52c
iter:  92 17:55:36  -303.572267c -7.06  -5.35c
iter:  93 17:59:32  -303.572267c -7.35  -5.46c
iter:  94 18:04:47  -303.572267c -7.49c -5.65c

Converged after 94 iterations.

Dipole moment: (-3.092317, -14.385333, 0.006555) |e|*Ang

Energy contributions relative to reference atoms: (reference = -14434.854043)

Kinetic:       +165.087628
Potential:     -149.768127
External:        +0.000000
XC:            -319.620921
Entropy (-ST):   -0.178092
Local:           +0.818198
--------------------------
Free energy:   -303.661313
Extrapolated:  -303.572267

Dipole-layer corrected work functions: 3.460356, 3.447754 eV

Showing only first 2 kpts
 Kpt  Band  Eigenvalues  Occupancy
  0    31     -3.66978    1.97361
  0    32     -3.51525    1.54552
  0    33     -3.40511    0.54625
  0    34     -3.30115    0.08974

  1    31     -3.67867    1.97786
  1    32     -3.54774    1.73378
  1    33     -3.47767    1.23183
  1    34     -3.27351    0.05264


Fermi level: -3.45405

No gap
Writing to output.gpw (mode='')


Forces in eV/Ang:
  0 Li    0.01347    0.00331   -0.27529
  1 Li   -0.01426   -0.00184   -0.27280
  2 Li    0.00013    0.00246   -0.23893
  3 Li    0.00670    0.00653   -0.28929
  4 Li   -0.00690    0.00238   -0.28610
  5 Li   -0.00053    0.01381   -0.29594
  6 Li    0.01041   -0.00245   -0.28379
  7 Li   -0.00829   -0.00688   -0.28827
  8 Li    0.00098   -0.01572   -0.29498
  9 Li    0.00635    0.02923    0.25178
 10 Li    0.01077    0.01240    0.29224
 11 Li    0.00455    0.04137    0.21831
 12 Li   -0.01219   -0.03261    0.20572
 13 Li   -0.01179    0.00196    0.28678
 14 Li   -0.00213   -0.01906    0.23819
 15 Li   -0.05093   -0.02677    0.30007
 16 Li    0.00037   -0.01220    0.26965
 17 Li    0.04222    0.00848    0.30028
 18 Li    0.10219   -0.00983   -0.05260
 19 Li   -0.10796   -0.00238   -0.05264
 20 Li   -0.01010   -0.02791    1.20511
 21 Li    0.06211    0.03568   -0.04552
 22 Li   -0.02675    0.03914   -0.02152
 23 Li   -0.03694   -0.52411    0.60012
 24 Li    0.02701   -0.03730   -0.00734
 25 Li   -0.05077   -0.03634   -0.03717
 26 Li    0.03643    0.54560    0.62522
 27 Li    4.16895   -0.42438    0.14666
 28 Li   -0.03107    0.03224    0.00863
 29 Li   -4.08505    0.66629    0.44404
 30 Li    4.62726   -0.77728    0.54051
 31 Li    0.01950   -0.02853    0.00959
 32 Li   -4.71418    0.54131    0.08910
 33 Li   -0.10705    0.01731    0.08364
 34 Li   -0.00786   -0.00150   -0.03289
 35 Li    0.10983   -0.00984    0.08209
 36 O     0.01695   -0.05368    0.12096
 37 C    -0.01614    0.08392   -0.05311
 38 C    -0.02641    0.00322   -0.02051
 39 H     0.01268   -0.01629   -0.01259
 40 H    -0.01897   -0.00521   -0.01758
 41 H    -0.01381   -0.01552    0.00769
 42 H     0.00078    0.01041    0.00205
 43 H     0.00880    0.00076   -0.00135
 44 H    -0.01498    0.00670   -0.02047
 45 N    -0.07351    0.63954   -1.83703
 46 N     0.09151   -0.63303   -1.64270

System changes: positions 

Initializing position-dependent things.

Density initialized from wave functions
       .-----------------------.  
      /|                       |  
     / |                       |  
    /  |                       |  
   /   |                       |  
  /    |                       |  
 *     |                       |  
 |     |                       |  
 |     |                       |  
 |     |            H    H     |  
 |     |              H        |  
 |     |            H O        |  
 |     Li      Li  H  C H      |  
 |     |                       |  
 |   Li|     Li      Li        |  
 |     |  Li      Li      Li   |  
 |     |   Li      Li N   Li   |  
 |     |Li      LiLi    Li     |  
 |     |             N         |  
 |   LLi     LLi     LLi       |  
 |     |  Li      Li      Li   |  
 | Li  |   Li      Li          |  
 |     |Li      Li      Li     |  
 Li    | Li      Li            |  
 |    Li      Li      Li       |  
 |     |                       |  
 |     |                       |  
 |     |                       |  
 |     |                       |  
 |     |                       |  
 |     |                       |  
 |     .-----------------------.  
 |    /                       /   
 |   /                       /    
 |  /                       /     
 | /                       /      
 |/                       /       
 *-----------------------*        

Positions:
   0 Li     1.617037    1.617037   10.000000    ( 0.0000,  0.0000,  0.0000)
   1 Li     4.851111    1.617037   10.000000    ( 0.0000,  0.0000,  0.0000)
   2 Li     8.085185    1.617037   10.000000    ( 0.0000,  0.0000,  0.0000)
   3 Li     1.617037    4.851111   10.000000    ( 0.0000,  0.0000,  0.0000)
   4 Li     4.851111    4.851111   10.000000    ( 0.0000,  0.0000,  0.0000)
   5 Li     8.085185    4.851111   10.000000    ( 0.0000,  0.0000,  0.0000)
   6 Li     1.617037    8.085185   10.000000    ( 0.0000,  0.0000,  0.0000)
   7 Li     4.851111    8.085185   10.000000    ( 0.0000,  0.0000,  0.0000)
   8 Li     8.085185    8.085185   10.000000    ( 0.0000,  0.0000,  0.0000)
   9 Li     0.000000    0.000000   11.617037    ( 0.0000,  0.0000,  0.0000)
  10 Li     3.234074    0.000000   11.617037    ( 0.0000,  0.0000,  0.0000)
  11 Li     6.468148    0.000000   11.617037    ( 0.0000,  0.0000,  0.0000)
  12 Li     0.000000    3.234074   11.617037    ( 0.0000,  0.0000,  0.0000)
  13 Li     3.234074    3.234074   11.617037    ( 0.0000,  0.0000,  0.0000)
  14 Li     6.468148    3.234074   11.617037    ( 0.0000,  0.0000,  0.0000)
  15 Li     0.000000    6.468148   11.617037    ( 0.0000,  0.0000,  0.0000)
  16 Li     3.234074    6.468148   11.617037    ( 0.0000,  0.0000,  0.0000)
  17 Li     6.468148    6.468148   11.617037    ( 0.0000,  0.0000,  0.0000)
  18 Li     1.596370    1.594258   13.520670    ( 0.0000,  0.0000,  0.0000)
  19 Li     4.874847    1.669784   13.522563    ( 0.0000,  0.0000,  0.0000)
  20 Li     8.084516    1.619069   13.583362    ( 0.0000,  0.0000,  0.0000)
  21 Li     1.538493    4.787671   13.515090    ( 0.0000,  0.0000,  0.0000)
  22 Li     4.812922    4.878227   13.504138    ( 0.0000,  0.0000,  0.0000)
  23 Li     8.033025    4.824460   13.535294    ( 0.0000,  0.0000,  0.0000)
  24 Li     1.653572    8.046816   13.481891    ( 0.0000,  0.0000,  0.0000)
  25 Li     4.911562    8.143008   13.493993    ( 0.0000,  0.0000,  0.0000)
  26 Li     8.126080    8.104227   13.521601    ( 0.0000,  0.0000,  0.0000)
  27 Li     0.157957   -0.118162   15.487759    ( 0.0000,  0.0000,  0.0000)
  28 Li     3.369729   -0.045237   15.433943    ( 0.0000,  0.0000,  0.0000)
  29 Li     6.666718    0.210253   15.594035    ( 0.0000,  0.0000,  0.0000)
  30 Li    -0.266390    2.973813   15.696279    ( 0.0000,  0.0000,  0.0000)
  31 Li     3.083788    3.281142   15.463602    ( 0.0000,  0.0000,  0.0000)
  32 Li     6.279960    3.342226   15.555635    ( 0.0000,  0.0000,  0.0000)
  33 Li     0.046362    6.350155   15.457168    ( 0.0000,  0.0000,  0.0000)
  34 Li     3.243196    6.476178   15.445188    ( 0.0000,  0.0000,  0.0000)
  35 Li     6.420436    6.599164   15.451208    ( 0.0000,  0.0000,  0.0000)
  36 O      7.890139    2.545242   19.228464    ( 0.0000,  0.0000,  0.0000)
  37 C      8.019890    1.225729   19.777311    ( 0.0000,  0.0000,  0.0000)
  38 C      8.194279    1.224467   21.291587    ( 0.0000,  0.0000,  0.0000)
  39 H      7.159118    0.607189   19.488539    ( 0.0000,  0.0000,  0.0000)
  40 H      8.899957    0.803645   19.287197    ( 0.0000,  0.0000,  0.0000)
  41 H      8.351972    0.205893   21.656310    ( 0.0000,  0.0000,  0.0000)
  42 H      9.054621    1.831614   21.579393    ( 0.0000,  0.0000,  0.0000)
  43 H      7.307642    1.625632   21.791391    ( 0.0000,  0.0000,  0.0000)
  44 H      7.058006    2.920688   19.540570    ( 0.0000,  0.0000,  0.0000)
  45 N      7.857642    3.164404   15.607821    ( 0.0000,  0.0000,  0.0000)
  46 N      8.263866    0.039691   15.524563    ( 0.0000,  0.0000,  0.0000)

Unit cell:
           periodic     x           y           z      points  spacing
  1. axis:    yes    9.702222    0.000000    0.000000    60     0.1617
  2. axis:    yes    0.000000    9.702222    0.000000    60     0.1617
  3. axis:    no     0.000000    0.000000   24.851111   156     0.1593

  Lengths:   9.702222   9.702222  24.851111
  Angles:   90.000000  90.000000  90.000000

Effective grid spacing dv^(1/3) = 0.1609

     iter     time        total  log10-change:
                         energy  eigst   dens
iter:   1 18:08:45  -304.368583  -0.55
iter:   2 18:12:54  -304.309318  -0.94  -1.51
iter:   3 18:17:02  -304.268294  -1.73  -1.75
iter:   4 18:20:54  -304.258947  -1.78  -2.06
Writing to output.gpw (mode='')

iter:   5 18:25:50  -304.258774c -1.91  -2.24
iter:   6 18:29:33  -304.254390c -1.84  -2.26
iter:   7 18:33:15  -304.253676c -2.12  -2.42
iter:   8 18:37:48  -304.252977c -2.73  -2.49
iter:   9 18:41:41  -304.252896c -2.74  -2.64
Writing to output.gpw (mode='')

iter:  10 18:47:43  -304.252874c -3.03  -2.72
iter:  11 18:51:40  -304.252950c -3.22  -2.83
iter:  12 18:55:48  -304.253060c -3.27  -2.97
iter:  13 18:59:03  -304.253054c -3.84  -3.02
iter:  14 19:02:54  -304.253056c -3.89  -3.06
Writing to output.gpw (mode='')

iter:  15 19:11:08  -304.253148c -3.87  -3.20
iter:  16 19:16:27  -304.253157c -4.18  -3.27
iter:  17 19:20:45  -304.253142c -4.30  -3.40
iter:  18 19:24:54  -304.253132c -4.43  -3.60
iter:  19 19:28:46  -304.253125c -4.64  -3.83
Writing to output.gpw (mode='')

iter:  20 19:34:17  -304.253126c -4.96  -3.92
iter:  21 19:40:09  -304.253124c -5.17  -3.96
iter:  22 19:44:35  -304.253123c -5.28  -4.02c
iter:  23 19:49:09  -304.253124c -5.46  -4.22c
iter:  24 19:52:31  -304.253124c -5.65  -4.28c
Writing to output.gpw (mode='')

iter:  25 19:56:11  -304.253124c -5.78  -4.41c
iter:  26 19:59:13  -304.253124c -6.08  -4.63c
iter:  27 20:02:51  -304.253124c -6.22  -4.67c
iter:  28 20:07:04  -304.253124c -6.35  -4.74c
iter:  29 20:10:14  -304.253125c -6.48  -4.85c
Writing to output.gpw (mode='')

iter:  30 20:14:28  -304.253125c -6.47  -4.86c
iter:  31 20:17:52  -304.253125c -6.58  -4.94c
iter:  32 20:20:31  -304.253126c -6.74  -5.06c
iter:  33 20:24:33  -304.253126c -6.68  -5.16c
iter:  34 20:29:32  -304.253126c -6.96  -5.26c
Writing to output.gpw (mode='')

iter:  35 20:32:38  -304.253126c -7.15  -5.31c
iter:  36 20:35:11  -304.253126c -7.22  -5.34c
iter:  37 20:39:24  -304.253126c -7.28  -5.37c
iter:  38 20:43:12  -304.253126c -7.45c -5.45c

Converged after 38 iterations.

Dipole moment: (-3.649975, -13.983724, 0.010942) |e|*Ang

Energy contributions relative to reference atoms: (reference = -14434.854043)

Kinetic:       +159.796775
Potential:     -146.115149
External:        +0.000000
XC:            -318.644930
Entropy (-ST):   -0.176706
Local:           +0.798532
--------------------------
Free energy:   -304.341479
Extrapolated:  -304.253126

Dipole-layer corrected work functions: 3.458450, 3.437416 eV

Showing only first 2 kpts
 Kpt  Band  Eigenvalues  Occupancy
  0    31     -3.66748    1.97552
  0    32     -3.50760    1.53469
  0    33     -3.39697    0.53036
  0    34     -3.29525    0.09011

  1    31     -3.67026    1.97683
  1    32     -3.54164    1.73389
  1    33     -3.47303    1.24582
  1    34     -3.27080    0.05624


Fermi level: -3.44793

No gap
Writing to output.gpw (mode='')


Forces in eV/Ang:
  0 Li    0.01480    0.00318   -0.27395
  1 Li   -0.01566   -0.00185   -0.27148
  2 Li    0.00013    0.00237   -0.23987
  3 Li    0.00711    0.00652   -0.28868
  4 Li   -0.00750    0.00216   -0.28584
  5 Li   -0.00080    0.01481   -0.29645
  6 Li    0.01097   -0.00221   -0.28373
  7 Li   -0.00869   -0.00690   -0.28792
  8 Li    0.00119   -0.01663   -0.29543
  9 Li    0.00457    0.02890    0.25500
 10 Li    0.01066    0.01268    0.28999
 11 Li    0.00584    0.04093    0.22076
 12 Li   -0.01366   -0.03267    0.20831
 13 Li   -0.01158    0.00180    0.28424
 14 Li    0.00004   -0.01905    0.24192
 15 Li   -0.05288   -0.02649    0.30048
 16 Li    0.00037   -0.01219    0.26985
 17 Li    0.04440    0.00886    0.30063
 18 Li    0.10580   -0.00911   -0.05438
 19 Li   -0.11128   -0.00236   -0.05550
 20 Li   -0.00942   -0.02743    1.20967
 21 Li    0.06223    0.03402   -0.04276
 22 Li   -0.02969    0.04192   -0.02524
 23 Li   -0.03945   -0.53242    0.61044
 24 Li    0.03010   -0.03982   -0.01126
 25 Li   -0.05139   -0.03493   -0.03533
 26 Li    0.03856    0.55388    0.63489
 27 Li    3.32951   -0.33505    0.19543
 28 Li   -0.02923    0.03732    0.00731
 29 Li   -3.17869    0.57493    0.42512
 30 Li    3.52744   -0.64842    0.50408
 31 Li    0.01519   -0.03334    0.00752
 32 Li   -3.69358    0.41827    0.16147
 33 Li   -0.10604    0.01677    0.08218
 34 Li   -0.00756   -0.00187   -0.03035
 35 Li    0.10867   -0.00978    0.08062
 36 O     0.01132   -0.01375    0.09670
 37 C    -0.01389    0.04157   -0.02988
 38 C    -0.01254   -0.00143   -0.01774
 39 H     0.01313   -0.01207   -0.01330
 40 H    -0.01939   -0.00156   -0.01649
 41 H    -0.01524   -0.00870    0.00309
 42 H    -0.00533    0.00600   -0.00032
 43 H     0.00357    0.00285   -0.00027
 44 H    -0.01242    0.00368   -0.01992
 45 N     0.00080    0.62797   -1.82418
 46 N     0.01514   -0.64919   -1.67830

System changes: positions 

Initializing position-dependent things.

Density initialized from wave functions
       .-----------------------.  
      /|                       |  
     / |                       |  
    /  |                       |  
   /   |                       |  
  /    |                       |  
 *     |                       |  
 |     |                       |  
 |     |                       |  
 |     |            H    H     |  
 |     |              H        |  
 |     |            H O        |  
 |     Li      Li  H  C H      |  
 |     |                       |  
 |   Li|     Li      Li        |  
 |     |  Li      Li      Li   |  
 |     |   Li      Li N   Li   |  
 |     |Li      LiLi    Li     |  
 |     |             N         |  
 |   LLi     LLi     LLi       |  
 |     |  Li      Li      Li   |  
 | Li  |   Li      Li          |  
 |     |Li      Li      Li     |  
 Li    | Li      Li            |  
 |    Li      Li      Li       |  
 |     |                       |  
 |     |                       |  
 |     |                       |  
 |     |                       |  
 |     |                       |  
 |     |                       |  
 |     .-----------------------.  
 |    /                       /   
 |   /                       /    
 |  /                       /     
 | /                       /      
 |/                       /       
 *-----------------------*        

Positions:
   0 Li     1.617037    1.617037   10.000000    ( 0.0000,  0.0000,  0.0000)
   1 Li     4.851111    1.617037   10.000000    ( 0.0000,  0.0000,  0.0000)
   2 Li     8.085185    1.617037   10.000000    ( 0.0000,  0.0000,  0.0000)
   3 Li     1.617037    4.851111   10.000000    ( 0.0000,  0.0000,  0.0000)
   4 Li     4.851111    4.851111   10.000000    ( 0.0000,  0.0000,  0.0000)
   5 Li     8.085185    4.851111   10.000000    ( 0.0000,  0.0000,  0.0000)
   6 Li     1.617037    8.085185   10.000000    ( 0.0000,  0.0000,  0.0000)
   7 Li     4.851111    8.085185   10.000000    ( 0.0000,  0.0000,  0.0000)
   8 Li     8.085185    8.085185   10.000000    ( 0.0000,  0.0000,  0.0000)
   9 Li     0.000000    0.000000   11.617037    ( 0.0000,  0.0000,  0.0000)
  10 Li     3.234074    0.000000   11.617037    ( 0.0000,  0.0000,  0.0000)
  11 Li     6.468148    0.000000   11.617037    ( 0.0000,  0.0000,  0.0000)
  12 Li     0.000000    3.234074   11.617037    ( 0.0000,  0.0000,  0.0000)
  13 Li     3.234074    3.234074   11.617037    ( 0.0000,  0.0000,  0.0000)
  14 Li     6.468148    3.234074   11.617037    ( 0.0000,  0.0000,  0.0000)
  15 Li     0.000000    6.468148   11.617037    ( 0.0000,  0.0000,  0.0000)
  16 Li     3.234074    6.468148   11.617037    ( 0.0000,  0.0000,  0.0000)
  17 Li     6.468148    6.468148   11.617037    ( 0.0000,  0.0000,  0.0000)
  18 Li     1.597680    1.594151   13.519997    ( 0.0000,  0.0000,  0.0000)
  19 Li     4.873472    1.669756   13.521871    ( 0.0000,  0.0000,  0.0000)
  20 Li     8.084405    1.618737   13.598147    ( 0.0000,  0.0000,  0.0000)
  21 Li     1.539253    4.788078   13.514582    ( 0.0000,  0.0000,  0.0000)
  22 Li     4.812544    4.878753   13.503811    ( 0.0000,  0.0000,  0.0000)
  23 Li     8.032530    4.817919   13.542797    ( 0.0000,  0.0000,  0.0000)
  24 Li     1.653956    8.046316   13.481733    ( 0.0000,  0.0000,  0.0000)
  25 Li     4.910932    8.142590   13.493572    ( 0.0000,  0.0000,  0.0000)
  26 Li     8.126562    8.111029   13.529400    ( 0.0000,  0.0000,  0.0000)
  27 Li     0.194152   -0.121778   15.490402    ( 0.0000,  0.0000,  0.0000)
  28 Li     3.369382   -0.044755   15.434025    ( 0.0000,  0.0000,  0.0000)
  29 Li     6.632716    0.216787   15.599123    ( 0.0000,  0.0000,  0.0000)
  30 Li    -0.229155    2.966581   15.702237    ( 0.0000,  0.0000,  0.0000)
  31 Li     3.083950    3.280710   15.463683    ( 0.0000,  0.0000,  0.0000)
  32 Li     6.240278    3.346680   15.557988    ( 0.0000,  0.0000,  0.0000)
  33 Li     0.045073    6.350356   15.458163    ( 0.0000,  0.0000,  0.0000)
  34 Li     3.243105    6.476153   15.444831    ( 0.0000,  0.0000,  0.0000)
  35 Li     6.421756    6.599045   15.452184    ( 0.0000,  0.0000,  0.0000)
  36 O      7.890247    2.545285   19.229516    ( 0.0000,  0.0000,  0.0000)
  37 C      8.019732    1.226012   19.777069    ( 0.0000,  0.0000,  0.0000)
  38 C      8.194199    1.224425   21.291385    ( 0.0000,  0.0000,  0.0000)
  39 H      7.159281    0.607064   19.488373    ( 0.0000,  0.0000,  0.0000)
  40 H      8.899718    0.803645   19.287002    ( 0.0000,  0.0000,  0.0000)
  41 H      8.351779    0.205823   21.656324    ( 0.0000,  0.0000,  0.0000)
  42 H      9.054524    1.831664   21.579377    ( 0.0000,  0.0000,  0.0000)
  43 H      7.307658    1.625678   21.791394    ( 0.0000,  0.0000,  0.0000)
  44 H      7.057868    2.920717   19.540330    ( 0.0000,  0.0000,  0.0000)
  45 N      7.858045    3.172006   15.585629    ( 0.0000,  0.0000,  0.0000)
  46 N      8.263647    0.031684   15.503895    ( 0.0000,  0.0000,  0.0000)

Unit cell:
           periodic     x           y           z      points  spacing
  1. axis:    yes    9.702222    0.000000    0.000000    60     0.1617
  2. axis:    yes    0.000000    9.702222    0.000000    60     0.1617
  3. axis:    no     0.000000    0.000000   24.851111   156     0.1593

  Lengths:   9.702222   9.702222  24.851111
  Angles:   90.000000  90.000000  90.000000

Effective grid spacing dv^(1/3) = 0.1609

     iter     time        total  log10-change:
                         energy  eigst   dens
iter:   1 20:46:58  -304.953864  -0.55
iter:   2 20:50:55  -304.887273  -1.00  -1.52
iter:   3 20:54:31  -304.852544  -1.76  -1.77
iter:   4 20:58:31  -304.844706  -1.65  -2.05
Writing to output.gpw (mode='')

iter:   5 21:01:43  -304.843503c -1.98  -2.19
iter:   6 21:05:55  -304.837121c -1.82  -2.23
iter:   7 21:09:06  -304.837097c -1.98  -2.45
iter:   8 21:13:00  -304.836527c -2.64  -2.46
iter:   9 21:18:38  -304.836039c -2.71  -2.57
Writing to output.gpw (mode='')

iter:  10 21:22:06  -304.836041c -3.09  -2.71
iter:  11 21:24:55  -304.836066c -3.23  -2.81
iter:  12 21:29:01  -304.836285c -3.11  -2.96
iter:  13 21:32:59  -304.836150c -3.80  -2.97
iter:  14 21:37:15  -304.836160c -4.13  -3.07
Writing to output.gpw (mode='')

iter:  15 21:41:03  -304.836151c -4.21  -3.07
iter:  16 21:46:07  -304.836167c -4.40  -3.09
iter:  17 21:50:40  -304.836219c -4.02  -3.13
iter:  18 21:53:46  -304.836230c -4.47  -3.27
iter:  19 21:57:42  -304.836244c -4.42  -3.51
Writing to output.gpw (mode='')

iter:  20 22:01:15  -304.836238c -4.99  -3.64
iter:  21 22:04:49  -304.836229c -4.97  -3.69
iter:  22 22:08:38  -304.836213c -4.85  -3.85
iter:  23 22:12:34  -304.836222c -5.33  -3.96
iter:  24 22:16:30  -304.836220c -5.53  -4.11c
Writing to output.gpw (mode='')

iter:  25 22:19:39  -304.836217c -5.50  -4.20c
iter:  26 22:22:52  -304.836218c -5.74  -4.32c
iter:  27 22:26:18  -304.836220c -5.89  -4.39c
iter:  28 22:29:09  -304.836220c -6.09  -4.67c
iter:  29 22:33:32  -304.836220c -6.31  -4.74c
Writing to output.gpw (mode='')

iter:  30 22:37:03  -304.836220c -6.35  -4.82c
iter:  31 22:39:43  -304.836221c -6.47  -4.90c
iter:  32 22:43:13  -304.836221c -6.70  -4.94c
iter:  33 22:47:31  -304.836221c -6.68  -4.98c
iter:  34 22:51:52  -304.836221c -6.74  -5.02c
Writing to output.gpw (mode='')

iter:  35 22:54:28  -304.836221c -6.93  -5.14c
iter:  36 22:58:25  -304.836221c -6.95  -5.30c
iter:  37 23:01:49  -304.836221c -7.21  -5.40c
iter:  38 23:05:46  -304.836221c -7.20  -5.47c
iter:  39 23:09:20  -304.836221c -7.25  -5.62c
Writing to output.gpw (mode='')

iter:  40 23:12:55  -304.836221c -7.29  -5.69c
iter:  41 23:16:28  -304.836221c -7.58c -5.69c

Converged after 41 iterations.

Dipole moment: (-4.202186, -13.353886, 0.019170) |e|*Ang

Energy contributions relative to reference atoms: (reference = -14434.854043)

Kinetic:       +154.984489
Potential:     -142.764801
External:        +0.000000
XC:            -317.752806
Entropy (-ST):   -0.175720
Local:           +0.784756
--------------------------
Free energy:   -304.924081
Extrapolated:  -304.836221

Dipole-layer corrected work functions: 3.455838, 3.418987 eV

Showing only first 2 kpts
 Kpt  Band  Eigenvalues  Occupancy
  0    31     -3.65887    1.97643
  0    32     -3.49624    1.52868
  0    33     -3.38559    0.52366
  0    34     -3.28555    0.09155

  1    31     -3.66043    1.97715
  1    32     -3.53110    1.73380
  1    33     -3.46442    1.26373
  1    34     -3.26370    0.06010


Fermi level: -3.43741

No gap
Writing to output.gpw (mode='')


Forces in eV/Ang:
  0 Li    0.01620    0.00307   -0.27247
  1 Li   -0.01714   -0.00185   -0.26999
  2 Li    0.00014    0.00230   -0.24150
  3 Li    0.00757    0.00656   -0.28823
  4 Li   -0.00810    0.00196   -0.28545
  5 Li   -0.00106    0.01583   -0.29720
  6 Li    0.01152   -0.00199   -0.28349
  7 Li   -0.00916   -0.00699   -0.28764
  8 Li    0.00136   -0.01760   -0.29614
  9 Li    0.00222    0.02904    0.25890
 10 Li    0.01071    0.01294    0.28751
 11 Li    0.00784    0.04119    0.22407
 12 Li   -0.01572   -0.03328    0.21155
 13 Li   -0.01159    0.00162    0.28150
 14 Li    0.00265   -0.01946    0.24603
 15 Li   -0.05622   -0.02629    0.30230
 16 Li    0.00039   -0.01217    0.26979
 17 Li    0.04796    0.00911    0.30240
 18 Li    0.10904   -0.00871   -0.05527
 19 Li   -0.11430   -0.00180   -0.05735
 20 Li   -0.00893   -0.02644    1.21299
 21 Li    0.06213    0.03220   -0.03943
 22 Li   -0.03219    0.04403   -0.02793
 23 Li   -0.04222   -0.54546    0.62536
 24 Li    0.03278   -0.04183   -0.01429
 25 Li   -0.05164   -0.03318   -0.03268
 26 Li    0.04091    0.56664    0.64907
 27 Li    2.55787   -0.25530    0.23921
 28 Li   -0.02686    0.04300    0.00606
 29 Li   -2.40315    0.49405    0.40739
 30 Li    2.62501   -0.53897    0.47117
 31 Li    0.01034   -0.03890    0.00553
 32 Li   -2.79683    0.31187    0.22168
 33 Li   -0.10411    0.01616    0.07911
 34 Li   -0.00729   -0.00211   -0.02778
 35 Li    0.10658   -0.00925    0.07755
 36 O     0.01857    0.00045    0.07447
 37 C    -0.00967    0.02484   -0.01541
 38 C    -0.01139   -0.00337   -0.01199
 39 H     0.00895   -0.01049   -0.01441
 40 H    -0.01726    0.00051   -0.01617
 41 H    -0.01503   -0.00630    0.00116
 42 H    -0.00676    0.00378   -0.00223
 43 H     0.00382    0.00224   -0.00233
 44 H    -0.02101    0.00569   -0.01507
 45 N     0.02573    0.66699   -1.87614
 46 N    -0.03269   -0.67224   -1.72581

System changes: positions 

Initializing position-dependent things.

Density initialized from wave functions
       .-----------------------.  
      /|                       |  
     / |                       |  
    /  |                       |  
   /   |                       |  
  /    |                       |  
 *     |                       |  
 |     |                       |  
 |     |                       |  
 |     |            H    H     |  
 |     |              H        |  
 |     |            H O        |  
 |     Li      Li  H  C H      |  
 |     |                       |  
 |   Li|     Li      Li        |  
 |     |  Li      Li      Li   |  
 |     |   Li     Li  N   Li   |  
 |     |Li      LLi     Li     |  
 |     |             N         |  
 |   LLi     LLi     LLi       |  
 |     |  Li      Li      Li   |  
 | Li  |   Li      Li          |  
 |     |Li      Li      Li     |  
 Li    | Li      Li            |  
 |    Li      Li      Li       |  
 |     |                       |  
 |     |                       |  
 |     |                       |  
 |     |                       |  
 |     |                       |  
 |     |                       |  
 |     .-----------------------.  
 |    /                       /   
 |   /                       /    
 |  /                       /     
 | /                       /      
 |/                       /       
 *-----------------------*        

Positions:
   0 Li     1.617037    1.617037   10.000000    ( 0.0000,  0.0000,  0.0000)
   1 Li     4.851111    1.617037   10.000000    ( 0.0000,  0.0000,  0.0000)
   2 Li     8.085185    1.617037   10.000000    ( 0.0000,  0.0000,  0.0000)
   3 Li     1.617037    4.851111   10.000000    ( 0.0000,  0.0000,  0.0000)
   4 Li     4.851111    4.851111   10.000000    ( 0.0000,  0.0000,  0.0000)
   5 Li     8.085185    4.851111   10.000000    ( 0.0000,  0.0000,  0.0000)
   6 Li     1.617037    8.085185   10.000000    ( 0.0000,  0.0000,  0.0000)
   7 Li     4.851111    8.085185   10.000000    ( 0.0000,  0.0000,  0.0000)
   8 Li     8.085185    8.085185   10.000000    ( 0.0000,  0.0000,  0.0000)
   9 Li     0.000000    0.000000   11.617037    ( 0.0000,  0.0000,  0.0000)
  10 Li     3.234074    0.000000   11.617037    ( 0.0000,  0.0000,  0.0000)
  11 Li     6.468148    0.000000   11.617037    ( 0.0000,  0.0000,  0.0000)
  12 Li     0.000000    3.234074   11.617037    ( 0.0000,  0.0000,  0.0000)
  13 Li     3.234074    3.234074   11.617037    ( 0.0000,  0.0000,  0.0000)
  14 Li     6.468148    3.234074   11.617037    ( 0.0000,  0.0000,  0.0000)
  15 Li     0.000000    6.468148   11.617037    ( 0.0000,  0.0000,  0.0000)
  16 Li     3.234074    6.468148   11.617037    ( 0.0000,  0.0000,  0.0000)
  17 Li     6.468148    6.468148   11.617037    ( 0.0000,  0.0000,  0.0000)
  18 Li     1.599470    1.594014   13.519091    ( 0.0000,  0.0000,  0.0000)
  19 Li     4.871598    1.669727   13.520925    ( 0.0000,  0.0000,  0.0000)
  20 Li     8.084263    1.618311   13.617853    ( 0.0000,  0.0000,  0.0000)
  21 Li     1.540262    4.788590   13.513959    ( 0.0000,  0.0000,  0.0000)
  22 Li     4.812005    4.879483   13.503337    ( 0.0000,  0.0000,  0.0000)
  23 Li     8.031830    4.809015   13.553010    ( 0.0000,  0.0000,  0.0000)
  24 Li     1.654506    8.045624   13.481479    ( 0.0000,  0.0000,  0.0000)
  25 Li     4.910091    8.142060   13.493053    ( 0.0000,  0.0000,  0.0000)
  26 Li     8.127238    8.120277   13.539993    ( 0.0000,  0.0000,  0.0000)
  27 Li     0.230828   -0.125410   15.494562    ( 0.0000,  0.0000,  0.0000)
  28 Li     3.368958   -0.044026   15.434116    ( 0.0000,  0.0000,  0.0000)
  29 Li     6.598869    0.224281   15.605624    ( 0.0000,  0.0000,  0.0000)
  30 Li    -0.192761    2.958566   15.709673    ( 0.0000,  0.0000,  0.0000)
  31 Li     3.084092    3.280050   15.463761    ( 0.0000,  0.0000,  0.0000)
  32 Li     6.200719    3.351041   15.561994    ( 0.0000,  0.0000,  0.0000)
  33 Li     0.043391    6.350615   15.459436    ( 0.0000,  0.0000,  0.0000)
  34 Li     3.242988    6.476117   15.444396    ( 0.0000,  0.0000,  0.0000)
  35 Li     6.423477    6.598896   15.453432    ( 0.0000,  0.0000,  0.0000)
  36 O      7.890531    2.545496   19.230585    ( 0.0000,  0.0000,  0.0000)
  37 C      8.019590    1.226198   19.776945    ( 0.0000,  0.0000,  0.0000)
  38 C      8.194080    1.224346   21.291210    ( 0.0000,  0.0000,  0.0000)
  39 H      7.159423    0.606916   19.488135    ( 0.0000,  0.0000,  0.0000)
  40 H      8.899438    0.803673   19.286745    ( 0.0000,  0.0000,  0.0000)
  41 H      8.351529    0.205756   21.656318    ( 0.0000,  0.0000,  0.0000)
  42 H      9.054384    1.831703   21.579327    ( 0.0000,  0.0000,  0.0000)
  43 H      7.307696    1.625723   21.791358    ( 0.0000,  0.0000,  0.0000)
  44 H      7.057530    2.920797   19.540093    ( 0.0000,  0.0000,  0.0000)
  45 N      7.858839    3.182819   15.555188    ( 0.0000,  0.0000,  0.0000)
  46 N      8.262704    0.020674   15.475672    ( 0.0000,  0.0000,  0.0000)

Unit cell:
           periodic     x           y           z      points  spacing
  1. axis:    yes    9.702222    0.000000    0.000000    60     0.1617
  2. axis:    yes    0.000000    9.702222    0.000000    60     0.1617
  3. axis:    no     0.000000    0.000000   24.851111   156     0.1593

  Lengths:   9.702222   9.702222  24.851111
  Angles:   90.000000  90.000000  90.000000

Effective grid spacing dv^(1/3) = 0.1609

     iter     time        total  log10-change:
                         energy  eigst   dens
iter:   1 23:19:53  -305.471702  -0.54
iter:   2 23:23:21  -305.401511  -1.03  -1.52
iter:   3 23:27:22  -305.370890  -1.75  -1.78
iter:   4 23:31:30  -305.363041  -1.57  -2.03
Writing to output.gpw (mode='')

iter:   5 23:35:15  -305.360449c -1.99  -2.16
iter:   6 23:38:13  -305.353133c -1.76  -2.22
iter:   7 23:40:42  -305.353646c -1.90  -2.45
iter:   8 23:43:30  -305.352977c -2.59  -2.43
iter:   9 23:46:13  -305.352173c -2.68  -2.54
Writing to output.gpw (mode='')

iter:  10 23:49:54  -305.352204c -3.07  -2.70
iter:  11 23:53:19  -305.352212c -3.26  -2.78
iter:  12 23:57:11  -305.352256c -3.17  -2.94
iter:  13 00:01:06  -305.352256c -3.84  -3.06
iter:  14 00:05:32  -305.352290c -3.91  -3.15
Writing to output.gpw (mode='')

iter:  15 00:09:10  -305.352316c -4.12  -3.19
iter:  16 00:13:13  -305.352308c -4.33  -3.25
iter:  17 00:16:28  -305.352314c -4.37  -3.34
iter:  18 00:19:51  -305.352313c -4.81  -3.39
iter:  19 00:23:23  -305.352325c -4.64  -3.43
Writing to output.gpw (mode='')

iter:  20 00:26:52  -305.352319c -5.08  -3.71
iter:  21 00:31:19  -305.352314c -4.83  -3.83
iter:  22 00:36:45  -305.352316c -5.27  -4.00
iter:  23 00:39:38  -305.352326c -5.23  -4.06c
iter:  24 00:42:26  -305.352325c -5.58  -4.16c
Writing to output.gpw (mode='')

iter:  25 00:45:58  -305.352323c -5.59  -4.22c
iter:  26 00:49:48  -305.352323c -5.81  -4.44c
iter:  27 00:53:20  -305.352323c -6.00  -4.61c
iter:  28 00:56:17  -305.352323c -6.09  -4.65c
iter:  29 01:01:16  -305.352324c -6.16  -4.81c
Writing to output.gpw (mode='')

iter:  30 01:05:06  -305.352324c -6.52  -4.87c
iter:  31 01:08:53  -305.352324c -6.54  -4.89c
iter:  32 01:13:00  -305.352323c -6.74  -4.96c
iter:  33 01:15:43  -305.352323c -7.01  -5.12c
iter:  34 01:20:10  -305.352324c -7.03  -5.16c
Writing to output.gpw (mode='')

iter:  35 01:22:59  -305.352324c -6.88  -5.25c
iter:  36 01:25:41  -305.352324c -7.29  -5.31c
iter:  37 01:28:10  -305.352324c -7.28  -5.32c
iter:  38 01:30:44  -305.352324c -7.48c -5.34c

Converged after 38 iterations.

Dipole moment: (-4.735988, -12.430687, 0.030950) |e|*Ang

Energy contributions relative to reference atoms: (reference = -14434.854043)

Kinetic:       +150.572215
Potential:     -139.671308
External:        +0.000000
XC:            -316.939341
Entropy (-ST):   -0.174855
Local:           +0.773538
--------------------------
Free energy:   -305.439751
Extrapolated:  -305.352324

Dipole-layer corrected work functions: 3.452207, 3.392710 eV

Showing only first 2 kpts
 Kpt  Band  Eigenvalues  Occupancy
  0    31     -3.64471    1.97680
  0    32     -3.48111    1.52740
  0    33     -3.37103    0.52668
  0    34     -3.27196    0.09396

  1    31     -3.64969    1.97897
  1    32     -3.51612    1.73364
  1    33     -3.45158    1.28326
  1    34     -3.25202    0.06404


Fermi level: -3.42246

No gap
Writing to output.gpw (mode='')


Forces in eV/Ang:
  0 Li    0.01781    0.00298   -0.27065
  1 Li   -0.01881   -0.00185   -0.26814
  2 Li    0.00014    0.00224   -0.24405
  3 Li    0.00816    0.00663   -0.28789
  4 Li   -0.00878    0.00175   -0.28489
  5 Li   -0.00130    0.01698   -0.29817
  6 Li    0.01210   -0.00179   -0.28308
  7 Li   -0.00977   -0.00714   -0.28744
  8 Li    0.00148   -0.01870   -0.29711
  9 Li   -0.00070    0.02942    0.26375
 10 Li    0.01096    0.01328    0.28475
 11 Li    0.01054    0.04187    0.22836
 12 Li   -0.01835   -0.03425    0.21561
 13 Li   -0.01190    0.00137    0.27848
 14 Li    0.00578   -0.02012    0.25098
 15 Li   -0.06085   -0.02613    0.30539
 16 Li    0.00044   -0.01215    0.26961
 17 Li    0.05283    0.00934    0.30540
 18 Li    0.11188   -0.00875   -0.05505
 19 Li   -0.11686   -0.00065   -0.05798
 20 Li   -0.00864   -0.02450    1.21261
 21 Li    0.06188    0.03010   -0.03541
 22 Li   -0.03408    0.04526   -0.02939
 23 Li   -0.04566   -0.56409    0.64563
 24 Li    0.03496   -0.04309   -0.01631
 25 Li   -0.05158   -0.03097   -0.02920
 26 Li    0.04347    0.58384    0.66716
 27 Li    1.86522   -0.18803    0.26978
 28 Li   -0.02404    0.04937    0.00507
 29 Li   -1.72387    0.41592    0.38301
 30 Li    1.84992   -0.43895    0.43277
 31 Li    0.00496   -0.04528    0.00375
 32 Li   -2.02127    0.22549    0.26594
 33 Li   -0.10142    0.01533    0.07431
 34 Li   -0.00710   -0.00225   -0.02517
 35 Li    0.10373   -0.00863    0.07278
 36 O     0.01331    0.01440    0.05750
 37 C    -0.00660    0.01237   -0.00621
 38 C    -0.00856   -0.00448   -0.00717
 39 H     0.00535   -0.00753   -0.01477
 40 H    -0.01414    0.00188   -0.01473
 41 H    -0.01452   -0.00526    0.00015
 42 H    -0.00800    0.00131   -0.00394
 43 H     0.00241    0.00209   -0.00359
 44 H    -0.01794    0.00311   -0.01455
 45 N     0.00879    0.63873   -1.93289
 46 N    -0.00190   -0.68504   -1.75894

System changes: positions 

Initializing position-dependent things.

Density initialized from wave functions
       .-----------------------.  
      /|                       |  
     / |                       |  
    /  |                       |  
   /   |                       |  
  /    |                       |  
 *     |                       |  
 |     |                       |  
 |     |                       |  
 |     |            H    H     |  
 |     |              H        |  
 |     |            H O        |  
 |     |Li     Li  H  C H      |  
 |     |                       |  
 |   Li|     Li      Li        |  
 |     |  Li      Li      Li   |  
 |     |   Li     Li  N   Li   |  
 |     |Li      LLi     Li     |  
 |     |             N         |  
 |   LLi     LLi     LLi       |  
 |     |  Li      Li      Li   |  
 | Li  |   Li      Li          |  
 |     |Li      Li      Li     |  
 Li    | Li      Li            |  
 |    Li      Li      Li       |  
 |     |                       |  
 |     |                       |  
 |     |                       |  
 |     |                       |  
 |     |                       |  
 |     |                       |  
 |     .-----------------------.  
 |    /                       /   
 |   /                       /    
 |  /                       /     
 | /                       /      
 |/                       /       
 *-----------------------*        

Positions:
   0 Li     1.617037    1.617037   10.000000    ( 0.0000,  0.0000,  0.0000)
   1 Li     4.851111    1.617037   10.000000    ( 0.0000,  0.0000,  0.0000)
   2 Li     8.085185    1.617037   10.000000    ( 0.0000,  0.0000,  0.0000)
   3 Li     1.617037    4.851111   10.000000    ( 0.0000,  0.0000,  0.0000)
   4 Li     4.851111    4.851111   10.000000    ( 0.0000,  0.0000,  0.0000)
   5 Li     8.085185    4.851111   10.000000    ( 0.0000,  0.0000,  0.0000)
   6 Li     1.617037    8.085185   10.000000    ( 0.0000,  0.0000,  0.0000)
   7 Li     4.851111    8.085185   10.000000    ( 0.0000,  0.0000,  0.0000)
   8 Li     8.085185    8.085185   10.000000    ( 0.0000,  0.0000,  0.0000)
   9 Li     0.000000    0.000000   11.617037    ( 0.0000,  0.0000,  0.0000)
  10 Li     3.234074    0.000000   11.617037    ( 0.0000,  0.0000,  0.0000)
  11 Li     6.468148    0.000000   11.617037    ( 0.0000,  0.0000,  0.0000)
  12 Li     0.000000    3.234074   11.617037    ( 0.0000,  0.0000,  0.0000)
  13 Li     3.234074    3.234074   11.617037    ( 0.0000,  0.0000,  0.0000)
  14 Li     6.468148    3.234074   11.617037    ( 0.0000,  0.0000,  0.0000)
  15 Li     0.000000    6.468148   11.617037    ( 0.0000,  0.0000,  0.0000)
  16 Li     3.234074    6.468148   11.617037    ( 0.0000,  0.0000,  0.0000)
  17 Li     6.468148    6.468148   11.617037    ( 0.0000,  0.0000,  0.0000)
  18 Li     1.601684    1.593844   13.517996    ( 0.0000,  0.0000,  0.0000)
  19 Li     4.869285    1.669711   13.519770    ( 0.0000,  0.0000,  0.0000)
  20 Li     8.084095    1.617824   13.641809    ( 0.0000,  0.0000,  0.0000)
  21 Li     1.541484    4.789184   13.513260    ( 0.0000,  0.0000,  0.0000)
  22 Li     4.811326    4.880384   13.502746    ( 0.0000,  0.0000,  0.0000)
  23 Li     8.030929    4.797902   13.565736    ( 0.0000,  0.0000,  0.0000)
  24 Li     1.655202    8.044767   13.481147    ( 0.0000,  0.0000,  0.0000)
  25 Li     4.909070    8.141448   13.492474    ( 0.0000,  0.0000,  0.0000)
  26 Li     8.128097    8.131784   13.553148    ( 0.0000,  0.0000,  0.0000)
  27 Li     0.266315   -0.128961   15.499994    ( 0.0000,  0.0000,  0.0000)
  28 Li     3.368482   -0.043050   15.434213    ( 0.0000,  0.0000,  0.0000)
  29 Li     6.566476    0.232355   15.613181    ( 0.0000,  0.0000,  0.0000)
  30 Li    -0.158372    2.950124   15.718184    ( 0.0000,  0.0000,  0.0000)
  31 Li     3.084189    3.279155   15.463832    ( 0.0000,  0.0000,  0.0000)
  32 Li     6.162634    3.355252   15.567404    ( 0.0000,  0.0000,  0.0000)
  33 Li     0.041385    6.350918   15.460911    ( 0.0000,  0.0000,  0.0000)
  34 Li     3.242849    6.476072   15.443901    ( 0.0000,  0.0000,  0.0000)
  35 Li     6.425529    6.598724   15.454876    ( 0.0000,  0.0000,  0.0000)
  36 O      7.890789    2.545897   19.231672    ( 0.0000,  0.0000,  0.0000)
  37 C      8.019460    1.226310   19.776888    ( 0.0000,  0.0000,  0.0000)
  38 C      8.193957    1.224242   21.291066    ( 0.0000,  0.0000,  0.0000)
  39 H      7.159541    0.606775   19.487841    ( 0.0000,  0.0000,  0.0000)
  40 H      8.899148    0.803721   19.286454    ( 0.0000,  0.0000,  0.0000)
  41 H      8.351235    0.205676   21.656306    ( 0.0000,  0.0000,  0.0000)
  42 H      9.054205    1.831718   21.579245    ( 0.0000,  0.0000,  0.0000)
  43 H      7.307727    1.625773   21.791295    ( 0.0000,  0.0000,  0.0000)
  44 H      7.057175    2.920855   19.539808    ( 0.0000,  0.0000,  0.0000)
  45 N      7.859361    3.195476   15.517247    ( 0.0000,  0.0000,  0.0000)
  46 N      8.262263    0.007123   15.440903    ( 0.0000,  0.0000,  0.0000)

Unit cell:
           periodic     x           y           z      points  spacing
  1. axis:    yes    9.702222    0.000000    0.000000    60     0.1617
  2. axis:    yes    0.000000    9.702222    0.000000    60     0.1617
  3. axis:    no     0.000000    0.000000   24.851111   156     0.1593

  Lengths:   9.702222   9.702222  24.851111
  Angles:   90.000000  90.000000  90.000000

Effective grid spacing dv^(1/3) = 0.1609

     iter     time        total  log10-change:
                         energy  eigst   dens
iter:   1 01:35:20  -305.913716  -0.54
iter:   2 01:40:25  -305.846888  -1.08  -1.54
iter:   3 01:45:11  -305.821046  -1.77  -1.80
iter:   4 01:50:36  -305.812585  -1.54  -2.03
Writing to output.gpw (mode='')

iter:   5 01:57:12  -305.808612c -2.03  -2.15
iter:   6 02:00:50  -305.802053c -1.70  -2.24
iter:   7 02:06:05  -305.802701c -1.93  -2.43
iter:   8 02:10:19  -305.801773c -2.64  -2.43
iter:   9 02:16:12  -305.801011c -2.69  -2.56
Writing to output.gpw (mode='')

iter:  10 02:23:08  -305.801037c -3.03  -2.70
iter:  11 02:28:48  -305.801037c -3.34  -2.77
iter:  12 02:34:34  -305.801050c -3.13  -2.95
iter:  13 02:39:39  -305.801049c -3.90  -3.08
iter:  14 02:44:58  -305.801075c -3.95  -3.18
Writing to output.gpw (mode='')

iter:  15 02:50:00  -305.801109c -4.07  -3.24
iter:  16 02:55:02  -305.801105c -4.28  -3.27
iter:  17 02:58:56  -305.801124c -4.23  -3.45
iter:  18 03:04:06  -305.801107c -4.89  -3.64
iter:  19 03:09:58  -305.801106c -5.06  -3.77
Writing to output.gpw (mode='')

iter:  20 03:14:28  -305.801104c -5.09  -3.81
iter:  21 03:20:41  -305.801096c -5.01  -3.93
iter:  22 03:26:49  -305.801095c -5.30  -4.09c
iter:  23 03:32:08  -305.801098c -5.50  -4.14c
iter:  24 03:36:19  -305.801097c -5.71  -4.17c
Writing to output.gpw (mode='')

iter:  25 03:38:55  -305.801099c -5.83  -4.19c
iter:  26 03:42:12  -305.801098c -5.89  -4.36c
iter:  27 03:47:48  -305.801098c -6.07  -4.50c
iter:  28 03:53:29  -305.801099c -6.25  -4.56c
iter:  29 03:58:45  -305.801099c -6.21  -4.72c
Writing to output.gpw (mode='')

iter:  30 04:03:13  -305.801099c -6.45  -4.95c
iter:  31 04:08:01  -305.801099c -6.66  -5.01c
iter:  32 04:12:41  -305.801099c -6.66  -5.02c
iter:  33 04:18:29  -305.801099c -6.90  -5.09c
iter:  34 04:23:36  -305.801099c -7.00  -5.17c
Writing to output.gpw (mode='')

iter:  35 04:28:21  -305.801099c -6.77  -5.26c
iter:  36 04:34:34  -305.801099c -7.25  -5.37c
iter:  37 04:38:24  -305.801099c -7.38  -5.38c
iter:  38 04:43:47  -305.801099c -7.26  -5.37c
iter:  39 04:49:14  -305.801099c -7.55c -5.29c

Converged after 39 iterations.

Dipole moment: (-5.221078, -11.209679, 0.045528) |e|*Ang

Energy contributions relative to reference atoms: (reference = -14434.854043)

Kinetic:       +146.684301
Potential:     -136.928276
External:        +0.000000
XC:            -316.236535
Entropy (-ST):   -0.173975
Local:           +0.766399
--------------------------
Free energy:   -305.888087
Extrapolated:  -305.801099

Dipole-layer corrected work functions: 3.447437, 3.359916 eV

Showing only first 2 kpts
 Kpt  Band  Eigenvalues  Occupancy
  0    31     -3.62577    1.97673
  0    32     -3.46278    1.53062
  0    33     -3.35400    0.54043
  0    34     -3.25489    0.09706

  1    31     -3.63801    1.98173
  1    32     -3.49745    1.73418
  1    33     -3.43459    1.29968
  1    34     -3.23611    0.06770


Fermi level: -3.40368

No gap
Writing to output.gpw (mode='')


Forces in eV/Ang:
  0 Li    0.01954    0.00289   -0.26853
  1 Li   -0.02061   -0.00184   -0.26599
  2 Li    0.00013    0.00215   -0.24775
  3 Li    0.00888    0.00679   -0.28762
  4 Li   -0.00952    0.00158   -0.28415
  5 Li   -0.00152    0.01827   -0.29940
  6 Li    0.01269   -0.00166   -0.28252
  7 Li   -0.01050   -0.00738   -0.28730
  8 Li    0.00157   -0.01990   -0.29834
  9 Li   -0.00409    0.02977    0.26971
 10 Li    0.01146    0.01363    0.28184
 11 Li    0.01379    0.04263    0.23355
 12 Li   -0.02147   -0.03529    0.22055
 13 Li   -0.01252    0.00111    0.27529
 14 Li    0.00934   -0.02078    0.25705
 15 Li   -0.06646   -0.02602    0.30953
 16 Li    0.00051   -0.01213    0.26932
 17 Li    0.05868    0.00960    0.30944
 18 Li    0.11408   -0.00924   -0.05356
 19 Li   -0.11869    0.00109   -0.05718
 20 Li   -0.00845   -0.02113    1.20630
 21 Li    0.06171    0.02782   -0.03085
 22 Li   -0.03529    0.04557   -0.02962
 23 Li   -0.04975   -0.58694    0.66890
 24 Li    0.03645   -0.04346   -0.01725
 25 Li   -0.05146   -0.02843   -0.02502
 26 Li    0.04644    0.60365    0.68642
 27 Li    1.28376   -0.13741    0.28251
 28 Li   -0.02076    0.05604    0.00441
 29 Li   -1.13478    0.33908    0.34614
 30 Li    1.19601   -0.34410    0.38291
 31 Li   -0.00090   -0.05200    0.00226
 32 Li   -1.37366    0.16084    0.28816
 33 Li   -0.09773    0.01487    0.06775
 34 Li   -0.00691   -0.00241   -0.02256
 35 Li    0.09987   -0.00794    0.06622
 36 O     0.01333    0.02009    0.03991
 37 C    -0.00484    0.00455   -0.00032
 38 C    -0.00660   -0.00544   -0.00345
 39 H     0.00214   -0.00390   -0.01461
 40 H    -0.01058    0.00335   -0.01285
 41 H    -0.01373   -0.00488   -0.00031
 42 H    -0.00819   -0.00072   -0.00511
 43 H     0.00074    0.00193   -0.00459
 44 H    -0.01979    0.00281   -0.01215
 45 N     0.05437    0.68802   -1.91171
 46 N     0.01800   -0.69716   -1.76925

System changes: positions 

Initializing position-dependent things.

Density initialized from wave functions
       .-----------------------.  
      /|                       |  
     / |                       |  
    /  |                       |  
   /   |                       |  
  /    |                       |  
 *     |                       |  
 |     |                       |  
 |     |                       |  
 |     |            H    H     |  
 |     |              H        |  
 |     |            H O        |  
 |     |Li     Li  H  C H  N   |  
 |     |                       |  
 |   Li|     Li      Li        |  
 |     |  Li      Li      Li   |  
 |     |   Li         N   Li   |  
 |     |Li      LLi     Li     |  
 |     |                       |  
 |   LLi     LLi     LLi       |  
 |     |  Li      Li      Li   |  
 | Li  |   Li      Li          |  
 |     |Li      Li      Li     |  
 Li    | Li      Li            |  
 |    Li      Li      Li       |  
 |     |                       |  
 |     |                       |  
 |     |                       |  
 |     |                       |  
 |     |                       |  
 |     |                       |  
 |     .-----------------------.  
 |    /                       /   
 |   /                       /    
 |  /                       /     
 | /                       /      
 |/                       /       
 *-----------------------*        

Positions:
   0 Li     1.617037    1.617037   10.000000    ( 0.0000,  0.0000,  0.0000)
   1 Li     4.851111    1.617037   10.000000    ( 0.0000,  0.0000,  0.0000)
   2 Li     8.085185    1.617037   10.000000    ( 0.0000,  0.0000,  0.0000)
   3 Li     1.617037    4.851111   10.000000    ( 0.0000,  0.0000,  0.0000)
   4 Li     4.851111    4.851111   10.000000    ( 0.0000,  0.0000,  0.0000)
   5 Li     8.085185    4.851111   10.000000    ( 0.0000,  0.0000,  0.0000)
   6 Li     1.617037    8.085185   10.000000    ( 0.0000,  0.0000,  0.0000)
   7 Li     4.851111    8.085185   10.000000    ( 0.0000,  0.0000,  0.0000)
   8 Li     8.085185    8.085185   10.000000    ( 0.0000,  0.0000,  0.0000)
   9 Li     0.000000    0.000000   11.617037    ( 0.0000,  0.0000,  0.0000)
  10 Li     3.234074    0.000000   11.617037    ( 0.0000,  0.0000,  0.0000)
  11 Li     6.468148    0.000000   11.617037    ( 0.0000,  0.0000,  0.0000)
  12 Li     0.000000    3.234074   11.617037    ( 0.0000,  0.0000,  0.0000)
  13 Li     3.234074    3.234074   11.617037    ( 0.0000,  0.0000,  0.0000)
  14 Li     6.468148    3.234074   11.617037    ( 0.0000,  0.0000,  0.0000)
  15 Li     0.000000    6.468148   11.617037    ( 0.0000,  0.0000,  0.0000)
  16 Li     3.234074    6.468148   11.617037    ( 0.0000,  0.0000,  0.0000)
  17 Li     6.468148    6.468148   11.617037    ( 0.0000,  0.0000,  0.0000)
  18 Li     1.603927    1.593666   13.516923    ( 0.0000,  0.0000,  0.0000)
  19 Li     4.866949    1.669719   13.518630    ( 0.0000,  0.0000,  0.0000)
  20 Li     8.083927    1.617381   13.665725    ( 0.0000,  0.0000,  0.0000)
  21 Li     1.542707    4.789751   13.512615    ( 0.0000,  0.0000,  0.0000)
  22 Li     4.810634    4.881286   13.502158    ( 0.0000,  0.0000,  0.0000)
  23 Li     8.029974    4.786468   13.578788    ( 0.0000,  0.0000,  0.0000)
  24 Li     1.655914    8.043907   13.480810    ( 0.0000,  0.0000,  0.0000)
  25 Li     4.908049    8.140866   13.491946    ( 0.0000,  0.0000,  0.0000)
  26 Li     8.128995    8.143571   13.566576    ( 0.0000,  0.0000,  0.0000)
  27 Li     0.295609   -0.132007   15.505511    ( 0.0000,  0.0000,  0.0000)
  28 Li     3.368047   -0.041991   15.434305    ( 0.0000,  0.0000,  0.0000)
  29 Li     6.540313    0.239572   15.620283    ( 0.0000,  0.0000,  0.0000)
  30 Li    -0.130744    2.942713   15.726097    ( 0.0000,  0.0000,  0.0000)
  31 Li     3.084214    3.278177   15.463887    ( 0.0000,  0.0000,  0.0000)
  32 Li     6.131314    3.358832   15.572985    ( 0.0000,  0.0000,  0.0000)
  33 Li     0.039422    6.351217   15.462304    ( 0.0000,  0.0000,  0.0000)
  34 Li     3.242711    6.476025   15.443436    ( 0.0000,  0.0000,  0.0000)
  35 Li     6.427535    6.598561   15.456238    ( 0.0000,  0.0000,  0.0000)
  36 O      7.891051    2.546314   19.232568    ( 0.0000,  0.0000,  0.0000)
  37 C      8.019347    1.226383   19.776871    ( 0.0000,  0.0000,  0.0000)
  38 C      8.193843    1.224132   21.290964    ( 0.0000,  0.0000,  0.0000)
  39 H      7.159618    0.606678   19.487552    ( 0.0000,  0.0000,  0.0000)
  40 H      8.898906    0.803783   19.286187    ( 0.0000,  0.0000,  0.0000)
  41 H      8.350953    0.205591   21.656295    ( 0.0000,  0.0000,  0.0000)
  42 H      9.054033    1.831713   21.579151    ( 0.0000,  0.0000,  0.0000)
  43 H      7.307742    1.625819   21.791219    ( 0.0000,  0.0000,  0.0000)
  44 H      7.056795    2.920912   19.539550    ( 0.0000,  0.0000,  0.0000)
  45 N      7.860425    3.208853   15.479565    ( 0.0000,  0.0000,  0.0000)
  46 N      8.262222   -0.006588   15.406001    ( 0.0000,  0.0000,  0.0000)

Unit cell:
           periodic     x           y           z      points  spacing
  1. axis:    yes    9.702222    0.000000    0.000000    60     0.1617
  2. axis:    yes    0.000000    9.702222    0.000000    60     0.1617
  3. axis:    no     0.000000    0.000000   24.851111   156     0.1593

  Lengths:   9.702222   9.702222  24.851111
  Angles:   90.000000  90.000000  90.000000

Effective grid spacing dv^(1/3) = 0.1609

     iter     time        total  log10-change:
                         energy  eigst   dens
iter:   1 04:53:10  -306.224578  -0.67
iter:   2 04:58:49  -306.179157  -1.24  -1.63
iter:   3 05:03:05  -306.163201  -1.89  -1.89
iter:   4 05:07:17  -306.155625c -1.67  -2.10
Writing to output.gpw (mode='')

iter:   5 05:10:48  -306.151711c -2.17  -2.23
iter:   6 05:14:53  -306.148708c -1.75  -2.35
iter:   7 05:19:01  -306.148551c -2.24  -2.46
iter:   8 05:22:12  -306.147726c -2.80  -2.52
iter:   9 05:24:54  -306.147476c -2.83  -2.71
Writing to output.gpw (mode='')

iter:  10 05:28:50  -306.147492c -3.26  -2.78
iter:  11 05:31:08  -306.147466c -3.41  -2.81
iter:  12 05:33:11  -306.147495c -3.25  -3.05
iter:  13 05:35:48  -306.147496c -3.95  -3.15
iter:  14 05:38:23  -306.147490c -4.18  -3.19
Writing to output.gpw (mode='')

iter:  15 05:40:47  -306.147534c -4.10  -3.32
iter:  16 05:43:05  -306.147543c -4.50  -3.35
iter:  17 05:46:24  -306.147530c -4.61  -3.40
iter:  18 05:50:49  -306.147514c -4.55  -3.60
iter:  19 05:54:11  -306.147512c -5.03  -3.78
Writing to output.gpw (mode='')

iter:  20 05:57:04  -306.147504c -4.95  -3.87
iter:  21 06:00:02  -306.147505c -5.43  -4.08c
iter:  22 06:03:13  -306.147504c -5.54  -4.10c
iter:  23 06:07:09  -306.147504c -5.60  -4.13c
iter:  24 06:11:58  -306.147504c -5.68  -4.27c
Writing to output.gpw (mode='')

iter:  25 06:16:00  -306.147505c -6.01  -4.43c
iter:  26 06:21:45  -306.147506c -6.11  -4.48c
iter:  27 06:26:45  -306.147509c -6.12  -4.52c
iter:  28 06:30:38  -306.147510c -6.35  -4.79c
iter:  29 06:34:24  -306.147510c -6.32  -4.96c
Writing to output.gpw (mode='')

iter:  30 06:39:51  -306.147509c -6.41  -4.99c
iter:  31 06:45:39  -306.147509c -6.85  -5.03c
iter:  32 06:51:32  -306.147509c -6.95  -5.05c
iter:  33 06:56:12  -306.147509c -6.82  -5.12c
iter:  34 07:00:10  -306.147509c -7.12  -5.29c
Writing to output.gpw (mode='')

iter:  35 07:03:24  -306.147509c -7.08  -5.40c
iter:  36 07:06:10  -306.147509c -7.31  -5.48c
iter:  37 07:09:00  -306.147509c -7.43c -5.49c

Converged after 37 iterations.

Dipole moment: (-5.590639, -9.892640, 0.059553) |e|*Ang

Energy contributions relative to reference atoms: (reference = -14434.854043)

Kinetic:       +143.748145
Potential:     -134.847703
External:        +0.000000
XC:            -315.723676
Entropy (-ST):   -0.173103
Local:           +0.762277
--------------------------
Free energy:   -306.234060
Extrapolated:  -306.147509

Dipole-layer corrected work functions: 3.442224, 3.327743 eV

Showing only first 2 kpts
 Kpt  Band  Eigenvalues  Occupancy
  0    31     -3.60619    1.97632
  0    32     -3.44486    1.53620
  0    33     -3.33797    0.56167
  0    34     -3.23795    0.10036

  1    31     -3.62732    1.98441
  1    32     -3.47904    1.73550
  1    33     -3.41687    1.30844
  1    34     -3.21947    0.07044


Fermi level: -3.38498

No gap
Writing to output.gpw (mode='')


Forces in eV/Ang:
  0 Li    0.02119    0.00280   -0.26636
  1 Li   -0.02230   -0.00183   -0.26381
  2 Li    0.00013    0.00206   -0.25191
  3 Li    0.00966    0.00692   -0.28738
  4 Li   -0.01021    0.00143   -0.28335
  5 Li   -0.00168    0.01951   -0.30057
  6 Li    0.01325   -0.00155   -0.28192
  7 Li   -0.01128   -0.00760   -0.28719
  8 Li    0.00160   -0.02105   -0.29952
  9 Li   -0.00733    0.02987    0.27585
 10 Li    0.01211    0.01396    0.27916
 11 Li    0.01699    0.04323    0.23891
 12 Li   -0.02452   -0.03608    0.22565
 13 Li   -0.01334    0.00087    0.27240
 14 Li    0.01263   -0.02119    0.26319
 15 Li   -0.07200   -0.02592    0.31389
 16 Li    0.00057   -0.01210    0.26912
 17 Li    0.06445    0.00982    0.31375
 18 Li    0.11544   -0.01002   -0.05140
 19 Li   -0.12001    0.00285   -0.05556
 20 Li   -0.00794   -0.01769    1.19388
 21 Li    0.06150    0.02576   -0.02659
 22 Li   -0.03594    0.04508   -0.02894
 23 Li   -0.05354   -0.60838    0.68947
 24 Li    0.03722   -0.04304   -0.01725
 25 Li   -0.05129   -0.02601   -0.02097
 26 Li    0.04931    0.62073    0.70177
 27 Li    0.85688   -0.10557    0.27943
 28 Li   -0.01740    0.06187    0.00428
 29 Li   -0.70052    0.27456    0.30515
 30 Li    0.72827   -0.26769    0.33072
 31 Li   -0.00614   -0.05794    0.00138
 32 Li   -0.89352    0.11791    0.28845
 33 Li   -0.09397    0.01412    0.06075
 34 Li   -0.00673   -0.00246   -0.02028
 35 Li    0.09584   -0.00752    0.05920
 36 O     0.00969    0.02389    0.02661
 37 C    -0.00309   -0.00079    0.00295
 38 C    -0.00532   -0.00587   -0.00132
 39 H    -0.00042   -0.00043   -0.01417
 40 H    -0.00758    0.00455   -0.01069
 41 H    -0.01296   -0.00480   -0.00052
 42 H    -0.00793   -0.00231   -0.00583
 43 H    -0.00082    0.00177   -0.00526
 44 H    -0.01789    0.00131   -0.01142
 45 N     0.00114    0.71454   -1.91000
 46 N    -0.01438   -0.71490   -1.74710

System changes: positions 

Initializing position-dependent things.

Density initialized from wave functions
       .-----------------------.  
      /|                       |  
     / |                       |  
    /  |                       |  
   /   |                       |  
  /    |                       |  
 *     |                       |  
 |     |                       |  
 |     |                       |  
 |     |            H    H     |  
 |     |              H        |  
 |     |            H O        |  
 |     |Li     Li  H  C H  N   |  
 |     |                       |  
 |   Li|     Li      Li        |  
 |     |  Li      Li      Li   |  
 |     |   Li         N    Li  |  
 |     |Li      LLi     Li     |  
 |     |                       |  
 |   LLi     LLi     LLi       |  
 |     |  Li      Li      Li   |  
 | Li  |   Li      Li          |  
 |     |Li      Li      Li     |  
 Li    | Li      Li            |  
 |    Li      Li      Li       |  
 |     |                       |  
 |     |                       |  
 |     |                       |  
 |     |                       |  
 |     |                       |  
 |     |                       |  
 |     .-----------------------.  
 |    /                       /   
 |   /                       /    
 |  /                       /     
 | /                       /      
 |/                       /       
 *-----------------------*        

Positions:
   0 Li     1.617037    1.617037   10.000000    ( 0.0000,  0.0000,  0.0000)
   1 Li     4.851111    1.617037   10.000000    ( 0.0000,  0.0000,  0.0000)
   2 Li     8.085185    1.617037   10.000000    ( 0.0000,  0.0000,  0.0000)
   3 Li     1.617037    4.851111   10.000000    ( 0.0000,  0.0000,  0.0000)
   4 Li     4.851111    4.851111   10.000000    ( 0.0000,  0.0000,  0.0000)
   5 Li     8.085185    4.851111   10.000000    ( 0.0000,  0.0000,  0.0000)
   6 Li     1.617037    8.085185   10.000000    ( 0.0000,  0.0000,  0.0000)
   7 Li     4.851111    8.085185   10.000000    ( 0.0000,  0.0000,  0.0000)
   8 Li     8.085185    8.085185   10.000000    ( 0.0000,  0.0000,  0.0000)
   9 Li     0.000000    0.000000   11.617037    ( 0.0000,  0.0000,  0.0000)
  10 Li     3.234074    0.000000   11.617037    ( 0.0000,  0.0000,  0.0000)
  11 Li     6.468148    0.000000   11.617037    ( 0.0000,  0.0000,  0.0000)
  12 Li     0.000000    3.234074   11.617037    ( 0.0000,  0.0000,  0.0000)
  13 Li     3.234074    3.234074   11.617037    ( 0.0000,  0.0000,  0.0000)
  14 Li     6.468148    3.234074   11.617037    ( 0.0000,  0.0000,  0.0000)
  15 Li     0.000000    6.468148   11.617037    ( 0.0000,  0.0000,  0.0000)
  16 Li     3.234074    6.468148   11.617037    ( 0.0000,  0.0000,  0.0000)
  17 Li     6.468148    6.468148   11.617037    ( 0.0000,  0.0000,  0.0000)
  18 Li     1.606180    1.593476   13.515883    ( 0.0000,  0.0000,  0.0000)
  19 Li     4.864603    1.669750   13.517517    ( 0.0000,  0.0000,  0.0000)
  20 Li     8.083766    1.616984   13.689431    ( 0.0000,  0.0000,  0.0000)
  21 Li     1.543926    4.790292   13.512024    ( 0.0000,  0.0000,  0.0000)
  22 Li     4.809940    4.882176   13.501585    ( 0.0000,  0.0000,  0.0000)
  23 Li     8.028974    4.774773   13.592082    ( 0.0000,  0.0000,  0.0000)
  24 Li     1.656630    8.043059   13.480478    ( 0.0000,  0.0000,  0.0000)
  25 Li     4.907033    8.140315   13.491471    ( 0.0000,  0.0000,  0.0000)
  26 Li     8.129927    8.155558   13.580175    ( 0.0000,  0.0000,  0.0000)
  27 Li     0.320346   -0.134752   15.510901    ( 0.0000,  0.0000,  0.0000)
  28 Li     3.367654   -0.040862   15.434397    ( 0.0000,  0.0000,  0.0000)
  29 Li     6.518749    0.246037   15.626842    ( 0.0000,  0.0000,  0.0000)
  30 Li    -0.107912    2.936164   15.733340    ( 0.0000,  0.0000,  0.0000)
  31 Li     3.084175    3.277127   15.463933    ( 0.0000,  0.0000,  0.0000)
  32 Li     6.105037    3.362007   15.578452    ( 0.0000,  0.0000,  0.0000)
  33 Li     0.037512    6.351506   15.463602    ( 0.0000,  0.0000,  0.0000)
  34 Li     3.242575    6.475977   15.442999    ( 0.0000,  0.0000,  0.0000)
  35 Li     6.429485    6.598403   15.457506    ( 0.0000,  0.0000,  0.0000)
  36 O      7.891264    2.546736   19.233318    ( 0.0000,  0.0000,  0.0000)
  37 C      8.019254    1.226432   19.776867    ( 0.0000,  0.0000,  0.0000)
  38 C      8.193732    1.224022   21.290884    ( 0.0000,  0.0000,  0.0000)
  39 H      7.159662    0.606623   19.487269    ( 0.0000,  0.0000,  0.0000)
  40 H      8.898703    0.803856   19.285948    ( 0.0000,  0.0000,  0.0000)
  41 H      8.350683    0.205499   21.656286    ( 0.0000,  0.0000,  0.0000)
  42 H      9.053871    1.831692   21.579051    ( 0.0000,  0.0000,  0.0000)
  43 H      7.307740    1.625861   21.791133    ( 0.0000,  0.0000,  0.0000)
  44 H      7.056444    2.920950   19.539300    ( 0.0000,  0.0000,  0.0000)
  45 N      7.860669    3.222572   15.441992    ( 0.0000,  0.0000,  0.0000)
  46 N      8.261812   -0.020495   15.371524    ( 0.0000,  0.0000,  0.0000)

Unit cell:
           periodic     x           y           z      points  spacing
  1. axis:    yes    9.702222    0.000000    0.000000    60     0.1617
  2. axis:    yes    0.000000    9.702222    0.000000    60     0.1617
  3. axis:    no     0.000000    0.000000   24.851111   156     0.1593

  Lengths:   9.702222   9.702222  24.851111
  Angles:   90.000000  90.000000  90.000000

Effective grid spacing dv^(1/3) = 0.1609

     iter     time        total  log10-change:
                         energy  eigst   dens
iter:   1 07:12:36  -306.487792  -0.77
iter:   2 07:14:33  -306.455308  -1.36  -1.70
iter:   3 07:18:01  -306.444326  -1.99  -1.96
iter:   4 07:21:02  -306.437331c -1.73  -2.15
Writing to output.gpw (mode='')

iter:   5 07:26:37  -306.433885c -2.23  -2.29
iter:   6 07:29:36  -306.432435c -1.83  -2.42
iter:   7 07:33:15  -306.431686c -2.51  -2.48
iter:   8 07:36:57  -306.431138c -2.79  -2.61
iter:   9 07:41:02  -306.431088c -3.10  -2.81
Writing to output.gpw (mode='')

iter:  10 07:44:48  -306.431086c -3.34  -2.83
iter:  11 07:48:22  -306.431057c -3.48  -2.87
iter:  12 07:51:28  -306.431182c -3.18  -3.14
iter:  13 07:54:39  -306.431075c -4.03  -3.07
iter:  14 07:58:14  -306.431098c -3.92  -3.32
Writing to output.gpw (mode='')

iter:  15 08:03:44  -306.431098c -4.57  -3.40
iter:  16 08:07:56  -306.431100c -4.52  -3.47
iter:  17 08:12:55  -306.431093c -4.62  -3.72
iter:  18 08:17:23  -306.431096c -5.06  -3.78
iter:  19 08:21:19  -306.431095c -5.01  -3.86
Writing to output.gpw (mode='')

iter:  20 08:26:29  -306.431096c -5.24  -4.11c
iter:  21 08:30:18  -306.431092c -5.22  -4.15c
iter:  22 08:34:33  -306.431092c -5.53  -4.17c
iter:  23 08:38:45  -306.431092c -5.67  -4.27c
iter:  24 08:43:54  -306.431093c -5.83  -4.47c
Writing to output.gpw (mode='')

iter:  25 08:48:27  -306.431093c -6.17  -4.60c
iter:  26 08:54:17  -306.431094c -6.08  -4.67c
iter:  27 08:56:49  -306.431095c -6.26  -4.82c
iter:  28 09:00:12  -306.431095c -6.48  -4.90c
iter:  29 09:03:59  -306.431095c -6.44  -4.93c
Writing to output.gpw (mode='')

iter:  30 09:08:09  -306.431095c -6.65  -5.02c
iter:  31 09:12:20  -306.431095c -6.92  -5.20c
iter:  32 09:15:39  -306.431095c -7.02  -5.27c
iter:  33 09:20:58  -306.431095c -6.98  -5.25c
iter:  34 09:25:04  -306.431095c -7.24  -5.08c
Writing to output.gpw (mode='')

iter:  35 09:28:02  -306.431095c -6.93  -5.10c
iter:  36 09:31:48  -306.431095c -7.18  -5.10c
iter:  37 09:34:43  -306.431095c -7.43c -5.08c

Converged after 37 iterations.

Dipole moment: (-5.874434, -8.492689, 0.073055) |e|*Ang

Energy contributions relative to reference atoms: (reference = -14434.854043)

Kinetic:       +141.468540
Potential:     -133.226164
External:        +0.000000
XC:            -315.346391
Entropy (-ST):   -0.172152
Local:           +0.758997
[...]

Converged after 36 iterations.

Dipole moment: (2.592033, -0.260088, 0.264414) |e|*Ang

Energy contributions relative to reference atoms: (reference = -14434.854043)

Kinetic:       +140.502283
Potential:     -132.500658
External:        +0.000000
XC:            -317.691538
Entropy (-ST):   -0.144114
Local:           +0.757193
--------------------------
Free energy:   -309.076834
Extrapolated:  -309.004777

Dipole-layer corrected work functions: 3.320760, 2.812466 eV

Showing only first 2 kpts
 Kpt  Band  Eigenvalues  Occupancy
  0    31     -3.23955    1.93898
  0    32     -3.14840    1.67389
  0    33     -3.06495    0.98333
  0    34     -2.87370    0.04133

  1    31     -3.33464    1.99065
  1    32     -3.17251    1.78526
  1    33     -2.99147    0.36398
  1    34     -2.86902    0.03771


Fermi level: -3.06661

Gap: 0.011 eV
Transition (v -> c):
  (s=0, k=7, n=32, [0.38, 0.38, 0.00]) -> (s=0, k=0, n=33, [0.12, -0.38, 0.00])
Writing to output.gpw (mode='')


Forces in eV/Ang:
  0 Li    0.03208    0.00720   -0.27043
  1 Li   -0.03281    0.00162   -0.28662
  2 Li   -0.00527    0.00937   -0.40266
  3 Li    0.01439   -0.01327   -0.30285
  4 Li   -0.02556   -0.02103   -0.29232
  5 Li   -0.00447    0.04760   -0.36694
  6 Li    0.04895    0.00640   -0.25106
  7 Li   -0.03568    0.00125   -0.28350
  8 Li   -0.00182   -0.04438   -0.33712
  9 Li    0.02242    0.08327    0.45950
 10 Li    0.03301    0.15935    0.21491
 11 Li   -0.09547    0.06998    0.37285
 12 Li   -0.07641   -0.10938    0.55178
 13 Li   -0.02349   -0.05667    0.26604
 14 Li    0.28148   -0.12173    0.93720
 15 Li    0.22679   -0.09094    0.15901
 16 Li    0.02860   -0.03596    0.30579
 17 Li   -0.24595   -0.02616    0.06045
 18 Li    0.09641   -0.01487   -0.11298
 19 Li    0.02290    0.11358   -0.13686
 20 Li    0.06529   -0.28255   -0.38622
 21 Li    0.05917    0.12320   -0.07760
 22 Li    0.11091   -0.09794    0.01932
 23 Li   -0.27223   -0.36373    0.12559
 24 Li   -0.01645    0.06019   -0.01924
 25 Li   -0.02077   -0.05402   -0.04597
 26 Li   -0.03942    0.14879    0.22177
 27 Li    0.04446   -0.05586    0.00534
 28 Li    0.02266    0.08933   -0.10994
 29 Li    0.12134   -0.22154    0.13557
 30 Li   -0.35158   -0.11875   -0.02483
 31 Li   -0.02802   -0.07352   -0.07826
 32 Li    0.05432    0.06527   -0.07046
 33 Li   -0.35481    0.35448   -0.04380
 34 Li    0.02379    0.00286   -0.07038
 35 Li    0.08429    0.16532    0.03107
 36 O     0.02857    0.03399    0.04615
 37 C     0.00001   -0.00573   -0.02129
 38 C     0.00641    0.04831   -0.02199
 39 H     0.00503   -0.04158   -0.01191
 40 H    -0.01284   -0.01561   -0.05505
 41 H    -0.00591    0.04489   -0.04827
 42 H     0.03718   -0.00151    0.05252
 43 H    -0.02153   -0.02047   -0.01022
 44 H    -0.00600    0.02639   -0.03764
 45 N     0.07891    0.20475   -0.11549
 46 N     0.18594    0.06100    0.33740

System changes: positions 

Initializing position-dependent things.

Density initialized from wave functions
       .-----------------------.  
      /|                       |  
     / |                       |  
    /  |                       |  
   /   |                       |  
  /    |                       |  
 *     |                       |  
 |     |                       |  
 |     |                       |  
 |     |            H   H      |  
 |     |              H        |  
 |     |       Li   H          |  
 |     |           H  CLi      |  
 |     |                H  N   |  
 |     |     Li      Li      Li|  
 |     |  LLi     Li           |  
 |     |           Li     Li   |  
 |     |Li      Li    N Li     |  
 |     |                 Li    |  
 |   LLi     LLi     LLi       |  
 |     |  Li      Li      Li   |  
 | Li  |   Li      Li          |  
 |     |Li      Li      Li     |  
 Li    | Li      Li            |  
 |    Li      Li      Li       |  
 |     |                       |  
 |     |                       |  
 |     |                       |  
 |     |                       |  
 |     |                       |  
 |     |                       |  
 |     .-----------------------.  
 |    /                       /   
 |   /                       /    
 |  /                       /     
 | /                       /      
 |/                       /       
 *-----------------------*        

Positions:
   0 Li     1.617037    1.617037   10.000000    ( 0.0000,  0.0000,  0.0000)
   1 Li     4.851111    1.617037   10.000000    ( 0.0000,  0.0000,  0.0000)
   2 Li     8.085185    1.617037   10.000000    ( 0.0000,  0.0000,  0.0000)
   3 Li     1.617037    4.851111   10.000000    ( 0.0000,  0.0000,  0.0000)
   4 Li     4.851111    4.851111   10.000000    ( 0.0000,  0.0000,  0.0000)
   5 Li     8.085185    4.851111   10.000000    ( 0.0000,  0.0000,  0.0000)
   6 Li     1.617037    8.085185   10.000000    ( 0.0000,  0.0000,  0.0000)
   7 Li     4.851111    8.085185   10.000000    ( 0.0000,  0.0000,  0.0000)
   8 Li     8.085185    8.085185   10.000000    ( 0.0000,  0.0000,  0.0000)
   9 Li     0.000000    0.000000   11.617037    ( 0.0000,  0.0000,  0.0000)
  10 Li     3.234074    0.000000   11.617037    ( 0.0000,  0.0000,  0.0000)
  11 Li     6.468148    0.000000   11.617037    ( 0.0000,  0.0000,  0.0000)
  12 Li     0.000000    3.234074   11.617037    ( 0.0000,  0.0000,  0.0000)
  13 Li     3.234074    3.234074   11.617037    ( 0.0000,  0.0000,  0.0000)
  14 Li     6.468148    3.234074   11.617037    ( 0.0000,  0.0000,  0.0000)
  15 Li     0.000000    6.468148   11.617037    ( 0.0000,  0.0000,  0.0000)
  16 Li     3.234074    6.468148   11.617037    ( 0.0000,  0.0000,  0.0000)
  17 Li     6.468148    6.468148   11.617037    ( 0.0000,  0.0000,  0.0000)
  18 Li     1.794243    1.676733   13.743685    ( 0.0000,  0.0000,  0.0000)
  19 Li     4.830214    1.666382   13.759608    ( 0.0000,  0.0000,  0.0000)
  20 Li     8.000693    1.398110   14.040885    ( 0.0000,  0.0000,  0.0000)
  21 Li     1.779267    4.860090   13.598997    ( 0.0000,  0.0000,  0.0000)
  22 Li     4.933803    4.748116   13.581891    ( 0.0000,  0.0000,  0.0000)
  23 Li     8.091612    4.901011   13.225980    ( 0.0000,  0.0000,  0.0000)
  24 Li     1.703423    8.234408   13.496980    ( 0.0000,  0.0000,  0.0000)
  25 Li     4.680246    8.132855   13.512160    ( 0.0000,  0.0000,  0.0000)
  26 Li     8.047904    7.974802   13.056568    ( 0.0000,  0.0000,  0.0000)
  27 Li    -0.017765    0.035096   15.577405    ( 0.0000,  0.0000,  0.0000)
  28 Li     3.287061   -0.101529   15.788823    ( 0.0000,  0.0000,  0.0000)
  29 Li     6.555527   -0.256819   15.282052    ( 0.0000,  0.0000,  0.0000)
  30 Li    -0.396877    3.561236   14.962467    ( 0.0000,  0.0000,  0.0000)
  31 Li     3.065894    3.315383   15.850873    ( 0.0000,  0.0000,  0.0000)
  32 Li     6.386992    3.216280   15.582489    ( 0.0000,  0.0000,  0.0000)
  33 Li    -0.053499    7.026670   15.051506    ( 0.0000,  0.0000,  0.0000)
  34 Li     3.293367    6.489030   15.561297    ( 0.0000,  0.0000,  0.0000)
  35 Li     6.620866    6.574565   15.043596    ( 0.0000,  0.0000,  0.0000)
  36 O      7.860830    2.521414   19.057828    ( 0.0000,  0.0000,  0.0000)
  37 C      8.009762    1.220697   19.658376    ( 0.0000,  0.0000,  0.0000)
  38 C      8.160111    1.269558   21.173413    ( 0.0000,  0.0000,  0.0000)
  39 H      7.162170    0.584907   19.374462    ( 0.0000,  0.0000,  0.0000)
  40 H      8.913865    0.805793   19.207996    ( 0.0000,  0.0000,  0.0000)
  41 H      8.312199    0.265314   21.582566    ( 0.0000,  0.0000,  0.0000)
  42 H      9.015377    1.889853   21.443107    ( 0.0000,  0.0000,  0.0000)
  43 H      7.270314    1.691885   21.648403    ( 0.0000,  0.0000,  0.0000)
  44 H      7.068668    2.923221   19.437380    ( 0.0000,  0.0000,  0.0000)
  45 N      7.501959    3.256524   14.047531    ( 0.0000,  0.0000,  0.0000)
  46 N      8.263202   -0.724809   14.574580    ( 0.0000,  0.0000,  0.0000)

Unit cell:
           periodic     x           y           z      points  spacing
  1. axis:    yes    9.702222    0.000000    0.000000    60     0.1617
  2. axis:    yes    0.000000    9.702222    0.000000    60     0.1617
  3. axis:    no     0.000000    0.000000   24.851111   156     0.1593

  Lengths:   9.702222   9.702222  24.851111
  Angles:   90.000000  90.000000  90.000000

Effective grid spacing dv^(1/3) = 0.1609

     iter     time        total  log10-change:
                         energy  eigst   dens
iter:   1 15:48:37  -309.152668  -0.81
iter:   2 15:52:16  -309.050593  -1.44  -1.59
iter:   3 15:56:18  -309.041891  -2.15  -1.93
iter:   4 16:01:07  -309.032345c -1.97  -2.12
Writing to output.gpw (mode='')

iter:   5 16:04:39  -309.031968c -2.43  -2.46
iter:   6 16:08:27  -309.030871c -2.13  -2.59
iter:   7 16:12:32  -309.031278c -2.43  -2.80
iter:   8 16:17:28  -309.030916c -3.08  -2.78
iter:   9 16:21:18  -309.030845c -3.27  -3.03
Writing to output.gpw (mode='')

iter:  10 16:25:30  -309.030970c -3.37  -3.15
iter:  11 16:28:38  -309.030893c -3.68  -3.18
iter:  12 16:32:15  -309.030910c -4.00  -3.35
iter:  13 16:35:18  -309.030945c -4.15  -3.42
iter:  14 16:39:11  -309.030946c -4.24  -3.59
Writing to output.gpw (mode='')

iter:  15 16:43:50  -309.030943c -4.44  -3.68
iter:  16 16:50:17  -309.030942c -4.67  -3.74
iter:  17 16:55:54  -309.030941c -4.74  -3.77
iter:  18 17:00:21  -309.030939c -5.05  -3.94
iter:  19 17:06:05  -309.030944c -5.06  -3.95
Writing to output.gpw (mode='')

iter:  20 17:11:05  -309.030944c -5.29  -3.97
iter:  21 17:14:13  -309.030945c -5.43  -4.01c
iter:  22 17:18:07  -309.030946c -5.62  -4.22c
iter:  23 17:21:04  -309.030946c -5.60  -4.25c
iter:  24 17:24:38  -309.030943c -5.76  -4.29c
Writing to output.gpw (mode='')

iter:  25 17:28:49  -309.030944c -5.90  -4.49c
iter:  26 17:33:35  -309.030945c -6.19  -4.54c
iter:  27 17:37:27  -309.030946c -6.22  -4.61c
iter:  28 17:39:59  -309.030946c -6.27  -4.67c
iter:  29 17:43:07  -309.030947c -6.43  -4.71c
Writing to output.gpw (mode='')

iter:  30 17:47:43  -309.030947c -6.57  -4.78c
iter:  31 17:51:45  -309.030945c -6.77  -4.81c
iter:  32 17:55:35  -309.030946c -6.94  -5.06c
iter:  33 17:59:27  -309.030945c -6.94  -5.25c
iter:  34 18:01:49  -309.030946c -7.21  -5.29c
Writing to output.gpw (mode='')

iter:  35 18:04:24  -309.030946c -7.27  -5.30c
iter:  36 18:07:39  -309.030946c -7.41c -5.31c

Converged after 36 iterations.

Dipole moment: (2.690308, -0.739576, 0.266753) |e|*Ang

Energy contributions relative to reference atoms: (reference = -14434.854043)

Kinetic:       +140.332639
Potential:     -132.346637
External:        +0.000000
XC:            -317.701681
Entropy (-ST):   -0.144203
Local:           +0.756834
--------------------------
Free energy:   -309.103047
Extrapolated:  -309.030946

Dipole-layer corrected work functions: 3.321404, 2.808614 eV

Showing only first 2 kpts
 Kpt  Band  Eigenvalues  Occupancy
  0    31     -3.23887    1.94006
  0    32     -3.14895    1.68548
  0    33     -3.06355    0.98542
  0    34     -2.87017    0.03981

  1    31     -3.33047    1.99016
  1    32     -3.17269    1.79203
  1    33     -2.99146    0.37361
  1    34     -2.86989    0.03959


Fermi level: -3.06501

Gap: 0.011 eV
Transition (v -> c):
  (s=0, k=7, n=32, [0.38, 0.38, 0.00]) -> (s=0, k=0, n=33, [0.12, -0.38, 0.00])
Writing to output.gpw (mode='')


Forces in eV/Ang:
  0 Li    0.03239    0.00699   -0.27057
  1 Li   -0.03368    0.00171   -0.28917
  2 Li   -0.00533    0.01014   -0.40145
  3 Li    0.01352   -0.01371   -0.30323
  4 Li   -0.02490   -0.02137   -0.29241
  5 Li   -0.00474    0.04735   -0.36806
  6 Li    0.05074    0.00643   -0.25012
  7 Li   -0.03600    0.00110   -0.28331
  8 Li   -0.00266   -0.04370   -0.33553
  9 Li    0.02797    0.08504    0.45425
 10 Li    0.03620    0.16295    0.20714
 11 Li   -0.10658    0.07315    0.36200
 12 Li   -0.07239   -0.11200    0.54843
 13 Li   -0.02627   -0.05386    0.26125
 14 Li    0.28874   -0.13033    0.95657
 15 Li    0.22741   -0.09096    0.16410
 16 Li    0.03067   -0.03674    0.29817
 17 Li   -0.25297   -0.02606    0.05376
 18 Li    0.08691   -0.01774   -0.11381
 19 Li    0.04343    0.11936   -0.13717
 20 Li    0.08227   -0.37166   -0.38849
 21 Li    0.04965    0.11897   -0.07660
 22 Li    0.11952   -0.10413    0.02568
 23 Li   -0.29390   -0.36844    0.11899
 24 Li   -0.02347    0.05716   -0.01328
 25 Li   -0.01380   -0.05186   -0.04456
 26 Li   -0.03871    0.14620    0.21717
 27 Li    0.00742   -0.06074   -0.01901
 28 Li    0.02760    0.09124   -0.11240
 29 Li    0.13977   -0.23449    0.13928
 30 Li   -0.36323   -0.12169   -0.00796
 31 Li   -0.02832   -0.07460   -0.07939
 32 Li    0.06637    0.06943   -0.10060
 33 Li   -0.38965    0.36153   -0.05110
 34 Li    0.02493    0.00400   -0.06624
 35 Li    0.08942    0.18584    0.03287
 36 O     0.03539    0.03767    0.07701
 37 C    -0.00273   -0.00742   -0.02578
 38 C     0.00502    0.05073   -0.02432
 39 H     0.01535   -0.06345   -0.01363
 40 H    -0.02234   -0.02649   -0.05753
 41 H    -0.00448    0.04822   -0.06834
 42 H     0.03653    0.00328    0.05827
 43 H    -0.02157   -0.01116   -0.01160
 44 H    -0.00799    0.03730   -0.04168
 45 N     0.11689    0.29108   -0.13173
 46 N     0.20130    0.06896    0.39831

System changes: positions 

Initializing position-dependent things.

Density initialized from wave functions
       .-----------------------.  
      /|                       |  
     / |                       |  
    /  |                       |  
   /   |                       |  
  /    |                       |  
 *     |                       |  
 |     |                       |  
 |     |                       |  
 |     |            H   H      |  
 |     |              H        |  
 |     |       Li   H          |  
 |     |           H  CLi      |  
 |     |                H  N   |  
 |     |     Li      Li      Li|  
 |     |  LLi     Li           |  
 |     |           Li     Li   |  
 |     |Li      Li      Li     |  
 |     |              N  Li    |  
 |   LiLi    LLi     LLi       |  
 |     |  Li      Li      Li   |  
 | Li  |   Li      Li          |  
 |     |Li      Li      Li     |  
 Li    | Li      Li            |  
 |    Li      Li      Li       |  
 |     |                       |  
 |     |                       |  
 |     |                       |  
 |     |                       |  
 |     |                       |  
 |     |                       |  
 |     .-----------------------.  
 |    /                       /   
 |   /                       /    
 |  /                       /     
 | /                       /      
 |/                       /       
 *-----------------------*        

Positions:
   0 Li     1.617037    1.617037   10.000000    ( 0.0000,  0.0000,  0.0000)
   1 Li     4.851111    1.617037   10.000000    ( 0.0000,  0.0000,  0.0000)
   2 Li     8.085185    1.617037   10.000000    ( 0.0000,  0.0000,  0.0000)
   3 Li     1.617037    4.851111   10.000000    ( 0.0000,  0.0000,  0.0000)
   4 Li     4.851111    4.851111   10.000000    ( 0.0000,  0.0000,  0.0000)
   5 Li     8.085185    4.851111   10.000000    ( 0.0000,  0.0000,  0.0000)
   6 Li     1.617037    8.085185   10.000000    ( 0.0000,  0.0000,  0.0000)
   7 Li     4.851111    8.085185   10.000000    ( 0.0000,  0.0000,  0.0000)
   8 Li     8.085185    8.085185   10.000000    ( 0.0000,  0.0000,  0.0000)
   9 Li     0.000000    0.000000   11.617037    ( 0.0000,  0.0000,  0.0000)
  10 Li     3.234074    0.000000   11.617037    ( 0.0000,  0.0000,  0.0000)
  11 Li     6.468148    0.000000   11.617037    ( 0.0000,  0.0000,  0.0000)
  12 Li     0.000000    3.234074   11.617037    ( 0.0000,  0.0000,  0.0000)
  13 Li     3.234074    3.234074   11.617037    ( 0.0000,  0.0000,  0.0000)
  14 Li     6.468148    3.234074   11.617037    ( 0.0000,  0.0000,  0.0000)
  15 Li     0.000000    6.468148   11.617037    ( 0.0000,  0.0000,  0.0000)
  16 Li     3.234074    6.468148   11.617037    ( 0.0000,  0.0000,  0.0000)
  17 Li     6.468148    6.468148   11.617037    ( 0.0000,  0.0000,  0.0000)
  18 Li     1.806408    1.682075   13.743190    ( 0.0000,  0.0000,  0.0000)
  19 Li     4.827508    1.667664   13.757452    ( 0.0000,  0.0000,  0.0000)
  20 Li     7.997367    1.400692   14.028468    ( 0.0000,  0.0000,  0.0000)
  21 Li     1.787860    4.869331   13.597628    ( 0.0000,  0.0000,  0.0000)
  22 Li     4.937302    4.743715   13.578868    ( 0.0000,  0.0000,  0.0000)
  23 Li     8.087722    4.897804   13.219078    ( 0.0000,  0.0000,  0.0000)
  24 Li     1.708461    8.241431   13.491198    ( 0.0000,  0.0000,  0.0000)
  25 Li     4.672349    8.128199   13.508626    ( 0.0000,  0.0000,  0.0000)
  26 Li     8.041710    7.975199   13.050176    ( 0.0000,  0.0000,  0.0000)
  27 Li    -0.014009    0.046006   15.580084    ( 0.0000,  0.0000,  0.0000)
  28 Li     3.283735   -0.101307   15.789639    ( 0.0000,  0.0000,  0.0000)
  29 Li     6.554174   -0.260255   15.268969    ( 0.0000,  0.0000,  0.0000)
  30 Li    -0.399158    3.557169   14.928405    ( 0.0000,  0.0000,  0.0000)
  31 Li     3.064335    3.315127   15.854268    ( 0.0000,  0.0000,  0.0000)
  32 Li     6.386922    3.207399   15.581680    ( 0.0000,  0.0000,  0.0000)
  33 Li    -0.062983    7.064919   15.044646    ( 0.0000,  0.0000,  0.0000)
  34 Li     3.296695    6.489428   15.556587    ( 0.0000,  0.0000,  0.0000)
  35 Li     6.626290    6.574580   15.037898    ( 0.0000,  0.0000,  0.0000)
  36 O      7.859358    2.521057   19.051214    ( 0.0000,  0.0000,  0.0000)
  37 C      8.010134    1.221404   19.653953    ( 0.0000,  0.0000,  0.0000)
  38 C      8.159945    1.270784   21.169556    ( 0.0000,  0.0000,  0.0000)
  39 H      7.161563    0.586942   19.370977    ( 0.0000,  0.0000,  0.0000)
  40 H      8.915370    0.808073   19.204567    ( 0.0000,  0.0000,  0.0000)
  41 H      8.311742    0.267395   21.581608    ( 0.0000,  0.0000,  0.0000)
  42 H      9.015321    1.890848   21.439277    ( 0.0000,  0.0000,  0.0000)
  43 H      7.269674    1.692269   21.644331    ( 0.0000,  0.0000,  0.0000)
  44 H      7.068867    2.922677   19.434334    ( 0.0000,  0.0000,  0.0000)
  45 N      7.481165    3.242331   14.021061    ( 0.0000,  0.0000,  0.0000)
  46 N      8.269066   -0.751389   14.585453    ( 0.0000,  0.0000,  0.0000)

Unit cell:
           periodic     x           y           z      points  spacing
  1. axis:    yes    9.702222    0.000000    0.000000    60     0.1617
  2. axis:    yes    0.000000    9.702222    0.000000    60     0.1617
  3. axis:    no     0.000000    0.000000   24.851111   156     0.1593

  Lengths:   9.702222   9.702222  24.851111
  Angles:   90.000000  90.000000  90.000000

Effective grid spacing dv^(1/3) = 0.1609

     iter     time        total  log10-change:
                         energy  eigst   dens
iter:   1 18:11:27  -309.179352  -0.82
iter:   2 18:14:52  -309.075259  -1.45  -1.58
iter:   3 18:17:52  -309.066649  -2.16  -1.94
iter:   4 18:21:51  -309.057670c -1.99  -2.13
Writing to output.gpw (mode='')

iter:   5 18:24:20  -309.057197c -2.39  -2.46
iter:   6 18:27:45  -309.056209c -2.17  -2.60
iter:   7 18:32:13  -309.056606c -2.45  -2.80
iter:   8 18:35:24  -309.056217c -3.16  -2.79
iter:   9 18:39:17  -309.056160c -3.31  -3.06
Writing to output.gpw (mode='')

iter:  10 18:43:48  -309.056312c -3.36  -3.15
iter:  11 18:47:52  -309.056207c -3.62  -3.17
iter:  12 18:51:31  -309.056224c -4.14  -3.33
iter:  13 18:54:16  -309.056257c -4.09  -3.44
iter:  14 18:58:24  -309.056238c -4.35  -3.60
Writing to output.gpw (mode='')

iter:  15 19:02:35  -309.056243c -4.44  -3.76
iter:  16 19:07:10  -309.056246c -4.78  -3.81
iter:  17 19:11:56  -309.056252c -4.75  -3.83
iter:  18 19:16:38  -309.056247c -4.99  -3.92
iter:  19 19:23:20  -309.056249c -5.20  -3.99
Writing to output.gpw (mode='')

iter:  20 19:27:45  -309.056250c -5.21  -4.08c
iter:  21 19:32:59  -309.056251c -5.40  -4.19c
iter:  22 19:38:29  -309.056251c -5.64  -4.29c
iter:  23 19:42:56  -309.056253c -5.55  -4.44c
iter:  24 19:48:09  -309.056253c -5.84  -4.47c
