
  ___ ___ ___ _ _ _  
 |   |   |_  | | | | 
 | | | | | . | | | | 
 |__ |  _|___|_____|  22.8.0
 |___|_|             

User:   vazumah@d006
Date:   Sat Mar 11 16:33:35 2023
Arch:   x86_64
Pid:    13699
CWD:    /home/vazumah/Research_Projects/LiMEAS/LiNRR_proton_donors/N2_with_proton_donor/Li_BCC_100/adsorbates/CH3CH2OH_z/bridge/8.085_1.617/N2_y/barrier/7.86_3.16_15.62
Python: 3.10.6
gpaw:   /home/vazumah/anaconda3/envs/NAME/lib/python3.10/site-packages/gpaw
_gpaw:  /home/vazumah/anaconda3/envs/NAME/lib/python3.10/site-packages/
        _gpaw.cpython-310-x86_64-linux-gnu.so
ase:    /home/vazumah/anaconda3/envs/NAME/lib/python3.10/site-packages/ase (version 3.22.1)
numpy:  /home/vazumah/anaconda3/envs/NAME/lib/python3.10/site-packages/numpy (version 1.23.3)
scipy:  /home/vazumah/anaconda3/envs/NAME/lib/python3.10/site-packages/scipy (version 1.9.1)
libxc:  5.2.3
units:  Angstrom and eV
cores: 32
OpenMP: True
OMP_NUM_THREADS: 1

Reading from output.gpw
Read dipole, energy, free_energy, magmom, magmoms
Reading input parameters:
  h: 0.16
  kpts: {size: [4, 4, 1]}
  occupations: {name: fermi-dirac,
                width: 0.05}
  poissonsolver: {dipolelayer: xy}
  xc: BEEF-vdW

Initialize ...

species:
  Li:
    name: Lithium
    id: 830b4218f175192f93f959cfc0aad614
    Z: 3.0
    valence: 1
    core: 2
    charge: 0.0
    file: /home/vazumah/anaconda3/envs/NAME/share/gpaw/Li.PBE.gz
    compensation charges: {type: gauss,
                           rc: 0.33,
                           lmax: 2}
    cutoffs: {filter: 1.91,
              core: 2.55}
    valence states:
      #              energy  rcut
      - 2s(1.00)    -2.874   1.058
      - 2p(0.00)    -1.090   1.058
      -  s          24.337   1.058
  
    # Using partial waves for Li as LCAO basis

  O:
    name: Oxygen
    id: 32ecd46bf208036f09c70b0ec9a88b78
    Z: 8.0
    valence: 6
    core: 2
    charge: 0.0
    file: /home/vazumah/anaconda3/envs/NAME/share/gpaw/O.PBE.gz
    compensation charges: {type: gauss,
                           rc: 0.21,
                           lmax: 2}
    cutoffs: {filter: 1.17,
              core: 0.83}
    valence states:
      #              energy  rcut
      - 2s(2.00)   -23.961   0.688
      - 2p(4.00)    -9.029   0.598
      -  s           3.251   0.688
      -  p          18.182   0.598
      -  d           0.000   0.619
  
    # Using partial waves for O as LCAO basis

  C:
    name: Carbon
    id: 4aa54d4b901d75f77cc0ea3eec22967b
    Z: 6.0
    valence: 4
    core: 2
    charge: 0.0
    file: /home/vazumah/anaconda3/envs/NAME/share/gpaw/C.PBE.gz
    compensation charges: {type: gauss,
                           rc: 0.20,
                           lmax: 2}
    cutoffs: {filter: 1.14,
              core: 1.14}
    valence states:
      #              energy  rcut
      - 2s(2.00)   -13.751   0.635
      - 2p(2.00)    -5.284   0.635
      -  s          13.461   0.635
      -  p          21.927   0.635
      -  d           0.000   0.635
  
    # Using partial waves for C as LCAO basis

  H:
    name: Hydrogen
    id: d65de229564ff8ea4db303e23b6d1ecf
    Z: 1.0
    valence: 1
    core: 0
    charge: 0.0
    file: /home/vazumah/anaconda3/envs/NAME/share/gpaw/H.PBE.gz
    compensation charges: {type: gauss,
                           rc: 0.15,
                           lmax: 2}
    cutoffs: {filter: 0.85,
              core: 0.53}
    valence states:
      #              energy  rcut
      - 1s(1.00)    -6.494   0.476
      -  s          20.717   0.476
      -  p           0.000   0.476
  
    # Using partial waves for H as LCAO basis

  N:
    name: Nitrogen
    id: f7500608b86eaa90eef8b1d9a670dc53
    Z: 7.0
    valence: 5
    core: 2
    charge: 0.0
    file: /home/vazumah/anaconda3/envs/NAME/share/gpaw/N.PBE.gz
    compensation charges: {type: gauss,
                           rc: 0.18,
                           lmax: 2}
    cutoffs: {filter: 1.11,
              core: 0.96}
    valence states:
      #              energy  rcut
      - 2s(2.00)   -18.583   0.603
      - 2p(3.00)    -7.089   0.529
      -  s           8.629   0.603
      -  p          20.123   0.529
      -  d           0.000   0.577
  
    # Using partial waves for N as LCAO basis

Reference energy: -14434.854043  # eV

Spin-paired calculation

Convergence criteria:
 Maximum [total energy] change in last 3 cyles: 0.0005 eV / electron
 Maximum integral of absolute [dens]ity change: 0.0001 electrons / valence electron
 Maximum integral of absolute [eigenst]ate change: 4e-08 eV^2 / valence electron
 Maximum number of scf [iter]ations: 333
 (Square brackets indicate name in SCF output, whereas a 'c' in
 the SCF output indicates the quantity has converged.)

Symmetries present (total): 1

  ( 1  0  0)
  ( 0  1  0)
  ( 0  0  1)

16 k-points: 4 x 4 x 1 Monkhorst-Pack grid
8 k-points in the irreducible part of the Brillouin zone
       k-points in crystal coordinates                weights
   0:     0.12500000   -0.37500000    0.00000000          2/16
   1:     0.12500000   -0.12500000    0.00000000          2/16
   2:     0.12500000    0.12500000    0.00000000          2/16
   3:     0.12500000    0.37500000    0.00000000          2/16
   4:     0.37500000   -0.37500000    0.00000000          2/16
   5:     0.37500000   -0.12500000    0.00000000          2/16
   6:     0.37500000    0.12500000    0.00000000          2/16
   7:     0.37500000    0.37500000    0.00000000          2/16

Wave functions: Uniform real-space grid
  Kinetic energy operator: 6*3+1=19 point O(h^6) finite-difference Laplacian
  ScaLapack parameters: grid=1x1, blocksize=None
  Wavefunction extrapolation:
    Improved wavefunction reuse through dual PAW basis 

Occupation numbers: Fermi-Dirac:
  width: 0.0500  # eV
 

Eigensolver
   Davidson(niter=2) 

Densities:
  Coarse grid: 60*60*156 grid
  Fine grid: 120*120*312 grid
  Total Charge: 0.000000 

Density mixing:
  Method: separate
  Backend: pulay
  Linear mixing parameter: 0.05
  old densities: 5
  Damping of long wavelength oscillations: 50 

Hamiltonian:
  XC and Coulomb potentials evaluated on a 120*120*312 grid
  Using the BEEF-vdW Exchange-Correlation functional
  Interpolation: tri-quintic (5. degree polynomial)
  Poisson solver: FastPoissonSolver using
    Stencil: 6*3+1=19 point O(h^6) finite-difference Laplacian
    FFT axes: [0, 1]
    FST axes: [2]

Dipole correction along z-axis 

XC parameters: BEEF-vdW with 2 nearest neighbor stencil

Memory estimate:
  Process memory now: 214.25 MiB
  Calculator: 307.36 MiB
    Density: 88.33 MiB
      Arrays: 27.47 MiB
      Localized functions: 50.43 MiB
      Mixer: 10.44 MiB
    Hamiltonian: 21.95 MiB
      Arrays: 17.96 MiB
      XC: 0.00 MiB
      Poisson: 0.00 MiB
      vbar: 3.99 MiB
    Wavefunctions: 197.08 MiB
      Arrays psit_nG: 91.85 MiB
      Eigensolver: 102.58 MiB
      Projections: 0.05 MiB
      Projectors: 2.60 MiB

Total number of cores used: 32
Parallelization over k-points: 8
Domain decomposition: 1 x 1 x 4

Number of atoms: 47
Number of atomic orbitals: 170
Number of bands in calculation: 44
Number of valence electrons: 66
Bands to converge: occupied

... initialized

Initializing position-dependent things.

Creating initial wave functions:
  44 bands from LCAO basis set

       .-----------------------.  
      /|                       |  
     / |                       |  
    /  |                       |  
   /   |                       |  
  /    |                       |  
 *     |                       |  
 |     |                       |  
 |     |                       |  
 |     |            H   H      |  
 |     |              H        |  
 |     |       Li   H          |  
 |     |           H  CLi      |  
 |     |                H  N   |  
 |     |     Li       Li     Li|  
 |     |  LLi    Li            |  
 |     |           Li     Li   |  
 Li    | Li     Li             |  
 |     |             N  Li     |  
 |   LiLi    LLi     LLi       |  
 |     |  Li      Li      Li   |  
 | Li  |   Li      Li          |  
 |     |Li      Li      Li     |  
 Li    | Li      Li            |  
 |    Li      Li      Li       |  
 |     |                       |  
 |     |                       |  
 |     |                       |  
 |     |                       |  
 |     |                       |  
 |     |                       |  
 |     .-----------------------.  
 |    /                       /   
 |   /                       /    
 |  /                       /     
 | /                       /      
 |/                       /       
 *-----------------------*        

Positions:
   0 Li     1.617037    1.617037   10.000000    ( 0.0000,  0.0000,  0.0000)
   1 Li     4.851111    1.617037   10.000000    ( 0.0000,  0.0000,  0.0000)
   2 Li     8.085185    1.617037   10.000000    ( 0.0000,  0.0000,  0.0000)
   3 Li     1.617037    4.851111   10.000000    ( 0.0000,  0.0000,  0.0000)
   4 Li     4.851111    4.851111   10.000000    ( 0.0000,  0.0000,  0.0000)
   5 Li     8.085185    4.851111   10.000000    ( 0.0000,  0.0000,  0.0000)
   6 Li     1.617037    8.085185   10.000000    ( 0.0000,  0.0000,  0.0000)
   7 Li     4.851111    8.085185   10.000000    ( 0.0000,  0.0000,  0.0000)
   8 Li     8.085185    8.085185   10.000000    ( 0.0000,  0.0000,  0.0000)
   9 Li     0.000000    0.000000   11.617037    ( 0.0000,  0.0000,  0.0000)
  10 Li     3.234074    0.000000   11.617037    ( 0.0000,  0.0000,  0.0000)
  11 Li     6.468148    0.000000   11.617037    ( 0.0000,  0.0000,  0.0000)
  12 Li     0.000000    3.234074   11.617037    ( 0.0000,  0.0000,  0.0000)
  13 Li     3.234074    3.234074   11.617037    ( 0.0000,  0.0000,  0.0000)
  14 Li     6.468148    3.234074   11.617037    ( 0.0000,  0.0000,  0.0000)
  15 Li     0.000000    6.468148   11.617037    ( 0.0000,  0.0000,  0.0000)
  16 Li     3.234074    6.468148   11.617037    ( 0.0000,  0.0000,  0.0000)
  17 Li     6.468148    6.468148   11.617037    ( 0.0000,  0.0000,  0.0000)
  18 Li     1.885110    1.700670   13.699177    ( 0.0000,  0.0000,  0.0000)
  19 Li     4.807773    1.694145   13.699104    ( 0.0000,  0.0000,  0.0000)
  20 Li     7.992311    1.448976   13.897295    ( 0.0000,  0.0000,  0.0000)
  21 Li     1.831212    4.937620   13.568863    ( 0.0000,  0.0000,  0.0000)
  22 Li     4.958336    4.718879   13.555769    ( 0.0000,  0.0000,  0.0000)
  23 Li     8.028830    4.849708   13.201176    ( 0.0000,  0.0000,  0.0000)
  24 Li     1.736058    8.270687   13.453804    ( 0.0000,  0.0000,  0.0000)
  25 Li     4.636995    8.091206   13.479393    ( 0.0000,  0.0000,  0.0000)
  26 Li     8.004424    8.012768   13.087642    ( 0.0000,  0.0000,  0.0000)
  27 Li     0.052871    0.079678   15.615311    ( 0.0000,  0.0000,  0.0000)
  28 Li     3.275352   -0.070493   15.746433    ( 0.0000,  0.0000,  0.0000)
  29 Li     6.577395   -0.275521   15.261838    ( 0.0000,  0.0000,  0.0000)
  30 Li    -0.430256    3.472714   14.827841    ( 0.0000,  0.0000,  0.0000)
  31 Li     3.051461    3.288805   15.827713    ( 0.0000,  0.0000,  0.0000)
  32 Li     6.375790    3.184424   15.585398    ( 0.0000,  0.0000,  0.0000)
  33 Li    -0.155436    7.268597   15.039931    ( 0.0000,  0.0000,  0.0000)
  34 Li     3.315049    6.490944   15.506442    ( 0.0000,  0.0000,  0.0000)
  35 Li     6.655417    6.601383   15.045974    ( 0.0000,  0.0000,  0.0000)
  36 O      7.845475    2.517799   19.018646    ( 0.0000,  0.0000,  0.0000)
  37 C      8.012906    1.226137   19.636196    ( 0.0000,  0.0000,  0.0000)
  38 C      8.163230    1.275157   21.155869    ( 0.0000,  0.0000,  0.0000)
  39 H      7.156475    0.601143   19.360752    ( 0.0000,  0.0000,  0.0000)
  40 H      8.923261    0.824861   19.185636    ( 0.0000,  0.0000,  0.0000)
  41 H      8.311043    0.275773   21.580842    ( 0.0000,  0.0000,  0.0000)
  42 H      9.020741    1.889369   21.432026    ( 0.0000,  0.0000,  0.0000)
  43 H      7.267583    1.685408   21.630102    ( 0.0000,  0.0000,  0.0000)
  44 H      7.066269    2.919257   19.422542    ( 0.0000,  0.0000,  0.0000)
  45 N      7.372421    3.180664   13.906966    ( 0.0000,  0.0000,  0.0000)
  46 N      8.312096   -0.894266   14.714304    ( 0.0000,  0.0000,  0.0000)

Unit cell:
           periodic     x           y           z      points  spacing
  1. axis:    yes    9.702222    0.000000    0.000000    60     0.1617
  2. axis:    yes    0.000000    9.702222    0.000000    60     0.1617
  3. axis:    no     0.000000    0.000000   24.851111   156     0.1593

  Lengths:   9.702222   9.702222  24.851111
  Angles:   90.000000  90.000000  90.000000

Effective grid spacing dv^(1/3) = 0.1609

     iter     time        total  log10-change:
                         energy  eigst   dens
iter:   1 16:34:24  -308.345510  +1.07
iter:   2 16:34:52  -308.986630  +0.39  -1.69
iter:   3 16:35:20  -309.142434  -0.09  -1.97
iter:   4 16:35:48  -309.203791  -0.47  -2.23
Writing to output.gpw (mode='')

iter:   5 16:36:16  -309.231723  -0.81  -2.48
iter:   6 16:36:44  -309.244443  -1.14  -2.59
iter:   7 16:37:12  -309.252109c -1.37  -2.82
iter:   8 16:37:40  -309.256672c -1.60  -2.89
iter:   9 16:38:07  -309.259431c -1.77  -2.86
Writing to output.gpw (mode='')

iter:  10 16:38:36  -309.261517c -1.94  -2.99
iter:  11 16:39:03  -309.262690c -2.20  -3.21
iter:  12 16:39:31  -309.263682c -2.31  -3.25
iter:  13 16:40:01  -309.264546c -2.37  -3.15
iter:  14 16:40:30  -309.264932c -2.56  -3.01
Writing to output.gpw (mode='')

iter:  15 16:40:59  -309.265239c -2.66  -3.08
iter:  16 16:41:28  -309.265523c -2.84  -3.16
iter:  17 16:41:57  -309.265757c -2.94  -3.12
iter:  18 16:42:25  -309.265838c -3.10  -3.06
iter:  19 16:42:54  -309.265908c -3.16  -3.13
Writing to output.gpw (mode='')

iter:  20 16:43:23  -309.265978c -3.47  -3.17
iter:  21 16:43:53  -309.265975c -3.58  -3.16
iter:  22 16:44:22  -309.265985c -3.60  -3.22
iter:  23 16:44:51  -309.265991c -3.70  -3.37
iter:  24 16:45:21  -309.266012c -3.96  -3.47
Writing to output.gpw (mode='')

iter:  25 16:45:51  -309.266018c -4.06  -3.55
iter:  26 16:46:20  -309.266032c -4.21  -3.66
iter:  27 16:46:49  -309.266041c -4.43  -3.72
iter:  28 16:47:17  -309.266053c -4.57  -3.72
iter:  29 16:47:45  -309.266068c -4.66  -3.83
Writing to output.gpw (mode='')

iter:  30 16:48:13  -309.266068c -4.94  -4.07c
iter:  31 16:48:41  -309.266071c -4.95  -4.12c
iter:  32 16:49:11  -309.266071c -5.00  -4.19c
iter:  33 16:49:40  -309.266073c -5.11  -4.28c
iter:  34 16:50:09  -309.266074c -5.36  -4.36c
Writing to output.gpw (mode='')

iter:  35 16:50:42  -309.266079c -5.40  -4.40c
iter:  36 16:51:13  -309.266078c -5.44  -4.56c
iter:  37 16:51:45  -309.266078c -5.41  -4.70c
iter:  38 16:52:17  -309.266079c -5.53  -4.81c
iter:  39 16:52:48  -309.266080c -5.81  -4.89c
Writing to output.gpw (mode='')

iter:  40 16:53:21  -309.266080c -5.88  -4.90c
iter:  41 16:53:53  -309.266081c -6.04  -4.81c
iter:  42 16:54:27  -309.266081c -6.17  -4.89c
iter:  43 16:54:58  -309.266081c -6.14  -4.84c
iter:  44 16:55:32  -309.266081c -6.13  -4.84c
Writing to output.gpw (mode='')

iter:  45 16:56:15  -309.266081c -6.29  -4.81c
iter:  46 16:57:53  -309.266081c -6.42  -4.83c
iter:  47 16:59:08  -309.266082c -6.52  -4.90c
iter:  48 17:00:41  -309.266082c -6.55  -5.10c
iter:  49 17:02:21  -309.266082c -6.58  -5.19c
Writing to output.gpw (mode='')

iter:  50 17:03:52  -309.266082c -6.77  -5.42c
iter:  51 17:05:02  -309.266082c -6.84  -5.45c
iter:  52 17:06:01  -309.266082c -6.91  -5.47c
iter:  53 17:06:59  -309.266082c -7.00  -5.51c
iter:  54 17:07:54  -309.266082c -6.95  -5.63c
Writing to output.gpw (mode='')

iter:  55 17:09:20  -309.266082c -7.00  -5.65c
iter:  56 17:10:18  -309.266082c -7.21  -5.64c
iter:  57 17:11:15  -309.266082c -7.37  -5.65c
iter:  58 17:12:09  -309.266082c -7.48c -5.62c

Converged after 58 iterations.

Dipole moment: (3.239730, -3.017543, 0.285636) |e|*Ang

Energy contributions relative to reference atoms: (reference = -14434.854043)

Kinetic:       +141.308961
Potential:     -132.964611
External:        +0.000000
XC:            -318.293399
Entropy (-ST):   -0.145185
Local:           +0.755560
--------------------------
Free energy:   -309.338675
Extrapolated:  -309.266082

Dipole-layer corrected work functions: 3.336016, 2.786926 eV

Showing only first 2 kpts
 Kpt  Band  Eigenvalues  Occupancy
  0    31     -3.24474    1.95009
  0    32     -3.15761    1.74488
  0    33     -3.06469    1.03221
  0    34     -2.86176    0.03618

  1    31     -3.30906    1.98596
  1    32     -3.17279    1.80518
  1    33     -2.99937    0.44819
  1    34     -2.88059    0.05229


Fermi level: -3.06147

No gap
Writing to output.gpw (mode='')


Forces in eV/Ang:
  0 Li    0.03363    0.00494   -0.26503
  1 Li   -0.04117    0.00181   -0.29907
  2 Li   -0.00629    0.01276   -0.38171
  3 Li    0.00768   -0.01673   -0.30500
  4 Li   -0.01703   -0.01973   -0.29074
  5 Li   -0.00784    0.04388   -0.37732
  6 Li    0.06323    0.00347   -0.24668
  7 Li   -0.03792   -0.00147   -0.28690
  8 Li   -0.01142   -0.03619   -0.30253
  9 Li    0.06732    0.09132    0.38912
 10 Li    0.06030    0.17591    0.14749
 11 Li   -0.17851    0.07838    0.26635
 12 Li   -0.04089   -0.11349    0.51631
 13 Li   -0.03974   -0.01545    0.21198
 14 Li    0.30985   -0.19218    1.01626
 15 Li    0.17514   -0.07049    0.22509
 16 Li    0.04653   -0.04103    0.23533
 17 Li   -0.25221    0.01210    0.03803
 18 Li   -0.03639   -0.01816   -0.08649
 19 Li    0.24063    0.10701   -0.08202
 20 Li    0.16092   -0.89520   -0.28889
 21 Li   -0.06090    0.02682   -0.04061
 22 Li    0.16683   -0.12000    0.07147
 23 Li   -0.27095   -0.21006    0.05607
 24 Li   -0.08490    0.00959    0.04059
 25 Li    0.05585   -0.00759   -0.02079
 26 Li   -0.03616    0.12125    0.09913
 27 Li   -0.28829   -0.03741   -0.18637
 28 Li    0.07302    0.07847   -0.10532
 29 Li    0.23378   -0.18564    0.11214
 30 Li   -0.31676   -0.04361    0.00918
 31 Li   -0.03283   -0.06055   -0.07237
 32 Li    0.11890    0.04723   -0.33990
 33 Li   -0.26178    0.01225    0.02361
 34 Li    0.03746    0.01374   -0.01459
 35 Li    0.12386    0.28041    0.04373
 36 O     0.05380    0.05517    0.19070
 37 C    -0.03286   -0.02817    0.03269
 38 C    -0.00554    0.05163   -0.02182
 39 H     0.08903   -0.21874   -0.02769
 40 H    -0.09270   -0.11463   -0.05598
 41 H     0.01521    0.02334   -0.18985
 42 H     0.00431    0.05214    0.04110
 43 H     0.00181    0.07987   -0.02572
 44 H    -0.04803    0.10100   -0.04726
 45 N    -0.17422    0.69119    0.18930
 46 N     0.19031    0.23344    0.41601

System changes: positions 

Initializing position-dependent things.

Density initialized from wave functions
       .-----------------------.  
      /|                       |  
     / |                       |  
    /  |                       |  
   /   |                       |  
  /    |                       |  
 *     |                       |  
 |     |                       |  
 |     |                       |  
 |     |            H   H      |  
 |     |              H        |  
 |     |       Li   H          |  
 |     |           H  CLi      |  
 |     |                H  N   |  
 |     |     Li       Li     Li|  
 |     |  LLi    Li            |  
 |     |           Li     Li   |  
 Li    | Li     Li             |  
 |     |             N  Li     |  
 |   LiLi    LLi     LLi       |  
 |     |  Li      Li      Li   |  
 | Li  |   Li      Li          |  
 |     |Li      Li      Li     |  
 Li    | Li      Li            |  
 |    Li      Li      Li       |  
 |     |                       |  
 |     |                       |  
 |     |                       |  
 |     |                       |  
 |     |                       |  
 |     |                       |  
 |     .-----------------------.  
 |    /                       /   
 |   /                       /    
 |  /                       /     
 | /                       /      
 |/                       /       
 *-----------------------*        

Positions:
   0 Li     1.617037    1.617037   10.000000    ( 0.0000,  0.0000,  0.0000)
   1 Li     4.851111    1.617037   10.000000    ( 0.0000,  0.0000,  0.0000)
   2 Li     8.085185    1.617037   10.000000    ( 0.0000,  0.0000,  0.0000)
   3 Li     1.617037    4.851111   10.000000    ( 0.0000,  0.0000,  0.0000)
   4 Li     4.851111    4.851111   10.000000    ( 0.0000,  0.0000,  0.0000)
   5 Li     8.085185    4.851111   10.000000    ( 0.0000,  0.0000,  0.0000)
   6 Li     1.617037    8.085185   10.000000    ( 0.0000,  0.0000,  0.0000)
   7 Li     4.851111    8.085185   10.000000    ( 0.0000,  0.0000,  0.0000)
   8 Li     8.085185    8.085185   10.000000    ( 0.0000,  0.0000,  0.0000)
   9 Li     0.000000    0.000000   11.617037    ( 0.0000,  0.0000,  0.0000)
  10 Li     3.234074    0.000000   11.617037    ( 0.0000,  0.0000,  0.0000)
  11 Li     6.468148    0.000000   11.617037    ( 0.0000,  0.0000,  0.0000)
  12 Li     0.000000    3.234074   11.617037    ( 0.0000,  0.0000,  0.0000)
  13 Li     3.234074    3.234074   11.617037    ( 0.0000,  0.0000,  0.0000)
  14 Li     6.468148    3.234074   11.617037    ( 0.0000,  0.0000,  0.0000)
  15 Li     0.000000    6.468148   11.617037    ( 0.0000,  0.0000,  0.0000)
  16 Li     3.234074    6.468148   11.617037    ( 0.0000,  0.0000,  0.0000)
  17 Li     6.468148    6.468148   11.617037    ( 0.0000,  0.0000,  0.0000)
  18 Li     1.892143    1.699632   13.685614    ( 0.0000,  0.0000,  0.0000)
  19 Li     4.809370    1.702066   13.683590    ( 0.0000,  0.0000,  0.0000)
  20 Li     7.996311    1.454016   13.857816    ( 0.0000,  0.0000,  0.0000)
  21 Li     1.832726    4.947281   13.561034    ( 0.0000,  0.0000,  0.0000)
  22 Li     4.963959    4.714184   13.554248    ( 0.0000,  0.0000,  0.0000)
  23 Li     8.012141    4.834300   13.207032    ( 0.0000,  0.0000,  0.0000)
  24 Li     1.735995    8.272203   13.450545    ( 0.0000,  0.0000,  0.0000)
  25 Li     4.637233    8.085987   13.474466    ( 0.0000,  0.0000,  0.0000)
  26 Li     8.000677    8.028671   13.112226    ( 0.0000,  0.0000,  0.0000)
  27 Li     0.073539    0.076742   15.622027    ( 0.0000,  0.0000,  0.0000)
  28 Li     3.277907   -0.061576   15.731198    ( 0.0000,  0.0000,  0.0000)
  29 Li     6.583073   -0.280220   15.277680    ( 0.0000,  0.0000,  0.0000)
  30 Li    -0.437084    3.452733   14.838831    ( 0.0000,  0.0000,  0.0000)
  31 Li     3.049252    3.281450   15.814815    ( 0.0000,  0.0000,  0.0000)
  32 Li     6.367735    3.188738   15.584404    ( 0.0000,  0.0000,  0.0000)
  33 Li    -0.174253    7.283883   15.046973    ( 0.0000,  0.0000,  0.0000)
  34 Li     3.316970    6.491102   15.497147    ( 0.0000,  0.0000,  0.0000)
  35 Li     6.659140    6.612954   15.055553    ( 0.0000,  0.0000,  0.0000)
  36 O      7.843991    2.517756   19.018343    ( 0.0000,  0.0000,  0.0000)
  37 C      8.013215    1.226627   19.636115    ( 0.0000,  0.0000,  0.0000)
  38 C      8.164521    1.275580   21.156151    ( 0.0000,  0.0000,  0.0000)
  39 H      7.156216    0.601530   19.362016    ( 0.0000,  0.0000,  0.0000)
  40 H      8.923046    0.826222   19.183271    ( 0.0000,  0.0000,  0.0000)
  41 H      8.311517    0.276088   21.580712    ( 0.0000,  0.0000,  0.0000)
  42 H      9.022792    1.888113   21.435279    ( 0.0000,  0.0000,  0.0000)
  43 H      7.267565    1.683056   21.630581    ( 0.0000,  0.0000,  0.0000)
  44 H      7.065061    2.919625   19.422259    ( 0.0000,  0.0000,  0.0000)
  45 N      7.368564    3.181201   13.910027    ( 0.0000,  0.0000,  0.0000)
  46 N      8.313875   -0.900816   14.744643    ( 0.0000,  0.0000,  0.0000)

Unit cell:
           periodic     x           y           z      points  spacing
  1. axis:    yes    9.702222    0.000000    0.000000    60     0.1617
  2. axis:    yes    0.000000    9.702222    0.000000    60     0.1617
  3. axis:    no     0.000000    0.000000   24.851111   156     0.1593

  Lengths:   9.702222   9.702222  24.851111
  Angles:   90.000000  90.000000  90.000000

Effective grid spacing dv^(1/3) = 0.1609

     iter     time        total  log10-change:
                         energy  eigst   dens
iter:   1 17:13:55  -309.335198  -0.90
iter:   2 17:14:55  -309.321401  -1.64  -1.89
iter:   3 17:15:55  -309.319223c -2.16  -2.09
iter:   4 17:16:54  -309.312781c -2.00  -2.16
Writing to output.gpw (mode='')

iter:   5 17:17:56  -309.312307c -2.55  -2.49
iter:   6 17:18:57  -309.311281c -2.49  -2.58
iter:   7 17:21:02  -309.311969c -2.33  -2.83
iter:   8 17:22:42  -309.311393c -3.21  -2.77
iter:   9 17:24:15  -309.311422c -3.52  -3.10
Writing to output.gpw (mode='')

iter:  10 17:26:03  -309.311437c -3.60  -3.13
iter:  11 17:27:49  -309.311378c -3.77  -3.23
iter:  12 17:29:52  -309.311442c -3.86  -3.34
iter:  13 17:32:29  -309.311444c -4.22  -3.44
iter:  14 17:34:43  -309.311433c -4.28  -3.54
Writing to output.gpw (mode='')

iter:  15 17:38:19  -309.311437c -4.72  -3.57
iter:  16 17:41:44  -309.311421c -4.74  -3.61
iter:  17 17:46:50  -309.311421c -4.90  -3.85
iter:  18 17:52:02  -309.311424c -5.13  -3.93
iter:  19 17:57:57  -309.311428c -5.36  -3.93
Writing to output.gpw (mode='')

iter:  20 18:01:58  -309.311437c -5.21  -4.04c
iter:  21 18:08:16  -309.311434c -5.65  -4.32c
iter:  22 18:12:54  -309.311434c -5.40  -4.31c
iter:  23 18:17:46  -309.311439c -5.61  -4.32c
iter:  24 18:22:22  -309.311439c -6.00  -4.48c
Writing to output.gpw (mode='')

iter:  25 18:27:41  -309.311440c -5.96  -4.43c
